 Gaussian 09, Revision E.01,
 Gaussian 09:  ES64L-G09RevE.01 30-Nov-2015

 ----------------------------------------------------------------------
 #rhf/gen scf(tight,novaracc,noincfock,fulldiag) stable(crhf) guess=mix
  geom=nocrowd test
 ----------------------------------------------------------------------

 hf stability analysis of h12 triangular lattice, y= 0.5070038553873883
 5 alpha= 24.000000000000000
 ----------------------------------------------------------------------
 Symbolic Z-matrix:
 Charge =  0 Multiplicity = 1

                         Standard orientation:
 ---------------------------------------------------------------------
 Center     Atomic      Atomic             Coordinates (Angstroms)
 Number     Number       Type             X           Y           Z
 ---------------------------------------------------------------------
      1          1           0        2.779026   -1.878988    0.000000
      2          1           0        2.779026   -3.125505    0.000000
      3          1           0        1.852684   -1.044906    0.000000
      4          1           0        1.852684   -2.291423    0.000000
      5          1           0        0.926342   -0.210824    0.000000
      6          1           0        0.926342   -1.457340    0.000000
      7          1           0        0.000000    0.623258    0.000000
      8          1           0       -0.000000   -0.623258   -0.000000
      9          1           0       -0.926342    1.457340    0.000000
     10          1           0       -0.926342    0.210824    0.000000
     11          1           0       -1.852684    2.291423    0.000000
     12          1           0       -1.852684    1.044906    0.000000
     13          1           0       -2.779026    3.125505    0.000000
     14          1           0       -2.779026    1.878988    0.000000
 ---------------------------------------------------------------------

 SCF Done:  E(RHF) =  -6.67763990941     A.U. after   19 cycles
 E2 =    -0.1794000436D+00 EUMP2 =    -0.68570399529847D+01

 Unable to determine electronic state:  partially filled degenerate orbitals.
 Alpha  occ. eigenvalues --   -0.83580  -0.78345  -0.69895  -0.56193  -0.39312
 Alpha  occ. eigenvalues --   -0.29340  -0.21907
 Alpha virt. eigenvalues --   -0.02203   0.10265   0.15418   0.31467   0.33521
 Alpha virt. eigenvalues --    0.53442   0.65003

 Mulliken charges:
               1
     1  H    0.045915
     2  H   -0.055876
     3  H   -0.197939
     4  H    0.170073
     5  H    0.200294
     6  H   -0.140279
     7  H   -0.050538
     8  H    0.066300
     9  H   -0.103091
    10  H   -0.072377
    11  H    0.013366
    12  H   -0.031663
    13  H    0.092437
    14  H    0.063378
 Sum of Mulliken charges =   0.00000

 Dipole moment (field-independent basis, Debye):
    X=             -1.2502    Y=              1.1284    Z=              0.0000  Tot=              1.6841
 Quadrupole moment (field-independent basis, Debye-Ang):
   XX=            -16.6735   YY=            -16.7030   ZZ=            -18.2312
   XY=             -4.9152   XZ=             -0.0000   YZ=              0.0000

 Normal termination of Gaussian 09 at Tue Feb 14 14:26:01 2017.
