 Gaussian 09, Revision E.01,
 Gaussian 09:  ES64L-G09RevE.01 30-Nov-2015

 ----------------------------------------------------------------------
 #rhf/gen scf(tight,novaracc,noincfock,fulldiag) stable(crhf) guess=mix
  geom=nocrowd test
 ----------------------------------------------------------------------

 hf stability analysis of h12 triangular lattice, y= 1.1127136872907215
  alpha= 65.000000000000000
 ----------------------------------------------------------------------
 Symbolic Z-matrix:
 Charge =  0 Multiplicity = 1

                         Standard orientation:
 ---------------------------------------------------------------------
 Center     Atomic      Atomic             Coordinates (Angstroms)
 Number     Number       Type             X           Y           Z
 ---------------------------------------------------------------------
      1          1           0        2.821519    2.981407    0.000000
      2          1           0        2.821519    1.753663    0.000000
      3          1           0        1.881012    2.192229    0.000000
      4          1           0        1.881012    0.964485    0.000000
      5          1           0        0.940506    1.403050    0.000000
      6          1           0        0.940506    0.175307    0.000000
      7          1           0        0.000000    0.613872    0.000000
      8          1           0       -0.000000   -0.613872   -0.000000
      9          1           0       -0.940506   -0.175307    0.000000
     10          1           0       -0.940506   -1.403050    0.000000
     11          1           0       -1.881012   -0.964485    0.000000
     12          1           0       -1.881012   -2.192229    0.000000
     13          1           0       -2.821519   -1.753663    0.000000
     14          1           0       -2.821519   -2.981407    0.000000
 ---------------------------------------------------------------------

 SCF Done:  E(RHF) =  -6.71044333919     A.U. after   23 cycles
 E2 =    -0.1744901267D+00 EUMP2 =    -0.68849334658919D+01

 The electronic state is 1-AG.
 Alpha  occ. eigenvalues --   -0.84372  -0.78110  -0.69906  -0.55731  -0.38129
 Alpha  occ. eigenvalues --   -0.32591  -0.23033
 Alpha virt. eigenvalues --   -0.02323   0.08757   0.16631   0.33908   0.35296
 Alpha virt. eigenvalues --    0.54421   0.64615

 Mulliken charges:
               1
     1  H    0.090560
     2  H    0.000506
     3  H    0.092353
     4  H   -0.124380
     5  H   -0.211256
     6  H    0.142557
     7  H    0.009660
     8  H    0.009660
     9  H    0.142557
    10  H   -0.211256
    11  H   -0.124380
    12  H    0.092353
    13  H    0.000506
    14  H    0.090560
 Sum of Mulliken charges =   0.00000

 Dipole moment (field-independent basis, Debye):
    X=              0.0000    Y=              0.0000    Z=              0.0000  Tot=              0.0000
 Quadrupole moment (field-independent basis, Debye-Ang):
   XX=            -15.5757   YY=            -14.1912   ZZ=            -18.3013
   XY=              7.9222   XZ=              0.0000   YZ=              0.0000

 Normal termination of Gaussian 09 at Tue Feb 14 14:28:34 2017.
