 Gaussian 09, Revision E.01,
 Gaussian 09:  ES64L-G09RevE.01 30-Nov-2015

 ----------------------------------------------------------------------
 #rhf/gen scf(tight,novaracc,noincfock,fulldiag) stable(crhf) guess=mix
  geom=nocrowd test
 ----------------------------------------------------------------------

 hf stability analysis of h12 triangular lattice, y= 1.0205721581109972
  alpha= 61.000000000000000
 ----------------------------------------------------------------------
 Symbolic Z-matrix:
 Charge =  0 Multiplicity = 1

                         Standard orientation:
 ---------------------------------------------------------------------
 Center     Atomic      Atomic             Coordinates (Angstroms)
 Number     Number       Type             X           Y           Z
 ---------------------------------------------------------------------
      1          1           0        2.968699    2.438487    0.000000
      2          1           0        2.968699    1.271611    0.000000
      3          1           0        1.979133    1.820137    0.000000
      4          1           0        1.979133    0.653262    0.000000
      5          1           0        0.989566    1.201787    0.000000
      6          1           0        0.989566    0.034912    0.000000
      7          1           0       -0.000000    0.583438    0.000000
      8          1           0       -0.000000   -0.583438   -0.000000
      9          1           0       -0.989566   -0.034912    0.000000
     10          1           0       -0.989566   -1.201787    0.000000
     11          1           0       -1.979133   -0.653262    0.000000
     12          1           0       -1.979133   -1.820137    0.000000
     13          1           0       -2.968699   -1.271611    0.000000
     14          1           0       -2.968699   -2.438487    0.000000
 ---------------------------------------------------------------------

 SCF Done:  E(RHF) =  -6.81488615658     A.U. after   17 cycles
 E2 =    -0.1646833179D+00 EUMP2 =    -0.69795694744465D+01

 The electronic state is 1-AG.
 Alpha  occ. eigenvalues --   -0.86354  -0.79843  -0.70358  -0.55372  -0.37825
 Alpha  occ. eigenvalues --   -0.37017  -0.28000
 Alpha virt. eigenvalues --    0.00019   0.07981   0.19165   0.36817   0.42165
 Alpha virt. eigenvalues --    0.61032   0.64658

 Mulliken charges:
               1
     1  H    0.045873
     2  H    0.037702
     3  H    0.077567
     4  H   -0.122024
     5  H   -0.176696
     6  H    0.122194
     7  H    0.015384
     8  H    0.015384
     9  H    0.122194
    10  H   -0.176696
    11  H   -0.122024
    12  H    0.077567
    13  H    0.037702
    14  H    0.045873
 Sum of Mulliken charges =   0.00000

 Dipole moment (field-independent basis, Debye):
    X=             -0.0000    Y=              0.0000    Z=              0.0000  Tot=              0.0000
 Quadrupole moment (field-independent basis, Debye-Ang):
   XX=            -16.0587   YY=            -18.7249   ZZ=            -18.2029
   XY=              4.6581   XZ=             -0.0000   YZ=             -0.0000

 Normal termination of Gaussian 09 at Tue Feb 14 14:28:20 2017.
