 Gaussian 09, Revision E.01,
 Gaussian 09:  ES64L-G09RevE.01 30-Nov-2015

 ----------------------------------------------------------------------
 #rhf/gen scf(tight,novaracc,noincfock,fulldiag) stable(crhf) guess=mix
  geom=nocrowd test
 ----------------------------------------------------------------------

 hf stability analysis of h12 triangular lattice, y= 0.6960275979088506
 0 alpha= 40.000000000000000
 ----------------------------------------------------------------------
 Symbolic Z-matrix:
 Charge =  0 Multiplicity = 1

                         Standard orientation:
 ---------------------------------------------------------------------
 Center     Atomic      Atomic             Coordinates (Angstroms)
 Number     Number       Type             X           Y           Z
 ---------------------------------------------------------------------
      1          1           0        3.199128   -0.022679   -0.000000
      2          1           0        3.199128   -1.105506   -0.000000
      3          1           0        2.132752    0.165352   -0.000000
      4          1           0        2.132752   -0.917475   -0.000000
      5          1           0        1.066376    0.353382   -0.000000
      6          1           0        1.066376   -0.729444   -0.000000
      7          1           0        0.000000    0.541413    0.000000
      8          1           0       -0.000000   -0.541413    0.000000
      9          1           0       -1.066376    0.729444   -0.000000
     10          1           0       -1.066376   -0.353382   -0.000000
     11          1           0       -2.132752    0.917475   -0.000000
     12          1           0       -2.132752   -0.165352   -0.000000
     13          1           0       -3.199128    1.105506   -0.000000
     14          1           0       -3.199128    0.022679   -0.000000
 ---------------------------------------------------------------------

 SCF Done:  E(RHF) =  -6.89519286092     A.U. after   16 cycles
 E2 =    -0.1578009307D+00 EUMP2 =    -0.70529937915749D+01

 The electronic state is 1-AG.
 Alpha  occ. eigenvalues --   -0.89159  -0.82273  -0.70508  -0.54512  -0.45371
 Alpha  occ. eigenvalues --   -0.35928  -0.34190
 Alpha virt. eigenvalues --   -0.01385   0.13682   0.18563   0.42428   0.44661
 Alpha virt. eigenvalues --    0.71033   0.94513

 Mulliken charges:
               1
     1  H    0.041850
     2  H    0.006849
     3  H   -0.068270
     4  H    0.018164
     5  H    0.058508
     6  H   -0.056120
     7  H   -0.000981
     8  H   -0.000981
     9  H   -0.056120
    10  H    0.058508
    11  H    0.018164
    12  H   -0.068270
    13  H    0.006849
    14  H    0.041850
 Sum of Mulliken charges =  -0.00000

 Dipole moment (field-independent basis, Debye):
    X=              0.0000    Y=             -0.0000    Z=             -0.0000  Tot=              0.0000
 Quadrupole moment (field-independent basis, Debye-Ang):
   XX=            -19.0675   YY=            -21.3261   ZZ=            -18.0029
   XY=             -0.2068   XZ=              0.0000   YZ=              0.0000

 Normal termination of Gaussian 09 at Tue Feb 14 14:26:59 2017.
