 Gaussian 09, Revision E.01,
 Gaussian 09:  ES64L-G09RevE.01 30-Nov-2015

 ----------------------------------------------------------------------
 #rhf/gen scf(tight,novaracc,noincfock,fulldiag) stable(crhf) guess=mix
  geom=nocrowd test
 ----------------------------------------------------------------------

 hf stability analysis of h12 triangular lattice, y= 0.2848531043101661
 9 alpha= 8.0000000000000000
 ----------------------------------------------------------------------
 Symbolic Z-matrix:
 Charge =  0 Multiplicity = 1

                         Standard orientation:
 ---------------------------------------------------------------------
 Center     Atomic      Atomic             Coordinates (Angstroms)
 Number     Number       Type             X           Y           Z
 ---------------------------------------------------------------------
      1          1           0        1.692486   -4.879022    0.000000
      2          1           0        1.692486   -6.925776    0.000000
      3          1           0        1.128324   -2.911555    0.000000
      4          1           0        1.128324   -4.958309    0.000000
      5          1           0        0.564162   -0.944089    0.000000
      6          1           0        0.564162   -2.990843    0.000000
      7          1           0        0.000000    1.023377    0.000000
      8          1           0       -0.000000   -1.023377   -0.000000
      9          1           0       -0.564162    2.990843    0.000000
     10          1           0       -0.564162    0.944089    0.000000
     11          1           0       -1.128324    4.958309    0.000000
     12          1           0       -1.128324    2.911555    0.000000
     13          1           0       -1.692486    6.925776    0.000000
     14          1           0       -1.692486    4.879022    0.000000
 ---------------------------------------------------------------------

 SCF Done:  E(RHF) =  -6.81120608945     A.U. after   56 cycles
 E2 =    -0.1227866999D+01 EUMP2 =    -0.80390730885887D+01

 The electronic state is 1-AG.
 Alpha  occ. eigenvalues --   -0.73539  -0.72359  -0.70243  -0.67563  -0.64713
 Alpha  occ. eigenvalues --   -0.62239  -0.19207
 Alpha virt. eigenvalues --   -0.15489   0.42130   0.45628   0.51351   0.58407
 Alpha virt. eigenvalues --    0.65484   0.70967

 Mulliken charges:
               1
     1  H    0.001833
     2  H   -0.002811
     3  H   -0.000388
     4  H    0.000632
     5  H   -0.000067
     6  H    0.000721
     7  H    0.000080
     8  H    0.000080
     9  H    0.000721
    10  H   -0.000067
    11  H    0.000632
    12  H   -0.000388
    13  H   -0.002811
    14  H    0.001833
 Sum of Mulliken charges =   0.00000

 Dipole moment (field-independent basis, Debye):
    X=              0.0000    Y=              0.0000    Z=             -0.0000  Tot=              0.0000
 Quadrupole moment (field-independent basis, Debye-Ang):
   XX=            -17.2434   YY=            -23.7702   ZZ=            -18.5920
   XY=              1.5030   XZ=              0.0000   YZ=              0.0000

 Normal termination of Gaussian 09 at Tue Feb 14 14:25:02 2017.
