 Gaussian 09, Revision E.01,
 Gaussian 09:  ES64L-G09RevE.01 30-Nov-2015

 ----------------------------------------------------------------------
 #rhf/gen scf(tight,novaracc,noincfock,fulldiag) stable(crhf) guess=mix
  geom=nocrowd test
 ----------------------------------------------------------------------

 hf stability analysis of h12 triangular lattice, y= 1.1954046164231349
  alpha= 68.000000000000000
 ----------------------------------------------------------------------
 Symbolic Z-matrix:
 Charge =  0 Multiplicity = 1

                         Standard orientation:
 ---------------------------------------------------------------------
 Center     Atomic      Atomic             Coordinates (Angstroms)
 Number     Number       Type             X           Y           Z
 ---------------------------------------------------------------------
      1          1           0        2.686839    3.426946   -0.000000
      2          1           0        2.686839    2.137660   -0.000000
      3          1           0        1.791226    2.499511   -0.000000
      4          1           0        1.791226    1.210226   -0.000000
      5          1           0        0.895613    1.572077   -0.000000
      6          1           0        0.895613    0.282792   -0.000000
      7          1           0       -0.000000    0.644643    0.000000
      8          1           0       -0.000000   -0.644643   -0.000000
      9          1           0       -0.895613   -0.282792   -0.000000
     10          1           0       -0.895613   -1.572077   -0.000000
     11          1           0       -1.791226   -1.210226   -0.000000
     12          1           0       -1.791226   -2.499511   -0.000000
     13          1           0       -2.686839   -2.137660   -0.000000
     14          1           0       -2.686839   -3.426946   -0.000000
 ---------------------------------------------------------------------

 SCF Done:  E(RHF) =  -6.65364291435     A.U. after   26 cycles
 E2 =    -0.2036604832D+00 EUMP2 =    -0.68573033975218D+01

 The electronic state is 1-AG.
 Alpha  occ. eigenvalues --   -0.81639  -0.79423  -0.69016  -0.57384  -0.41432
 Alpha  occ. eigenvalues --   -0.21667  -0.19429
 Alpha virt. eigenvalues --   -0.00871   0.10873   0.14359   0.23248   0.34137
 Alpha virt. eigenvalues --    0.52839   0.67662

 Mulliken charges:
               1
     1  H   -0.134860
     2  H    0.157590
     3  H    0.129841
     4  H   -0.032578
     5  H    0.026676
     6  H   -0.158461
     7  H    0.011793
     8  H    0.011793
     9  H   -0.158461
    10  H    0.026676
    11  H   -0.032578
    12  H    0.129841
    13  H    0.157590
    14  H   -0.134860
 Sum of Mulliken charges =  -0.00000

 Dipole moment (field-independent basis, Debye):
    X=              0.0000    Y=             -0.0000    Z=             -0.0000  Tot=              0.0000
 Quadrupole moment (field-independent basis, Debye-Ang):
   XX=            -17.1738   YY=            -21.9747   ZZ=            -18.1000
   XY=             -0.5362   XZ=             -0.0000   YZ=             -0.0000

 Normal termination of Gaussian 09 at Tue Feb 14 14:28:45 2017.
