 Gaussian 09, Revision E.01,
 Gaussian 09:  ES64L-G09RevE.01 30-Nov-2015

 ----------------------------------------------------------------------
 #rhf/gen scf(tight,novaracc,noincfock,fulldiag) stable(crhf) guess=mix
  geom=nocrowd test
 ----------------------------------------------------------------------

 hf stability analysis of h12 triangular lattice, y= 1.2594669489559134
  alpha= 70.000000000000000
 ----------------------------------------------------------------------
 Symbolic Z-matrix:
 Charge =  0 Multiplicity = 1

                         Standard orientation:
 ---------------------------------------------------------------------
 Center     Atomic      Atomic             Coordinates (Angstroms)
 Number     Number       Type             X           Y           Z
 ---------------------------------------------------------------------
      1          1           0        2.584578    3.750329   -0.000000
      2          1           0        2.584578    2.410032   -0.000000
      3          1           0        1.723052    2.723602   -0.000000
      4          1           0        1.723052    1.383305   -0.000000
      5          1           0        0.861526    1.696875   -0.000000
      6          1           0        0.861526    0.356578   -0.000000
      7          1           0       -0.000000    0.670148   -0.000000
      8          1           0       -0.000000   -0.670148   -0.000000
      9          1           0       -0.861526   -0.356578   -0.000000
     10          1           0       -0.861526   -1.696875   -0.000000
     11          1           0       -1.723052   -1.383305   -0.000000
     12          1           0       -1.723052   -2.723602   -0.000000
     13          1           0       -2.584578   -2.410032   -0.000000
     14          1           0       -2.584578   -3.750329   -0.000000
 ---------------------------------------------------------------------

 SCF Done:  E(RHF) =  -6.64239005229     A.U. after   23 cycles
 E2 =    -0.2146160959D+00 EUMP2 =    -0.68570061481450D+01

 The electronic state is 1-AG.
 Alpha  occ. eigenvalues --   -0.79673  -0.77988  -0.68015  -0.57314  -0.42437
 Alpha  occ. eigenvalues --   -0.23407  -0.14738
 Alpha virt. eigenvalues --    0.00464   0.08932   0.12717   0.21460   0.36499
 Alpha virt. eigenvalues --    0.54210   0.69443

 Mulliken charges:
               1
     1  H   -0.057223
     2  H    0.107642
     3  H    0.123493
     4  H   -0.014596
     5  H   -0.014489
     6  H   -0.172699
     7  H    0.027872
     8  H    0.027872
     9  H   -0.172699
    10  H   -0.014489
    11  H   -0.014596
    12  H    0.123493
    13  H    0.107642
    14  H   -0.057223
 Sum of Mulliken charges =   0.00000

 Dipole moment (field-independent basis, Debye):
    X=              0.0000    Y=             -0.0000    Z=             -0.0000  Tot=              0.0000
 Quadrupole moment (field-independent basis, Debye-Ang):
   XX=            -15.3194   YY=            -15.4166   ZZ=            -18.1596
   XY=              3.7647   XZ=             -0.0000   YZ=             -0.0000

 Normal termination of Gaussian 09 at Tue Feb 14 14:28:53 2017.
