 Gaussian 09, Revision E.01,
 Gaussian 09:  ES64L-G09RevE.01 30-Nov-2015

 ----------------------------------------------------------------------
 #rhf/gen scf(tight,novaracc,noincfock,fulldiag) stable(crhf) guess=mix
  geom=nocrowd test
 ----------------------------------------------------------------------

 hf stability analysis of h12 triangular lattice, y= 0.5306529471566099
 3 alpha= 26.000000000000000
 ----------------------------------------------------------------------
 Symbolic Z-matrix:
 Charge =  0 Multiplicity = 1

                         Standard orientation:
 ---------------------------------------------------------------------
 Center     Atomic      Atomic             Coordinates (Angstroms)
 Number     Number       Type             X           Y           Z
 ---------------------------------------------------------------------
      1          1           0        2.861686   -1.630539    0.000000
      2          1           0        2.861686   -2.841050    0.000000
      3          1           0        1.907791   -0.885274    0.000000
      4          1           0        1.907791   -2.095785    0.000000
      5          1           0        0.953895   -0.140009    0.000000
      6          1           0        0.953895   -1.350520    0.000000
      7          1           0        0.000000    0.605255    0.000000
      8          1           0       -0.000000   -0.605255   -0.000000
      9          1           0       -0.953895    1.350520    0.000000
     10          1           0       -0.953895    0.140009    0.000000
     11          1           0       -1.907791    2.095785    0.000000
     12          1           0       -1.907791    0.885274    0.000000
     13          1           0       -2.861686    2.841050    0.000000
     14          1           0       -2.861686    1.630539    0.000000
 ---------------------------------------------------------------------

 SCF Done:  E(RHF) =  -6.74290171021     A.U. after   20 cycles
 E2 =    -0.1713763614D+00 EUMP2 =    -0.69142780715766D+01

 The electronic state is 1-AG.
 Alpha  occ. eigenvalues --   -0.84903  -0.78589  -0.70047  -0.55631  -0.37835
 Alpha  occ. eigenvalues --   -0.34048  -0.24413
 Alpha virt. eigenvalues --   -0.01481   0.08289   0.17599   0.34355   0.37782
 Alpha virt. eigenvalues --    0.55242   0.64539

 Mulliken charges:
               1
     1  H    0.012909
     2  H    0.078831
     3  H   -0.124338
     4  H    0.087270
     5  H    0.134683
     6  H   -0.202796
     7  H    0.013441
     8  H    0.013441
     9  H   -0.202796
    10  H    0.134683
    11  H    0.087270
    12  H   -0.124338
    13  H    0.078831
    14  H    0.012909
 Sum of Mulliken charges =  -0.00000

 Dipole moment (field-independent basis, Debye):
    X=             -0.0000    Y=              0.0000    Z=              0.0000  Tot=              0.0000
 Quadrupole moment (field-independent basis, Debye-Ang):
   XX=            -15.5455   YY=            -15.5742   ZZ=            -18.2775
   XY=             -7.1212   XZ=             -0.0000   YZ=              0.0000

 Normal termination of Gaussian 09 at Tue Feb 14 14:26:08 2017.
