 Gaussian 09, Revision E.01,
 Gaussian 09:  ES64L-G09RevE.01 30-Nov-2015

 ----------------------------------------------------------------------
 #rhf/gen scf(tight,novaracc,noincfock,fulldiag) stable(crhf) guess=mix
  geom=nocrowd test
 ----------------------------------------------------------------------

 hf stability analysis of h12 triangular lattice, y= 1.0644781770328475
  alpha= 63.000000000000000
 ----------------------------------------------------------------------
 Symbolic Z-matrix:
 Charge =  0 Multiplicity = 1

                         Standard orientation:
 ---------------------------------------------------------------------
 Center     Atomic      Atomic             Coordinates (Angstroms)
 Number     Number       Type             X           Y           Z
 ---------------------------------------------------------------------
      1          1           0        2.899578    2.704012    0.000000
      2          1           0        2.899578    1.509321    0.000000
      3          1           0        1.933052    2.001790    0.000000
      4          1           0        1.933052    0.807099    0.000000
      5          1           0        0.966526    1.299568    0.000000
      6          1           0        0.966526    0.104876    0.000000
      7          1           0        0.000000    0.597346    0.000000
      8          1           0       -0.000000   -0.597346   -0.000000
      9          1           0       -0.966526   -0.104876    0.000000
     10          1           0       -0.966526   -1.299568   -0.000000
     11          1           0       -1.933052   -0.807099    0.000000
     12          1           0       -1.933052   -2.001790   -0.000000
     13          1           0       -2.899578   -1.509321   -0.000000
     14          1           0       -2.899578   -2.704012   -0.000000
 ---------------------------------------------------------------------

 SCF Done:  E(RHF) =  -6.77085352257     A.U. after   18 cycles
 E2 =    -0.1687570258D+00 EUMP2 =    -0.69396105483932D+01

 The electronic state is 1-AG.
 Alpha  occ. eigenvalues --   -0.85418  -0.79039  -0.70170  -0.55543  -0.37553
 Alpha  occ. eigenvalues --   -0.35404  -0.25698
 Alpha virt. eigenvalues --   -0.00792   0.07984   0.18331   0.35017   0.39776
 Alpha virt. eigenvalues --    0.56598   0.64505

 Mulliken charges:
               1
     1  H    0.067085
     2  H    0.022961
     3  H    0.083585
     4  H   -0.124078
     5  H   -0.194230
     6  H    0.129558
     7  H    0.015119
     8  H    0.015119
     9  H    0.129558
    10  H   -0.194230
    11  H   -0.124078
    12  H    0.083585
    13  H    0.022961
    14  H    0.067085
 Sum of Mulliken charges =  -0.00000

 Dipole moment (field-independent basis, Debye):
    X=             -0.0000    Y=             -0.0000    Z=              0.0000  Tot=              0.0000
 Quadrupole moment (field-independent basis, Debye-Ang):
   XX=            -15.6463   YY=            -16.8042   ZZ=            -18.2526
   XY=              6.2739   XZ=              0.0000   YZ=             -0.0000

 Normal termination of Gaussian 09 at Tue Feb 14 14:28:27 2017.
