 Gaussian 09, Revision E.01,
 Gaussian 09:  ES64L-G09RevE.01 30-Nov-2015

 ----------------------------------------------------------------------
 #rhf/gen scf(tight,novaracc,noincfock,fulldiag) stable(crhf) guess=mix
  geom=nocrowd test
 ----------------------------------------------------------------------

 hf stability analysis of h12 triangular lattice, y= 1.4189643903365978
  alpha= 74.000000000000000
 ----------------------------------------------------------------------
 Symbolic Z-matrix:
 Charge =  0 Multiplicity = 1

                         Standard orientation:
 ---------------------------------------------------------------------
 Center     Atomic      Atomic             Coordinates (Angstroms)
 Number     Number       Type             X           Y           Z
 ---------------------------------------------------------------------
      1          1           0        2.346718    4.493607    0.000000
      2          1           0        2.346718    3.017459    0.000000
      3          1           0        1.564478    3.241763    0.000000
      4          1           0        1.564478    1.765615    0.000000
      5          1           0        0.782239    1.989918    0.000000
      6          1           0        0.782239    0.513770    0.000000
      7          1           0        0.000000    0.738074    0.000000
      8          1           0       -0.000000   -0.738074    0.000000
      9          1           0       -0.782239   -0.513770   -0.000000
     10          1           0       -0.782239   -1.989918   -0.000000
     11          1           0       -1.564478   -1.765615   -0.000000
     12          1           0       -1.564478   -3.241763   -0.000000
     13          1           0       -2.346718   -3.017459   -0.000000
     14          1           0       -2.346718   -4.493607   -0.000000
 ---------------------------------------------------------------------

 SCF Done:  E(RHF) =  -6.83693711274     A.U. after   16 cycles
 E2 =    -0.5765541185D+00 EUMP2 =    -0.74134912311965D+01

 The electronic state is 1-AG.
 Alpha  occ. eigenvalues --   -0.78555  -0.75373  -0.69095  -0.60648  -0.50364
 Alpha  occ. eigenvalues --   -0.38489  -0.10510
 Alpha virt. eigenvalues --   -0.04167   0.14408   0.20134   0.30172   0.42743
 Alpha virt. eigenvalues --    0.55695   0.65867

 Mulliken charges:
               1
     1  H   -0.152669
     2  H    0.024685
     3  H    0.074266
     4  H    0.014868
     5  H    0.017145
     6  H    0.007676
     7  H    0.014030
     8  H    0.014030
     9  H    0.007676
    10  H    0.017145
    11  H    0.014868
    12  H    0.074266
    13  H    0.024685
    14  H   -0.152669
 Sum of Mulliken charges =  -0.00000

 Dipole moment (field-independent basis, Debye):
    X=             -0.0000    Y=             -0.0000    Z=              0.0000  Tot=              0.0000
 Quadrupole moment (field-independent basis, Debye-Ang):
   XX=            -22.0150   YY=            -43.7451   ZZ=            -17.7413
   XY=            -14.4108   XZ=             -0.0000   YZ=             -0.0000

 Normal termination of Gaussian 09 at Tue Feb 14 14:29:11 2017.
