 Gaussian 09, Revision E.01,
 Gaussian 09:  ES64L-G09RevE.01 30-Nov-2015

 ----------------------------------------------------------------------
 #rhf/gen scf(tight,novaracc,noincfock,fulldiag) stable(crhf) guess=mix
  geom=nocrowd test
 ----------------------------------------------------------------------

 hf stability analysis of h12 triangular lattice, y= 0.3650915174764740
 0 alpha= 13.000000000000000
 ----------------------------------------------------------------------
 Symbolic Z-matrix:
 Charge =  0 Multiplicity = 1

                         Standard orientation:
 ---------------------------------------------------------------------
 Center     Atomic      Atomic             Coordinates (Angstroms)
 Number     Number       Type             X           Y           Z
 ---------------------------------------------------------------------
      1          1           0        2.134405   -3.564689    0.000000
      2          1           0        2.134405   -5.187671    0.000000
      3          1           0        1.422937   -2.105962    0.000000
      4          1           0        1.422937   -3.728944    0.000000
      5          1           0        0.711468   -0.647236    0.000000
      6          1           0        0.711468   -2.270218    0.000000
      7          1           0        0.000000    0.811491   -0.000000
      8          1           0       -0.000000   -0.811491   -0.000000
      9          1           0       -0.711468    2.270218    0.000000
     10          1           0       -0.711468    0.647236    0.000000
     11          1           0       -1.422937    3.728944    0.000000
     12          1           0       -1.422937    2.105962    0.000000
     13          1           0       -2.134405    5.187671    0.000000
     14          1           0       -2.134405    3.564689    0.000000
 ---------------------------------------------------------------------

 SCF Done:  E(RHF) =  -6.98844198091     A.U. after   15 cycles
 E2 =    -0.8356086150D+00 EUMP2 =    -0.78240505958867D+01

 The electronic state is 1-AG.
 Alpha  occ. eigenvalues --   -0.75654  -0.73363  -0.68588  -0.62211  -0.54626
 Alpha  occ. eigenvalues --   -0.46467  -0.14849
 Alpha virt. eigenvalues --   -0.09857   0.23429   0.28241   0.36936   0.47927
 Alpha virt. eigenvalues --    0.59302   0.68575

 Mulliken charges:
               1
     1  H    0.017029
     2  H   -0.064477
     3  H    0.002432
     4  H    0.031803
     5  H    0.000902
     6  H    0.009348
     7  H    0.002963
     8  H    0.002963
     9  H    0.009348
    10  H    0.000902
    11  H    0.031803
    12  H    0.002432
    13  H   -0.064477
    14  H    0.017029
 Sum of Mulliken charges =  -0.00000

 Dipole moment (field-independent basis, Debye):
    X=             -0.0000    Y=              0.0000    Z=             -0.0000  Tot=              0.0000
 Quadrupole moment (field-independent basis, Debye-Ang):
   XX=            -18.3223   YY=            -34.7269   ZZ=            -17.9927
   XY=              7.4262   XZ=             -0.0000   YZ=              0.0000

 Normal termination of Gaussian 09 at Tue Feb 14 14:25:21 2017.
