 Gaussian 09, Revision E.01,
 Gaussian 09:  ES64L-G09RevE.01 30-Nov-2015

 ----------------------------------------------------------------------
 #rhf/gen scf(tight,novaracc,noincfock,fulldiag) stable(crhf) guess=mix
  geom=nocrowd test
 ----------------------------------------------------------------------

 hf stability analysis of h12 triangular lattice, y= 1.1662555983306084
  alpha= 67.000000000000000
 ----------------------------------------------------------------------
 Symbolic Z-matrix:
 Charge =  0 Multiplicity = 1

                         Standard orientation:
 ---------------------------------------------------------------------
 Center     Atomic      Atomic             Coordinates (Angstroms)
 Number     Number       Type             X           Y           Z
 ---------------------------------------------------------------------
      1          1           0        2.734154    3.273829    0.000000
      2          1           0        2.734154    2.006855    0.000000
      3          1           0        1.822769    2.393715    0.000000
      4          1           0        1.822769    1.126741    0.000000
      5          1           0        0.911385    1.513601    0.000000
      6          1           0        0.911385    0.246627    0.000000
      7          1           0        0.000000    0.633487    0.000000
      8          1           0       -0.000000   -0.633487    0.000000
      9          1           0       -0.911385   -0.246627    0.000000
     10          1           0       -0.911385   -1.513601    0.000000
     11          1           0       -1.822769   -1.126741    0.000000
     12          1           0       -1.822769   -2.393715    0.000000
     13          1           0       -2.734154   -2.006855    0.000000
     14          1           0       -2.734154   -3.273829    0.000000
 ---------------------------------------------------------------------

 SCF Done:  E(RHF) =  -6.65837462882     A.U. after   18 cycles
 E2 =    -0.1882909921D+00 EUMP2 =    -0.68466656208936D+01

 Unable to determine electronic state:  partially filled degenerate orbitals.
 Alpha  occ. eigenvalues --   -0.82531  -0.79025  -0.69754  -0.56893  -0.40608
 Alpha  occ. eigenvalues --   -0.24846  -0.20933
 Alpha virt. eigenvalues --   -0.01545   0.11840   0.14004   0.26943   0.33544
 Alpha virt. eigenvalues --    0.52750   0.66098

 Mulliken charges:
               1
     1  H   -0.177047
     2  H    0.140757
     3  H    0.182599
     4  H   -0.155632
     5  H   -0.036870
     6  H    0.065873
     7  H    0.065343
     8  H   -0.043855
     9  H   -0.196400
    10  H    0.001522
    11  H    0.001835
    12  H    0.028215
    13  H    0.119563
    14  H    0.004097
 Sum of Mulliken charges =  -0.00000

 Dipole moment (field-independent basis, Debye):
    X=             -1.1475    Y=             -1.3575    Z=              0.0000  Tot=              1.7775
 Quadrupole moment (field-independent basis, Debye-Ang):
   XX=            -17.4374   YY=            -20.8209   ZZ=            -18.1390
   XY=              0.8289   XZ=             -0.0000   YZ=             -0.0000

 Normal termination of Gaussian 09 at Tue Feb 14 14:28:41 2017.
