 Gaussian 09, Revision E.01,
 Gaussian 09:  ES64L-G09RevE.01 30-Nov-2015

 ----------------------------------------------------------------------
 #rhf/gen scf(tight,novaracc,noincfock,fulldiag) stable(crhf) guess=mix
  geom=nocrowd test
 ----------------------------------------------------------------------

 hf stability analysis of h12 triangular lattice, y= 1.7234297938777567
  alpha= 79.000000000000000
 ----------------------------------------------------------------------
 Symbolic Z-matrix:
 Charge =  0 Multiplicity = 1

                         Standard orientation:
 ---------------------------------------------------------------------
 Center     Atomic      Atomic             Coordinates (Angstroms)
 Number     Number       Type             X           Y           Z
 ---------------------------------------------------------------------
      1          1           0        1.973075    5.761376    0.000000
      2          1           0        1.973075    4.005690    0.000000
      3          1           0        1.315384    4.133532    0.000000
      4          1           0        1.315384    2.377845    0.000000
      5          1           0        0.657692    2.505688    0.000000
      6          1           0        0.657692    0.750001    0.000000
      7          1           0        0.000000    0.877843    0.000000
      8          1           0       -0.000000   -0.877843    0.000000
      9          1           0       -0.657692   -0.750001    0.000000
     10          1           0       -0.657692   -2.505688    0.000000
     11          1           0       -1.315384   -2.377845    0.000000
     12          1           0       -1.315384   -4.133532    0.000000
     13          1           0       -1.973075   -4.005690    0.000000
     14          1           0       -1.973075   -5.761376    0.000000
 ---------------------------------------------------------------------

 SCF Done:  E(RHF) =  -7.01056974478     A.U. after   26 cycles
 E2 =    -0.9925798223D+00 EUMP2 =    -0.80031495671083D+01

 The electronic state is 1-AG.
 Alpha  occ. eigenvalues --   -0.74422  -0.72563  -0.68839  -0.63903  -0.58227
 Alpha  occ. eigenvalues --   -0.52559  -0.17096
 Alpha virt. eigenvalues --   -0.12664   0.30023   0.34380   0.42025   0.51670
 Alpha virt. eigenvalues --    0.61595   0.69605

 Mulliken charges:
               1
     1  H   -0.028017
     2  H    0.009362
     3  H    0.013882
     4  H   -0.000082
     5  H    0.004082
     6  H   -0.000023
     7  H    0.000796
     8  H    0.000796
     9  H   -0.000023
    10  H    0.004082
    11  H   -0.000082
    12  H    0.013882
    13  H    0.009362
    14  H   -0.028017
 Sum of Mulliken charges =  -0.00000

 Dipole moment (field-independent basis, Debye):
    X=              0.0000    Y=              0.0000    Z=             -0.0000  Tot=              0.0000
 Quadrupole moment (field-independent basis, Debye-Ang):
   XX=            -17.3533   YY=            -29.4823   ZZ=            -18.2115
   XY=             -4.2675   XZ=              0.0000   YZ=              0.0000

 Normal termination of Gaussian 09 at Tue Feb 14 14:29:28 2017.
