 Gaussian 09, Revision E.01,
 Gaussian 09:  ES64L-G09RevE.01 30-Nov-2015

 ----------------------------------------------------------------------
 #rhf/gen scf(tight,novaracc,noincfock,fulldiag) stable(crhf) guess=mix
  geom=nocrowd test
 ----------------------------------------------------------------------

 hf stability analysis of h12 triangular lattice, y= 0.3794068973118231
 4 alpha= 14.000000000000000
 ----------------------------------------------------------------------
 Symbolic Z-matrix:
 Charge =  0 Multiplicity = 1

                         Standard orientation:
 ---------------------------------------------------------------------
 Center     Atomic      Atomic             Coordinates (Angstroms)
 Number     Number       Type             X           Y           Z
 ---------------------------------------------------------------------
      1          1           0        2.208821   -3.370037    0.000000
      2          1           0        2.208821   -4.938340    0.000000
      3          1           0        1.472548   -1.985307    0.000000
      4          1           0        1.472548   -3.553611    0.000000
      5          1           0        0.736274   -0.600578    0.000000
      6          1           0        0.736274   -2.168881    0.000000
      7          1           0        0.000000    0.784152   -0.000000
      8          1           0       -0.000000   -0.784152    0.000000
      9          1           0       -0.736274    2.168881   -0.000000
     10          1           0       -0.736274    0.600578    0.000000
     11          1           0       -1.472548    3.553611   -0.000000
     12          1           0       -1.472548    1.985307    0.000000
     13          1           0       -2.208821    4.938340   -0.000000
     14          1           0       -2.208821    3.370037    0.000000
 ---------------------------------------------------------------------

 SCF Done:  E(RHF) =  -6.94969367376     A.U. after   14 cycles
 E2 =    -0.7520332531D+00 EUMP2 =    -0.77017269268486D+01

 The electronic state is 1-AG.
 Alpha  occ. eigenvalues --   -0.76479  -0.73937  -0.68648  -0.61574  -0.53067
 Alpha  occ. eigenvalues --   -0.43638  -0.13494
 Alpha virt. eigenvalues --   -0.08145   0.20343   0.25412   0.34586   0.46157
 Alpha virt. eigenvalues --    0.58128   0.67849

 Mulliken charges:
               1
     1  H    0.020860
     2  H   -0.089876
     3  H    0.005175
     4  H    0.043629
     5  H    0.002187
     6  H    0.012764
     7  H    0.005262
     8  H    0.005262
     9  H    0.012764
    10  H    0.002187
    11  H    0.043629
    12  H    0.005175
    13  H   -0.089876
    14  H    0.020860
 Sum of Mulliken charges =   0.00000

 Dipole moment (field-independent basis, Debye):
    X=              0.0000    Y=             -0.0000    Z=             -0.0000  Tot=              0.0000
 Quadrupole moment (field-independent basis, Debye-Ang):
   XX=            -19.2182   YY=            -37.7371   ZZ=            -17.8979
   XY=              9.4930   XZ=             -0.0000   YZ=              0.0000

 Normal termination of Gaussian 09 at Tue Feb 14 14:25:25 2017.
