 Gaussian 09, Revision E.01,
 Gaussian 09:  ES64L-G09RevE.01 30-Nov-2015

 ----------------------------------------------------------------------
 #t rhf/gen scf(tight,novaracc,noincfock) stable(crhf) guess=mix geom=n
 ocrowd test
 ----------------------------------------------------------------------

 scf stability calculation for a triangular configuration of 10 H atoms
  (made up of 8 iscosceles triangles)
 ----------------------------------------------------------------------
 Symbolic Z-matrix:
 Charge =  0 Multiplicity = 1

                         Standard orientation:
 ---------------------------------------------------------------------
 Center     Atomic      Atomic             Coordinates (Angstroms)
 Number     Number       Type             X           Y           Z
 ---------------------------------------------------------------------
      1          1           0        0.000000    3.751159    0.000000
      2          1           0        0.461736    3.708162    0.000000
      3          1           0       -0.461736    1.293383    0.000000
      4          1           0        0.000000    1.250386    0.000000
      5          1           0        0.461736    1.207390    0.000000
      6          1           0       -0.461736   -1.207390    0.000000
      7          1           0       -0.000000   -1.250386    0.000000
      8          1           0        0.461736   -1.293383    0.000000
      9          1           0       -0.461736   -3.708162    0.000000
     10          1           0       -0.000000   -3.751159    0.000000
 ---------------------------------------------------------------------

 SCF Done:  E(RHF) =  -3.56387346669     A.U. after   12 cycles
 E2 =    -0.9983151972D-01 EUMP2 =    -0.36637049864045D+01

 The electronic state is 1-AG.
 Alpha  occ. eigenvalues --   -0.95074  -0.94552  -0.72915  -0.72911  -0.18100
 Alpha virt. eigenvalues --    0.06523   0.64865   0.64981   1.54810   1.64787

 Mulliken charges:
               1
     1  H   -0.001697
     2  H   -0.000636
     3  H    0.355645
     4  H   -0.712159
     5  H    0.358847
     6  H    0.358847
     7  H   -0.712159
     8  H    0.355645
     9  H   -0.000636
    10  H   -0.001697
 Sum of Mulliken charges =   0.00000

 Dipole moment (field-independent basis, Debye):
    X=              0.0000    Y=             -0.0000    Z=             -0.0000  Tot=              0.0000

 Test job not archived.
 1\1\GINC-SULU\Stability\RHF\Gen\H10\LCJ1\05-Feb-2017\0\\#t rhf/gen scf
 (tight,novaracc,noincfock) stable(crhf) guess=mix geom=nocrowd test\\s
 cf stability calculation for a triangular configuration of 10 H atoms
 (made up of 8 iscosceles triangles)\\0,1\H,0,-0.231867,0.,4.98\H,0,0.2
 31867,0.,4.98\H,0,-0.463734,0.,2.49\H,0,0.,0.,2.49\H,0,0.463734,0.,2.4
 9\H,0,-0.231867,0.,0.\H,0,0.231867,0.,0.\H,0,0.695601,0.,0.\H,0,0.,0.,
 -2.49\H,0,0.463734,0.,-2.49\\Version=ES64L-G09RevE.01\State=1-AG\HF=-3
 .5638735\MP2=-3.663705\RMSD=2.700e-09\Dipole=0.,0.,0.\Quadrupole=-0.46

 Normal termination of Gaussian 09 at Sun Feb  5 19:25:20 2017.
