 Gaussian 09, Revision E.01,
 Gaussian 09:  ES64L-G09RevE.01 30-Nov-2015

 ----------------------------------------------------------------------
 #rhf/gen scf(symm,tight,novaracc,noincfock,fulldiag) stable(crhf) geom
 =nocrowd test
 ----------------------------------------------------------------------

 hf stability analysis of h10 triangular lattice, y= 0.3116621908519156
 5
 ----------------------------------------------------------------------
 Symbolic Z-matrix:
 Charge =  0 Multiplicity = 1

                         Standard orientation:
 ---------------------------------------------------------------------
 Center     Atomic      Atomic             Coordinates (Angstroms)
 Number     Number       Type             X           Y           Z
 ---------------------------------------------------------------------
      1          1           0        1.852487    0.623324   -0.000000
      2          1           0        3.704975    0.311662   -0.000000
      3          1           0       -0.000000    0.311662   -0.000000
      4          1           0        1.852487    0.000000    0.000000
      5          1           0       -1.852487    0.000000    0.000000
      6          1           0       -0.000000   -0.311662   -0.000000
      7          1           0       -3.704975   -0.311662    0.000000
      8          1           0       -1.852487   -0.623324    0.000000
 ---------------------------------------------------------------------

 SCF Done:  E(RHF) =  -3.84638154807     A.U. after    7 cycles
 E2 =    -0.5293665607D+00 EUMP2 =    -0.43757481087484D+01

 The electronic state is 1-AG.
 Alpha  occ. eigenvalues --   -0.73582  -0.68168  -0.60803  -0.20088
 Alpha virt. eigenvalues --   -0.12490   0.37261   0.49255   0.64195

 Mulliken charges:
               1
     1  H    0.007675
     2  H   -0.017758
     3  H    0.003152
     4  H    0.006931
     5  H    0.006931
     6  H    0.003152
     7  H   -0.017758
     8  H    0.007675
 Sum of Mulliken charges =   0.00000

 Dipole moment (field-independent basis, Debye):
    X=             -0.0000    Y=              0.0000    Z=             -0.0000  Tot=              0.0000
 Quadrupole moment (field-independent basis, Debye-Ang):
   XX=            -15.2876   YY=             -9.6284   ZZ=            -10.5847
   XY=             -0.4232   XZ=              0.0000   YZ=             -0.0000

 Normal termination of Gaussian 09 at Thu Feb  9 15:26:12 2017.
