 Gaussian 09, Revision E.01,
 Gaussian 09:  ES64L-G09RevE.01 30-Nov-2015

 ----------------------------------------------------------------------
 #rhf/gen scf(symm,tight,novaracc,noincfock,fulldiag) stable(crhf) geom
 =nocrowd test
 ----------------------------------------------------------------------

 hf stability analysis of h10 triangular lattice, y= 0.4214452989599988
 8
 ----------------------------------------------------------------------
 Symbolic Z-matrix:
 Charge =  0 Multiplicity = 1

                         Standard orientation:
 ---------------------------------------------------------------------
 Center     Atomic      Atomic             Coordinates (Angstroms)
 Number     Number       Type             X           Y           Z
 ---------------------------------------------------------------------
      1          1           0        1.369929    0.842891    0.000000
      2          1           0        2.739859    0.421445    0.000000
      3          1           0        0.000000    0.421445    0.000000
      4          1           0        1.369929    0.000000    0.000000
      5          1           0       -1.369929    0.000000   -0.000000
      6          1           0       -0.000000   -0.421445    0.000000
      7          1           0       -2.739859   -0.421445   -0.000000
      8          1           0       -1.369929   -0.842891   -0.000000
 ---------------------------------------------------------------------

 SCF Done:  E(RHF) =  -3.83384761142     A.U. after   11 cycles
 E2 =    -0.1622789923D+00 EUMP2 =    -0.39961266037470D+01

 The electronic state is 1-AG.
 Alpha  occ. eigenvalues --   -0.80657  -0.68006  -0.49237  -0.16545
 Alpha virt. eigenvalues --    0.01515   0.11970   0.30578   0.52572

 Mulliken charges:
               1
     1  H    0.061886
     2  H   -0.180643
     3  H    0.005593
     4  H    0.113164
     5  H    0.113164
     6  H    0.005593
     7  H   -0.180643
     8  H    0.061886
 Sum of Mulliken charges =   0.00000

 Dipole moment (field-independent basis, Debye):
    X=              0.0000    Y=              0.0000    Z=              0.0000  Tot=              0.0000
 Quadrupole moment (field-independent basis, Debye-Ang):
   XX=            -23.9894   YY=             -9.4167   ZZ=            -10.4311
   XY=             -1.9875   XZ=             -0.0000   YZ=             -0.0000

 Normal termination of Gaussian 09 at Thu Feb  9 15:20:35 2017.
