 Gaussian 09, Revision E.01,
 Gaussian 09:  ES64L-G09RevE.01 30-Nov-2015

 ----------------------------------------------------------------------
 #rhf/gen scf(symm,tight,novaracc,noincfock,fulldiag) stable(crhf) geom
 =nocrowd test
 ----------------------------------------------------------------------

 hf stability analysis of h10 triangular lattice, y= 0.5726959158952930
 1
 ----------------------------------------------------------------------
 Symbolic Z-matrix:
 Charge =  0 Multiplicity = 1

                         Standard orientation:
 ---------------------------------------------------------------------
 Center     Atomic      Atomic             Coordinates (Angstroms)
 Number     Number       Type             X           Y           Z
 ---------------------------------------------------------------------
      1          1           0        1.008127    1.145392   -0.000000
      2          1           0        2.016254    0.572696   -0.000000
      3          1           0        0.000000    0.572696    0.000000
      4          1           0        1.008127    0.000000   -0.000000
      5          1           0       -1.008127    0.000000   -0.000000
      6          1           0       -0.000000   -0.572696    0.000000
      7          1           0       -2.016254   -0.572696   -0.000000
      8          1           0       -1.008127   -1.145392   -0.000000
 ---------------------------------------------------------------------

 SCF Done:  E(RHF) =  -3.94899290703     A.U. after    9 cycles
 E2 =    -0.8110049578D-01 EUMP2 =    -0.40300934028153D+01

 The electronic state is 1-AG.
 Alpha  occ. eigenvalues --   -0.82525  -0.66714  -0.40965  -0.33476
 Alpha virt. eigenvalues --    0.08915   0.13568   0.47299   0.52409

 Mulliken charges:
               1
     1  H    0.098143
     2  H   -0.027630
     3  H   -0.214218
     4  H    0.143705
     5  H    0.143705
     6  H   -0.214218
     7  H   -0.027630
     8  H    0.098143
 Sum of Mulliken charges =  -0.00000

 Dipole moment (field-independent basis, Debye):
    X=              0.0000    Y=             -0.0000    Z=             -0.0000  Tot=              0.0000
 Quadrupole moment (field-independent basis, Debye-Ang):
   XX=            -10.4187   YY=            -11.5415   ZZ=            -10.5498
   XY=              1.1934   XZ=             -0.0000   YZ=              0.0000

 Normal termination of Gaussian 09 at Thu Feb  9 15:11:10 2017.
