 Gaussian 09, Revision E.01,
 Gaussian 09:  ES64L-G09RevE.01 30-Nov-2015

 ----------------------------------------------------------------------
 #rhf/gen scf(symm,tight,novaracc,noincfock,fulldiag) stable(crhf) geom
 =nocrowd test
 ----------------------------------------------------------------------

 hf stability analysis of h10 triangular lattice, y= 0.3730181295843630
 9
 ----------------------------------------------------------------------
 Symbolic Z-matrix:
 Charge =  0 Multiplicity = 1

                         Standard orientation:
 ---------------------------------------------------------------------
 Center     Atomic      Atomic             Coordinates (Angstroms)
 Number     Number       Type             X           Y           Z
 ---------------------------------------------------------------------
      1          1           0        1.547781    0.746036   -0.000000
      2          1           0        3.095561    0.373018    0.000000
      3          1           0        0.000000    0.373018   -0.000000
      4          1           0        1.547781    0.000000    0.000000
      5          1           0       -1.547781    0.000000    0.000000
      6          1           0       -0.000000   -0.373018    0.000000
      7          1           0       -3.095561   -0.373018    0.000000
      8          1           0       -1.547781   -0.746036    0.000000
 ---------------------------------------------------------------------

 SCF Done:  E(RHF) =  -3.88080353175     A.U. after    9 cycles
 E2 =    -0.3109185053D+00 EUMP2 =    -0.41917220370840D+01

 The electronic state is 1-AG.
 Alpha  occ. eigenvalues --   -0.77221  -0.67539  -0.53938  -0.17580
 Alpha virt. eigenvalues --   -0.06204   0.22254   0.38251   0.57753

 Mulliken charges:
               1
     1  H    0.035921
     2  H   -0.101502
     3  H    0.021749
     4  H    0.043831
     5  H    0.043831
     6  H    0.021749
     7  H   -0.101502
     8  H    0.035921
 Sum of Mulliken charges =  -0.00000

 Dipole moment (field-independent basis, Debye):
    X=              0.0000    Y=             -0.0000    Z=             -0.0000  Tot=              0.0000
 Quadrupole moment (field-independent basis, Debye-Ang):
   XX=            -21.6866   YY=             -9.2420   ZZ=            -10.4583
   XY=             -1.3660   XZ=              0.0000   YZ=             -0.0000

 Normal termination of Gaussian 09 at Thu Feb  9 15:23:14 2017.
