 Gaussian 09, Revision E.01,
 Gaussian 09:  ES64L-G09RevE.01 30-Nov-2015

 ----------------------------------------------------------------------
 #rhf/gen scf(symm,tight,novaracc,noincfock,fulldiag) stable(crhf) geom
 =nocrowd test
 ----------------------------------------------------------------------

 hf stability analysis of h10 triangular lattice, y= 0.7034550797265067
 8
 ----------------------------------------------------------------------
 Symbolic Z-matrix:
 Charge =  0 Multiplicity = 1

                         Standard orientation:
 ---------------------------------------------------------------------
 Center     Atomic      Atomic             Coordinates (Angstroms)
 Number     Number       Type             X           Y           Z
 ---------------------------------------------------------------------
      1          1           0        0.820735    1.406910   -0.000000
      2          1           0        1.641470    0.703455   -0.000000
      3          1           0       -0.000000    0.703455   -0.000000
      4          1           0        0.820735    0.000000   -0.000000
      5          1           0       -0.820735    0.000000   -0.000000
      6          1           0        0.000000   -0.703455    0.000000
      7          1           0       -1.641470   -0.703455   -0.000000
      8          1           0       -0.820735   -1.406910    0.000000
 ---------------------------------------------------------------------

 SCF Done:  E(RHF) =  -3.97772690441     A.U. after   10 cycles
 E2 =    -0.8197048725D-01 EUMP2 =    -0.40596973916594D+01

 The electronic state is 1-AG.
 Alpha  occ. eigenvalues --   -0.85049  -0.66526  -0.40515  -0.39792
 Alpha virt. eigenvalues --    0.04277   0.24659   0.38469   0.80502

 Mulliken charges:
               1
     1  H    0.065679
     2  H   -0.020346
     3  H   -0.094885
     4  H    0.049552
     5  H    0.049552
     6  H   -0.094885
     7  H   -0.020346
     8  H    0.065679
 Sum of Mulliken charges =  -0.00000

 Dipole moment (field-independent basis, Debye):
    X=             -0.0000    Y=             -0.0000    Z=             -0.0000  Tot=              0.0000
 Quadrupole moment (field-independent basis, Debye-Ang):
   XX=            -11.8265   YY=            -11.2311   ZZ=            -10.4499
   XY=              0.2644   XZ=             -0.0000   YZ=              0.0000

 Normal termination of Gaussian 09 at Thu Feb  9 15:03:01 2017.
