 Gaussian 09, Revision E.01,
 Gaussian 09:  ES64L-G09RevE.01 30-Nov-2015

 ----------------------------------------------------------------------
 #rhf/gen scf(symm,tight,novaracc,noincfock,fulldiag) stable(crhf) geom
 =nocrowd test
 ----------------------------------------------------------------------

 hf stability analysis of h10 triangular lattice, y= 0.3981040502022899
 5
 ----------------------------------------------------------------------
 Symbolic Z-matrix:
 Charge =  0 Multiplicity = 1

                         Standard orientation:
 ---------------------------------------------------------------------
 Center     Atomic      Atomic             Coordinates (Angstroms)
 Number     Number       Type             X           Y           Z
 ---------------------------------------------------------------------
      1          1           0        1.450250    0.796208    0.000000
      2          1           0        2.900499    0.398104   -0.000000
      3          1           0        0.000000    0.398104    0.000000
      4          1           0        1.450250    0.000000   -0.000000
      5          1           0       -1.450250    0.000000   -0.000000
      6          1           0       -0.000000   -0.398104    0.000000
      7          1           0       -2.900499   -0.398104   -0.000000
      8          1           0       -1.450250   -0.796208    0.000000
 ---------------------------------------------------------------------

 SCF Done:  E(RHF) =  -3.85937149586     A.U. after   10 cycles
 E2 =    -0.2315071076D+00 EUMP2 =    -0.40908786034187D+01

 The electronic state is 1-AG.
 Alpha  occ. eigenvalues --   -0.79302  -0.67822  -0.51638  -0.16571
 Alpha virt. eigenvalues --   -0.02486   0.16515   0.34017   0.54760

 Mulliken charges:
               1
     1  H    0.052015
     2  H   -0.151845
     3  H    0.027642
     4  H    0.072188
     5  H    0.072188
     6  H    0.027642
     7  H   -0.151845
     8  H    0.052015
 Sum of Mulliken charges =   0.00000

 Dipole moment (field-independent basis, Debye):
    X=              0.0000    Y=              0.0000    Z=              0.0000  Tot=              0.0000
 Quadrupole moment (field-independent basis, Debye-Ang):
   XX=            -24.0669   YY=             -9.1864   ZZ=            -10.4298
   XY=             -1.8546   XZ=             -0.0000   YZ=             -0.0000

 Normal termination of Gaussian 09 at Thu Feb  9 15:21:53 2017.
