 Gaussian 09, Revision E.01,
 Gaussian 09:  ES64L-G09RevE.01 30-Nov-2015

 ----------------------------------------------------------------------
 #rhf/gen scf(symm,tight,novaracc,noincfock,fulldiag) stable(crhf) geom
 =nocrowd test
 ----------------------------------------------------------------------

 hf stability analysis of h10 triangular lattice, y= 0.3843194380501128
 7
 ----------------------------------------------------------------------
 Symbolic Z-matrix:
 Charge =  0 Multiplicity = 1

                         Standard orientation:
 ---------------------------------------------------------------------
 Center     Atomic      Atomic             Coordinates (Angstroms)
 Number     Number       Type             X           Y           Z
 ---------------------------------------------------------------------
      1          1           0        1.502267    0.768639   -0.000000
      2          1           0        3.004533    0.384319   -0.000000
      3          1           0        0.000000    0.384319    0.000000
      4          1           0        1.502267    0.000000   -0.000000
      5          1           0       -1.502267    0.000000    0.000000
      6          1           0       -0.000000   -0.384319    0.000000
      7          1           0       -3.004533   -0.384319    0.000000
      8          1           0       -1.502267   -0.768639    0.000000
 ---------------------------------------------------------------------

 SCF Done:  E(RHF) =  -3.87269887147     A.U. after    9 cycles
 E2 =    -0.2740731585D+00 EUMP2 =    -0.41467720300131D+01

 The electronic state is 1-AG.
 Alpha  occ. eigenvalues --   -0.78165  -0.67650  -0.52890  -0.17078
 Alpha virt. eigenvalues --   -0.04602   0.19606   0.36303   0.56392

 Mulliken charges:
               1
     1  H    0.043230
     2  H   -0.124220
     3  H    0.025776
     4  H    0.055214
     5  H    0.055214
     6  H    0.025776
     7  H   -0.124220
     8  H    0.043230
 Sum of Mulliken charges =   0.00000

 Dipole moment (field-independent basis, Debye):
    X=             -0.0000    Y=             -0.0000    Z=             -0.0000  Tot=              0.0000
 Quadrupole moment (field-independent basis, Debye-Ang):
   XX=            -22.8941   YY=             -9.2002   ZZ=            -10.4434
   XY=             -1.5951   XZ=              0.0000   YZ=              0.0000

 Normal termination of Gaussian 09 at Thu Feb  9 15:22:38 2017.
