 Gaussian 09, Revision E.01,
 Gaussian 09:  ES64L-G09RevE.01 30-Nov-2015

 ----------------------------------------------------------------------
 #rhf/gen scf(symm,tight,novaracc,noincfock,fulldiag) stable(crhf) geom
 =nocrowd test
 ----------------------------------------------------------------------

 hf stability analysis of h10 triangular lattice, y= 0.2524679482951864
 3
 ----------------------------------------------------------------------
 Symbolic Z-matrix:
 Charge =  0 Multiplicity = 1

                         Standard orientation:
 ---------------------------------------------------------------------
 Center     Atomic      Atomic             Coordinates (Angstroms)
 Number     Number       Type             X           Y           Z
 ---------------------------------------------------------------------
      1          1           0        2.286826    0.504936   -0.000000
      2          1           0        4.573652    0.252468   -0.000000
      3          1           0        0.000000    0.252468   -0.000000
      4          1           0        2.286826    0.000000   -0.000000
      5          1           0       -2.286826    0.000000    0.000000
      6          1           0       -0.000000   -0.252468   -0.000000
      7          1           0       -4.573652   -0.252468   -0.000000
      8          1           0       -2.286826   -0.504936   -0.000000
 ---------------------------------------------------------------------

 SCF Done:  E(RHF) =  -3.59695704343     A.U. after    5 cycles
 E2 =    -0.7240759882D+00 EUMP2 =    -0.43210330316222D+01

 The electronic state is 1-AG.
 Alpha  occ. eigenvalues --   -0.73330  -0.71152  -0.68599  -0.21048
 Alpha virt. eigenvalues --   -0.15236   0.52871   0.60575   0.69551

 Mulliken charges:
               1
     1  H    0.000305
     2  H    0.000685
     3  H    0.000085
     4  H   -0.001076
     5  H   -0.001076
     6  H    0.000085
     7  H    0.000685
     8  H    0.000305
 Sum of Mulliken charges =  -0.00000

 Dipole moment (field-independent basis, Debye):
    X=             -0.0000    Y=             -0.0000    Z=             -0.0000  Tot=              0.0000
 Quadrupole moment (field-independent basis, Debye-Ang):
   XX=            -12.2323   YY=            -10.0816   ZZ=            -10.7546
   XY=             -0.0921   XZ=              0.0000   YZ=             -0.0000

 Normal termination of Gaussian 09 at Thu Feb  9 15:28:35 2017.
