 Gaussian 09, Revision E.01,
 Gaussian 09:  ES64L-G09RevE.01 30-Nov-2015

 ----------------------------------------------------------------------
 #rhf/gen scf(symm,tight,novaracc,noincfock,fulldiag) stable(crhf) geom
 =nocrowd test
 ----------------------------------------------------------------------

 hf stability analysis of h10 triangular lattice, y= 0.6947947711693931
 4
 ----------------------------------------------------------------------
 Symbolic Z-matrix:
 Charge =  0 Multiplicity = 1

                         Standard orientation:
 ---------------------------------------------------------------------
 Center     Atomic      Atomic             Coordinates (Angstroms)
 Number     Number       Type             X           Y           Z
 ---------------------------------------------------------------------
      1          1           0        0.830965    1.389590   -0.000000
      2          1           0        1.661930    0.694795   -0.000000
      3          1           0        0.000000    0.694795    0.000000
      4          1           0        0.830965   -0.000000   -0.000000
      5          1           0       -0.830965    0.000000   -0.000000
      6          1           0       -0.000000   -0.694795    0.000000
      7          1           0       -1.661930   -0.694795   -0.000000
      8          1           0       -0.830965   -1.389590   -0.000000
 ---------------------------------------------------------------------

 SCF Done:  E(RHF) =  -3.97767695903     A.U. after   10 cycles
 E2 =    -0.8168885847D-01 EUMP2 =    -0.40593658175022D+01

 The electronic state is 1-AG.
 Alpha  occ. eigenvalues --   -0.84982  -0.66547  -0.40314  -0.39835
 Alpha virt. eigenvalues --    0.04413   0.24129   0.38915   0.79410

 Mulliken charges:
               1
     1  H    0.072042
     2  H   -0.025379
     3  H   -0.105999
     4  H    0.059336
     5  H    0.059336
     6  H   -0.105999
     7  H   -0.025379
     8  H    0.072042
 Sum of Mulliken charges =  -0.00000

 Dipole moment (field-independent basis, Debye):
    X=              0.0000    Y=             -0.0000    Z=             -0.0000  Tot=              0.0000
 Quadrupole moment (field-independent basis, Debye-Ang):
   XX=            -11.8482   YY=            -11.1970   ZZ=            -10.4536
   XY=              0.3063   XZ=             -0.0000   YZ=              0.0000

 Normal termination of Gaussian 09 at Thu Feb  9 15:03:26 2017.
