 Gaussian 09, Revision E.01,
 Gaussian 09:  ES64L-G09RevE.01 30-Nov-2015

 ----------------------------------------------------------------------
 #rhf/gen scf(symm,tight,novaracc,noincfock,fulldiag) stable(crhf) geom
 =nocrowd test
 ----------------------------------------------------------------------

 hf stability analysis of h10 triangular lattice, y= 0.2972322466265926
 4
 ----------------------------------------------------------------------
 Symbolic Z-matrix:
 Charge =  0 Multiplicity = 1

                         Standard orientation:
 ---------------------------------------------------------------------
 Center     Atomic      Atomic             Coordinates (Angstroms)
 Number     Number       Type             X           Y           Z
 ---------------------------------------------------------------------
      1          1           0        1.942421    0.594464   -0.000000
      2          1           0        3.884843    0.297232   -0.000000
      3          1           0        0.000000    0.297232    0.000000
      4          1           0        1.942421    0.000000   -0.000000
      5          1           0       -1.942421    0.000000   -0.000000
      6          1           0       -0.000000   -0.297232    0.000000
      7          1           0       -3.884843   -0.297232   -0.000000
      8          1           0       -1.942421   -0.594464   -0.000000
 ---------------------------------------------------------------------

 SCF Done:  E(RHF) =  -3.81038244685     A.U. after    6 cycles
 E2 =    -0.5781627587D+00 EUMP2 =    -0.43885452055708D+01

 The electronic state is 1-AG.
 Alpha  occ. eigenvalues --   -0.73239  -0.68699  -0.62686  -0.20465
 Alpha virt. eigenvalues --   -0.13393   0.40897   0.51900   0.65459

 Mulliken charges:
               1
     1  H    0.004548
     2  H   -0.009327
     3  H    0.001588
     4  H    0.003191
     5  H    0.003191
     6  H    0.001588
     7  H   -0.009327
     8  H    0.004548
 Sum of Mulliken charges =   0.00000

 Dipole moment (field-independent basis, Debye):
    X=              0.0000    Y=             -0.0000    Z=              0.0000  Tot=              0.0000
 Quadrupole moment (field-independent basis, Debye-Ang):
   XX=            -14.2560   YY=             -9.7376   ZZ=            -10.6249
   XY=             -0.3017   XZ=             -0.0000   YZ=             -0.0000

 Normal termination of Gaussian 09 at Thu Feb  9 15:26:51 2017.
