 Gaussian 09, Revision E.01,
 Gaussian 09:  ES64L-G09RevE.01 30-Nov-2015

 ----------------------------------------------------------------------
 #rhf/gen scf(symm,tight,novaracc,noincfock,fulldiag) stable(crhf) geom
 =nocrowd test
 ----------------------------------------------------------------------

 hf stability analysis of h10 triangular lattice, y= 0.3744451472319913
 5
 ----------------------------------------------------------------------
 Symbolic Z-matrix:
 Charge =  0 Multiplicity = 1

                         Standard orientation:
 ---------------------------------------------------------------------
 Center     Atomic      Atomic             Coordinates (Angstroms)
 Number     Number       Type             X           Y           Z
 ---------------------------------------------------------------------
      1          1           0        1.541882    0.748890   -0.000000
      2          1           0        3.083764    0.374445   -0.000000
      3          1           0        0.000000    0.374445    0.000000
      4          1           0        1.541882    0.000000   -0.000000
      5          1           0       -1.541882    0.000000   -0.000000
      6          1           0       -0.000000   -0.374445   -0.000000
      7          1           0       -3.083764   -0.374445   -0.000000
      8          1           0       -1.541882   -0.748890   -0.000000
 ---------------------------------------------------------------------

 SCF Done:  E(RHF) =  -3.87995214618     A.U. after    9 cycles
 E2 =    -0.3061547063D+00 EUMP2 =    -0.41861068524591D+01

 The electronic state is 1-AG.
 Alpha  occ. eigenvalues --   -0.77338  -0.67550  -0.53803  -0.17515
 Alpha virt. eigenvalues --   -0.06009   0.21916   0.38003   0.57582

 Mulliken charges:
               1
     1  H    0.036830
     2  H   -0.104309
     3  H    0.022311
     4  H    0.045168
     5  H    0.045168
     6  H    0.022311
     7  H   -0.104309
     8  H    0.036830
 Sum of Mulliken charges =  -0.00000

 Dipole moment (field-independent basis, Debye):
    X=              0.0000    Y=              0.0000    Z=              0.0000  Tot=              0.0000
 Quadrupole moment (field-independent basis, Debye-Ang):
   XX=            -21.8458   YY=             -9.2357   ZZ=            -10.4563
   XY=             -1.3948   XZ=              0.0000   YZ=              0.0000

 Normal termination of Gaussian 09 at Thu Feb  9 15:23:09 2017.
