 Gaussian 09, Revision E.01,
 Gaussian 09:  ES64L-G09RevE.01 30-Nov-2015

 ----------------------------------------------------------------------
 #rhf/gen scf(symm,tight,novaracc,noincfock,fulldiag) stable(crhf) geom
 =nocrowd test
 ----------------------------------------------------------------------

 hf stability analysis of h10 triangular lattice, y= 0.3450190580532995
 2
 ----------------------------------------------------------------------
 Symbolic Z-matrix:
 Charge =  0 Multiplicity = 1

                         Standard orientation:
 ---------------------------------------------------------------------
 Center     Atomic      Atomic             Coordinates (Angstroms)
 Number     Number       Type             X           Y           Z
 ---------------------------------------------------------------------
      1          1           0        1.673387    0.690038    0.000000
      2          1           0        3.346773    0.345019    0.000000
      3          1           0       -0.000000    0.345019   -0.000000
      4          1           0        1.673387    0.000000    0.000000
      5          1           0       -1.673387    0.000000    0.000000
      6          1           0       -0.000000   -0.345019   -0.000000
      7          1           0       -3.346773   -0.345019    0.000000
      8          1           0       -1.673387   -0.690038    0.000000
 ---------------------------------------------------------------------

 SCF Done:  E(RHF) =  -3.88470871988     A.U. after    8 cycles
 E2 =    -0.4096874315D+00 EUMP2 =    -0.42943961513315D+01

 The electronic state is 1-AG.
 Alpha  occ. eigenvalues --   -0.75153  -0.67518  -0.56799  -0.18857
 Alpha virt. eigenvalues --   -0.09592   0.29027   0.43226   0.60945

 Mulliken charges:
               1
     1  H    0.020007
     2  H   -0.053284
     3  H    0.010929
     4  H    0.022349
     5  H    0.022349
     6  H    0.010929
     7  H   -0.053284
     8  H    0.020007
 Sum of Mulliken charges =   0.00000

 Dipole moment (field-independent basis, Debye):
    X=             -0.0000    Y=             -0.0000    Z=             -0.0000  Tot=              0.0000
 Quadrupole moment (field-independent basis, Debye-Ang):
   XX=            -18.4905   YY=             -9.3970   ZZ=            -10.5062
   XY=             -0.8505   XZ=             -0.0000   YZ=              0.0000

 Normal termination of Gaussian 09 at Thu Feb  9 15:24:38 2017.
