 Gaussian 09, Revision E.01,
 Gaussian 09:  ES64L-G09RevE.01 30-Nov-2015

 ----------------------------------------------------------------------
 #rhf/gen scf(symm,tight,novaracc,noincfock,fulldiag) stable(crhf) geom
 =nocrowd test
 ----------------------------------------------------------------------

 hf stability analysis of h10 triangular lattice, y= 0.2848531043101661
 9
 ----------------------------------------------------------------------
 Symbolic Z-matrix:
 Charge =  0 Multiplicity = 1

                         Standard orientation:
 ---------------------------------------------------------------------
 Center     Atomic      Atomic             Coordinates (Angstroms)
 Number     Number       Type             X           Y           Z
 ---------------------------------------------------------------------
      1          1           0        2.026835    0.569706    0.000000
      2          1           0        4.053670    0.284853    0.000000
      3          1           0        0.000000    0.284853    0.000000
      4          1           0        2.026835    0.000000    0.000000
      5          1           0       -2.026835    0.000000   -0.000000
      6          1           0       -0.000000   -0.284853   -0.000000
      7          1           0       -4.053670   -0.284853   -0.000000
      8          1           0       -2.026835   -0.569706   -0.000000
 ---------------------------------------------------------------------

 SCF Done:  E(RHF) =  -3.76806300655     A.U. after    6 cycles
 E2 =    -0.6185981331D+00 EUMP2 =    -0.43866611396542D+01

 The electronic state is 1-AG.
 Alpha  occ. eigenvalues --   -0.73096  -0.69265  -0.64334  -0.20710
 Alpha virt. eigenvalues --   -0.14030   0.44085   0.54210   0.66528

 Mulliken charges:
               1
     1  H    0.002696
     2  H   -0.004603
     3  H    0.000813
     4  H    0.001094
     5  H    0.001094
     6  H    0.000813
     7  H   -0.004603
     8  H    0.002696
 Sum of Mulliken charges =   0.00000

 Dipole moment (field-independent basis, Debye):
    X=             -0.0000    Y=              0.0000    Z=             -0.0000  Tot=              0.0000
 Quadrupole moment (field-independent basis, Debye-Ang):
   XX=            -13.5367   YY=             -9.8334   ZZ=            -10.6612
   XY=             -0.2221   XZ=             -0.0000   YZ=              0.0000

 Normal termination of Gaussian 09 at Thu Feb  9 15:27:21 2017.
