 Gaussian 09, Revision E.01,
 Gaussian 09:  ES64L-G09RevE.01 30-Nov-2015

 ----------------------------------------------------------------------
 #rhf/gen scf(symm,tight,novaracc,noincfock,fulldiag) stable(crhf) geom
 =nocrowd test
 ----------------------------------------------------------------------

 hf stability analysis of h10 triangular lattice, y= 0.6589956275822745
 9
 ----------------------------------------------------------------------
 Symbolic Z-matrix:
 Charge =  0 Multiplicity = 1

                         Standard orientation:
 ---------------------------------------------------------------------
 Center     Atomic      Atomic             Coordinates (Angstroms)
 Number     Number       Type             X           Y           Z
 ---------------------------------------------------------------------
      1          1           0        0.876106    1.317991    0.000000
      2          1           0        1.752213    0.658996    0.000000
      3          1           0       -0.000000    0.658996    0.000000
      4          1           0        0.876106    0.000000    0.000000
      5          1           0       -0.876106    0.000000    0.000000
      6          1           0       -0.000000   -0.658996   -0.000000
      7          1           0       -1.752213   -0.658996    0.000000
      8          1           0       -0.876106   -1.317991    0.000000
 ---------------------------------------------------------------------

 SCF Done:  E(RHF) =  -3.97630262439     A.U. after   10 cycles
 E2 =    -0.8048476947D-01 EUMP2 =    -0.40567873938636D+01

 The electronic state is 1-AG.
 Alpha  occ. eigenvalues --   -0.84574  -0.66647  -0.40077  -0.39123
 Alpha virt. eigenvalues --    0.05217   0.21501   0.41077   0.73406

 Mulliken charges:
               1
     1  H    0.093744
     2  H   -0.040083
     3  H   -0.148401
     4  H    0.094740
     5  H    0.094740
     6  H   -0.148401
     7  H   -0.040083
     8  H    0.093744
 Sum of Mulliken charges =  -0.00000

 Dipole moment (field-independent basis, Debye):
    X=             -0.0000    Y=             -0.0000    Z=              0.0000  Tot=              0.0000
 Quadrupole moment (field-independent basis, Debye-Ang):
   XX=            -11.8117   YY=            -11.1296   ZZ=            -10.4741
   XY=              0.5316   XZ=              0.0000   YZ=             -0.0000

 Normal termination of Gaussian 09 at Thu Feb  9 15:05:40 2017.
