 Gaussian 09, Revision E.01,
 Gaussian 09:  ES64L-G09RevE.01 30-Nov-2015

 ----------------------------------------------------------------------
 #rhf/gen scf(symm,tight,novaracc,noincfock,fulldiag) stable(crhf) geom
 =nocrowd test
 ----------------------------------------------------------------------

 hf stability analysis of h10 triangular lattice, y= 0.5744413597680069
 2
 ----------------------------------------------------------------------
 Symbolic Z-matrix:
 Charge =  0 Multiplicity = 1

                         Standard orientation:
 ---------------------------------------------------------------------
 Center     Atomic      Atomic             Coordinates (Angstroms)
 Number     Number       Type             X           Y           Z
 ---------------------------------------------------------------------
      1          1           0        1.005064    1.148883   -0.000000
      2          1           0        2.010128    0.574441   -0.000000
      3          1           0        0.000000    0.574441   -0.000000
      4          1           0        1.005064    0.000000   -0.000000
      5          1           0       -1.005064    0.000000   -0.000000
      6          1           0       -0.000000   -0.574441    0.000000
      7          1           0       -2.010128   -0.574441   -0.000000
      8          1           0       -1.005064   -1.148883   -0.000000
 ---------------------------------------------------------------------

 SCF Done:  E(RHF) =  -3.95014637834     A.U. after    9 cycles
 E2 =    -0.8099698643D-01 EUMP2 =    -0.40311433647655D+01

 The electronic state is 1-AG.
 Alpha  occ. eigenvalues --   -0.82583  -0.66717  -0.40945  -0.33633
 Alpha virt. eigenvalues --    0.08817   0.13738   0.47167   0.52878

 Mulliken charges:
               1
     1  H    0.098825
     2  H   -0.028447
     3  H   -0.213438
     4  H    0.143061
     5  H    0.143061
     6  H   -0.213438
     7  H   -0.028447
     8  H    0.098825
 Sum of Mulliken charges =   0.00000

 Dipole moment (field-independent basis, Debye):
    X=             -0.0000    Y=             -0.0000    Z=             -0.0000  Tot=              0.0000
 Quadrupole moment (field-independent basis, Debye-Ang):
   XX=            -10.4674   YY=            -11.5264   ZZ=            -10.5480
   XY=              1.1823   XZ=             -0.0000   YZ=              0.0000

 Normal termination of Gaussian 09 at Thu Feb  9 15:11:04 2017.
