 Gaussian 09, Revision E.01,
 Gaussian 09:  ES64L-G09RevE.01 30-Nov-2015

 ----------------------------------------------------------------------
 #rhf/gen scf(symm,tight,novaracc,noincfock,fulldiag) stable(crhf) geom
 =nocrowd test
 ----------------------------------------------------------------------

 hf stability analysis of h10 triangular lattice, y= 0.7096863822964312
 2
 ----------------------------------------------------------------------
 Symbolic Z-matrix:
 Charge =  0 Multiplicity = 1

                         Standard orientation:
 ---------------------------------------------------------------------
 Center     Atomic      Atomic             Coordinates (Angstroms)
 Number     Number       Type             X           Y           Z
 ---------------------------------------------------------------------
      1          1           0        0.813529    1.419373    0.000000
      2          1           0        1.627058    0.709686    0.000000
      3          1           0        0.000000    0.709686    0.000000
      4          1           0        0.813529   -0.000000    0.000000
      5          1           0       -0.813529    0.000000    0.000000
      6          1           0       -0.000000   -0.709686    0.000000
      7          1           0       -1.627058   -0.709686    0.000000
      8          1           0       -0.813529   -1.419373    0.000000
 ---------------------------------------------------------------------

 SCF Done:  E(RHF) =  -3.97773021063     A.U. after   10 cycles
 E2 =    -0.8215867510D-01 EUMP2 =    -0.40598888857310D+01

 The electronic state is 1-AG.
 Alpha  occ. eigenvalues --   -0.85091  -0.66512  -0.40640  -0.39765
 Alpha virt. eigenvalues --    0.04193   0.25006   0.38173   0.81194

 Mulliken charges:
               1
     1  H    0.060920
     2  H   -0.016437
     3  H   -0.086758
     4  H    0.042275
     5  H    0.042275
     6  H   -0.086758
     7  H   -0.016437
     8  H    0.060920
 Sum of Mulliken charges =  -0.00000

 Dipole moment (field-independent basis, Debye):
    X=              0.0000    Y=             -0.0000    Z=              0.0000  Tot=              0.0000
 Quadrupole moment (field-independent basis, Debye-Ang):
   XX=            -11.8055   YY=            -11.2589   ZZ=            -10.4476
   XY=              0.2377   XZ=              0.0000   YZ=             -0.0000

 Normal termination of Gaussian 09 at Thu Feb  9 15:02:40 2017.
