 Gaussian 09, Revision E.01,
 Gaussian 09:  ES64L-G09RevE.01 30-Nov-2015

 ----------------------------------------------------------------------
 #rhf/gen scf(symm,tight,novaracc,noincfock,fulldiag) stable(crhf) geom
 =nocrowd test
 ----------------------------------------------------------------------

 hf stability analysis of h10 triangular lattice, y= 0.6205197650129842
 3
 ----------------------------------------------------------------------
 Symbolic Z-matrix:
 Charge =  0 Multiplicity = 1

                         Standard orientation:
 ---------------------------------------------------------------------
 Center     Atomic      Atomic             Coordinates (Angstroms)
 Number     Number       Type             X           Y           Z
 ---------------------------------------------------------------------
      1          1           0        0.930430    1.241039    0.000000
      2          1           0        1.860860    0.620520    0.000000
      3          1           0        0.000000    0.620520    0.000000
      4          1           0        0.930430    0.000000    0.000000
      5          1           0       -0.930430    0.000000    0.000000
      6          1           0       -0.000000   -0.620520    0.000000
      7          1           0       -1.860860   -0.620520    0.000000
      8          1           0       -0.930430   -1.241039    0.000000
 ---------------------------------------------------------------------

 SCF Done:  E(RHF) =  -3.97024696649     A.U. after   10 cycles
 E2 =    -0.7979755960D-01 EUMP2 =    -0.40500445260873D+01

 The electronic state is 1-AG.
 Alpha  occ. eigenvalues --   -0.83864  -0.66733  -0.40436  -0.37126
 Alpha virt. eigenvalues --    0.06561   0.18143   0.43744   0.64817

 Mulliken charges:
               1
     1  H    0.105188
     2  H   -0.042730
     3  H   -0.184726
     4  H    0.122268
     5  H    0.122268
     6  H   -0.184726
     7  H   -0.042730
     8  H    0.105188
 Sum of Mulliken charges =  -0.00000

 Dipole moment (field-independent basis, Debye):
    X=             -0.0000    Y=             -0.0000    Z=              0.0000  Tot=              0.0000
 Quadrupole moment (field-independent basis, Debye-Ang):
   XX=            -11.4524   YY=            -11.2156   ZZ=            -10.5045
   XY=              0.8331   XZ=             -0.0000   YZ=              0.0000

 Normal termination of Gaussian 09 at Thu Feb  9 15:08:06 2017.
