 Gaussian 09, Revision E.01,
 Gaussian 09:  ES64L-G09RevE.01 30-Nov-2015

 ----------------------------------------------------------------------
 #rhf/gen scf(symm,tight,novaracc,noincfock,fulldiag) stable(crhf) geom
 =nocrowd test
 ----------------------------------------------------------------------

 hf stability analysis of h10 triangular lattice, y= 0.5802591979462536
 9
 ----------------------------------------------------------------------
 Symbolic Z-matrix:
 Charge =  0 Multiplicity = 1

                         Standard orientation:
 ---------------------------------------------------------------------
 Center     Atomic      Atomic             Coordinates (Angstroms)
 Number     Number       Type             X           Y           Z
 ---------------------------------------------------------------------
      1          1           0        0.994987    1.160518   -0.000000
      2          1           0        1.989974    0.580259   -0.000000
      3          1           0       -0.000000    0.580259    0.000000
      4          1           0        0.994987    0.000000   -0.000000
      5          1           0       -0.994987    0.000000   -0.000000
      6          1           0       -0.000000   -0.580259    0.000000
      7          1           0       -1.989974   -0.580259   -0.000000
      8          1           0       -0.994987   -1.160518   -0.000000
 ---------------------------------------------------------------------

 SCF Done:  E(RHF) =  -3.95375558287     A.U. after    9 cycles
 E2 =    -0.8068606908D-01 EUMP2 =    -0.40344416519552D+01

 The electronic state is 1-AG.
 Alpha  occ. eigenvalues --   -0.82771  -0.66729  -0.40878  -0.34144
 Alpha virt. eigenvalues --    0.08498   0.14305   0.46728   0.54436

 Mulliken charges:
               1
     1  H    0.100869
     2  H   -0.031069
     3  H   -0.210682
     4  H    0.140882
     5  H    0.140882
     6  H   -0.210682
     7  H   -0.031069
     8  H    0.100869
 Sum of Mulliken charges =  -0.00000

 Dipole moment (field-independent basis, Debye):
    X=             -0.0000    Y=             -0.0000    Z=             -0.0000  Tot=              0.0000
 Quadrupole moment (field-independent basis, Debye-Ang):
   XX=            -10.6246   YY=            -11.4772   ZZ=            -10.5423
   XY=              1.1437   XZ=             -0.0000   YZ=              0.0000

 Normal termination of Gaussian 09 at Thu Feb  9 15:10:41 2017.
