 Gaussian 09, Revision E.01,
 Gaussian 09:  ES64L-G09RevE.01 30-Nov-2015

 ----------------------------------------------------------------------
 #rhf/gen scf(symm,tight,novaracc,noincfock,fulldiag) stable(crhf) geom
 =nocrowd test
 ----------------------------------------------------------------------

 hf stability analysis of h10 triangular lattice, y= 0.3388836262365067
 0
 ----------------------------------------------------------------------
 Symbolic Z-matrix:
 Charge =  0 Multiplicity = 1

                         Standard orientation:
 ---------------------------------------------------------------------
 Center     Atomic      Atomic             Coordinates (Angstroms)
 Number     Number       Type             X           Y           Z
 ---------------------------------------------------------------------
      1          1           0        1.703683    0.677767   -0.000000
      2          1           0        3.407366    0.338884   -0.000000
      3          1           0        0.000000    0.338884    0.000000
      4          1           0        1.703683    0.000000   -0.000000
      5          1           0       -1.703683    0.000000   -0.000000
      6          1           0       -0.000000   -0.338884   -0.000000
      7          1           0       -3.407366   -0.338884   -0.000000
      8          1           0       -1.703683   -0.677767   -0.000000
 ---------------------------------------------------------------------

 SCF Done:  E(RHF) =  -3.88167970588     A.U. after    8 cycles
 E2 =    -0.4320676387D+00 EUMP2 =    -0.43137473445264D+01

 The electronic state is 1-AG.
 Alpha  occ. eigenvalues --   -0.74783  -0.67577  -0.57488  -0.19116
 Alpha virt. eigenvalues --   -0.10217   0.30531   0.44330   0.61589

 Mulliken charges:
               1
     1  H    0.017159
     2  H   -0.044885
     3  H    0.008996
     4  H    0.018729
     5  H    0.018729
     6  H    0.008996
     7  H   -0.044885
     8  H    0.017159
 Sum of Mulliken charges =  -0.00000

 Dipole moment (field-independent basis, Debye):
    X=              0.0000    Y=              0.0000    Z=              0.0000  Tot=              0.0000
 Quadrupole moment (field-independent basis, Debye-Ang):
   XX=            -17.8260   YY=             -9.4366   ZZ=            -10.5189
   XY=             -0.7554   XZ=             -0.0000   YZ=              0.0000

 Normal termination of Gaussian 09 at Thu Feb  9 15:24:56 2017.
