 Gaussian 09, Revision E.01,
 Gaussian 09:  ES64L-G09RevE.01 30-Nov-2015

 ----------------------------------------------------------------------
 #rhf/gen scf(symm,tight,novaracc,noincfock,fulldiag) stable(crhf) geom
 =nocrowd test
 ----------------------------------------------------------------------

 hf stability analysis of h10 triangular lattice, y= 0.5860779187036555
 5
 ----------------------------------------------------------------------
 Symbolic Z-matrix:
 Charge =  0 Multiplicity = 1

                         Standard orientation:
 ---------------------------------------------------------------------
 Center     Atomic      Atomic             Coordinates (Angstroms)
 Number     Number       Type             X           Y           Z
 ---------------------------------------------------------------------
      1          1           0        0.985108    1.172156   -0.000000
      2          1           0        1.970217    0.586078   -0.000000
      3          1           0        0.000000    0.586078   -0.000000
      4          1           0        0.985108    0.000000   -0.000000
      5          1           0       -0.985108    0.000000   -0.000000
      6          1           0       -0.000000   -0.586078   -0.000000
      7          1           0       -1.970217   -0.586078   -0.000000
      8          1           0       -0.985108   -1.172156   -0.000000
 ---------------------------------------------------------------------

 SCF Done:  E(RHF) =  -3.95701717386     A.U. after    9 cycles
 E2 =    -0.8042565654D-01 EUMP2 =    -0.40374428303996D+01

 The electronic state is 1-AG.
 Alpha  occ. eigenvalues --   -0.82951  -0.66737  -0.40812  -0.34634
 Alpha virt. eigenvalues --    0.08188   0.14870   0.46290   0.55985

 Mulliken charges:
               1
     1  H    0.102558
     2  H   -0.033506
     3  H   -0.207680
     4  H    0.138627
     5  H    0.138627
     6  H   -0.207680
     7  H   -0.033506
     8  H    0.102558
 Sum of Mulliken charges =   0.00000

 Dipole moment (field-independent basis, Debye):
    X=              0.0000    Y=             -0.0000    Z=             -0.0000  Tot=              0.0000
 Quadrupole moment (field-independent basis, Debye-Ang):
   XX=            -10.7732   YY=            -11.4304   ZZ=            -10.5367
   XY=              1.1027   XZ=              0.0000   YZ=              0.0000

 Normal termination of Gaussian 09 at Thu Feb  9 15:10:19 2017.
