 Gaussian 09, Revision E.01,
 Gaussian 09:  ES64L-G09RevE.01 30-Nov-2015

 ----------------------------------------------------------------------
 #rhf/gen scf(symm,tight,novaracc,noincfock,fulldiag) stable(crhf) geom
 =nocrowd test
 ----------------------------------------------------------------------

 hf stability analysis of h10 triangular lattice, y= 0.4207906495022131
 2
 ----------------------------------------------------------------------
 Symbolic Z-matrix:
 Charge =  0 Multiplicity = 1

                         Standard orientation:
 ---------------------------------------------------------------------
 Center     Atomic      Atomic             Coordinates (Angstroms)
 Number     Number       Type             X           Y           Z
 ---------------------------------------------------------------------
      1          1           0        1.372061    0.841581    0.000000
      2          1           0        2.744121    0.420791    0.000000
      3          1           0       -0.000000    0.420791   -0.000000
      4          1           0        1.372061    0.000000    0.000000
      5          1           0       -1.372061   -0.000000    0.000000
      6          1           0        0.000000   -0.420791   -0.000000
      7          1           0       -2.744121   -0.420791    0.000000
      8          1           0       -1.372061   -0.841581    0.000000
 ---------------------------------------------------------------------

 SCF Done:  E(RHF) =  -3.83450302796     A.U. after   11 cycles
 E2 =    -0.1641202696D+00 EUMP2 =    -0.39986232975571D+01

 The electronic state is 1-AG.
 Alpha  occ. eigenvalues --   -0.80638  -0.68007  -0.49315  -0.16520
 Alpha virt. eigenvalues --    0.01394   0.12080   0.30663   0.52613

 Mulliken charges:
               1
     1  H    0.061790
     2  H   -0.180532
     3  H    0.006961
     4  H    0.111782
     5  H    0.111782
     6  H    0.006961
     7  H   -0.180532
     8  H    0.061790
 Sum of Mulliken charges =  -0.00000

 Dipole moment (field-independent basis, Debye):
    X=             -0.0000    Y=              0.0000    Z=             -0.0000  Tot=              0.0000
 Quadrupole moment (field-independent basis, Debye-Ang):
   XX=            -24.0519   YY=             -9.4026   ZZ=            -10.4303
   XY=             -1.9944   XZ=             -0.0000   YZ=             -0.0000

 Normal termination of Gaussian 09 at Thu Feb  9 15:20:37 2017.
