 Gaussian 09, Revision E.01,
 Gaussian 09:  ES64L-G09RevE.01 30-Nov-2015

 ----------------------------------------------------------------------
 #rhf/gen scf(symm,tight,novaracc,noincfock,fulldiag) stable(crhf) geom
 =nocrowd test
 ----------------------------------------------------------------------

 hf stability analysis of h10 triangular lattice, y= 0.7003538324506236
 6
 ----------------------------------------------------------------------
 Symbolic Z-matrix:
 Charge =  0 Multiplicity = 1

                         Standard orientation:
 ---------------------------------------------------------------------
 Center     Atomic      Atomic             Coordinates (Angstroms)
 Number     Number       Type             X           Y           Z
 ---------------------------------------------------------------------
      1          1           0        0.824369    1.400708    0.000000
      2          1           0        1.648739    0.700354    0.000000
      3          1           0       -0.000000    0.700354    0.000000
      4          1           0        0.824369    0.000000    0.000000
      5          1           0       -0.824369    0.000000    0.000000
      6          1           0       -0.000000   -0.700354    0.000000
      7          1           0       -1.648739   -0.700354    0.000000
      8          1           0       -0.824369   -1.400708    0.000000
 ---------------------------------------------------------------------

 SCF Done:  E(RHF) =  -3.97771607331     A.U. after   10 cycles
 E2 =    -0.8187195529D-01 EUMP2 =    -0.40595880286061D+01

 The electronic state is 1-AG.
 Alpha  occ. eigenvalues --   -0.85026  -0.66533  -0.40447  -0.39807
 Alpha virt. eigenvalues --    0.04323   0.24475   0.38624   0.80128

 Mulliken charges:
               1
     1  H    0.067994
     2  H   -0.022204
     3  H   -0.098892
     4  H    0.053102
     5  H    0.053102
     6  H   -0.098892
     7  H   -0.022204
     8  H    0.067994
 Sum of Mulliken charges =  -0.00000

 Dipole moment (field-independent basis, Debye):
    X=              0.0000    Y=             -0.0000    Z=              0.0000  Tot=              0.0000
 Quadrupole moment (field-independent basis, Debye-Ang):
   XX=            -11.8353   YY=            -11.2182   ZZ=            -10.4512
   XY=              0.2787   XZ=              0.0000   YZ=             -0.0000

 Normal termination of Gaussian 09 at Thu Feb  9 15:03:09 2017.
