 Gaussian 09, Revision E.01,
 Gaussian 09:  ES64L-G09RevE.01 30-Nov-2015

 ----------------------------------------------------------------------
 #rhf/gen scf(symm,tight,novaracc,noincfock,fulldiag) stable(crhf) geom
 =nocrowd test
 ----------------------------------------------------------------------

 hf stability analysis of h10 triangular lattice, y= 0.4382452255487812
 6
 ----------------------------------------------------------------------
 Symbolic Z-matrix:
 Charge =  0 Multiplicity = 1

                         Standard orientation:
 ---------------------------------------------------------------------
 Center     Atomic      Atomic             Coordinates (Angstroms)
 Number     Number       Type             X           Y           Z
 ---------------------------------------------------------------------
      1          1           0        1.317414    0.876490    0.000000
      2          1           0        2.634827    0.438245    0.000000
      3          1           0        0.000000    0.438245    0.000000
      4          1           0        1.317414    0.000000    0.000000
      5          1           0       -1.317414    0.000000    0.000000
      6          1           0       -0.000000   -0.438245    0.000000
      7          1           0       -2.634827   -0.438245    0.000000
      8          1           0       -1.317414   -0.876490    0.000000
 ---------------------------------------------------------------------

 SCF Done:  E(RHF) =  -3.82148880534     A.U. after   12 cycles
 E2 =    -0.1246081448D+00 EUMP2 =    -0.39460969501359D+01

 The electronic state is 1-AG.
 Alpha  occ. eigenvalues --   -0.80699  -0.67805  -0.47048  -0.17804
 Alpha virt. eigenvalues --    0.04871   0.09549   0.28768   0.52027

 Mulliken charges:
               1
     1  H    0.059391
     2  H   -0.164029
     3  H   -0.044993
     4  H    0.149631
     5  H    0.149631
     6  H   -0.044993
     7  H   -0.164029
     8  H    0.059391
 Sum of Mulliken charges =  -0.00000

 Dipole moment (field-independent basis, Debye):
    X=              0.0000    Y=             -0.0000    Z=             -0.0000  Tot=              0.0000
 Quadrupole moment (field-independent basis, Debye-Ang):
   XX=            -21.0540   YY=             -9.9670   ZZ=            -10.4654
   XY=             -1.5425   XZ=              0.0000   YZ=             -0.0000

 Normal termination of Gaussian 09 at Thu Feb  9 15:19:37 2017.
