 Gaussian 09, Revision E.01,
 Gaussian 09:  ES64L-G09RevE.01 30-Nov-2015

 ----------------------------------------------------------------------
 #rhf/gen scf(symm,tight,novaracc,noincfock,fulldiag) stable(crhf) geom
 =nocrowd test
 ----------------------------------------------------------------------

 hf stability analysis of h10 triangular lattice, y= 0.6328681913590388
 2
 ----------------------------------------------------------------------
 Symbolic Z-matrix:
 Charge =  0 Multiplicity = 1

                         Standard orientation:
 ---------------------------------------------------------------------
 Center     Atomic      Atomic             Coordinates (Angstroms)
 Number     Number       Type             X           Y           Z
 ---------------------------------------------------------------------
      1          1           0        0.912276    1.265736    0.000000
      2          1           0        1.824551    0.632868    0.000000
      3          1           0        0.000000    0.632868    0.000000
      4          1           0        0.912276    0.000000    0.000000
      5          1           0       -0.912276    0.000000    0.000000
      6          1           0       -0.000000   -0.632868   -0.000000
      7          1           0       -1.824551   -0.632868    0.000000
      8          1           0       -0.912276   -1.265736   -0.000000
 ---------------------------------------------------------------------

 SCF Done:  E(RHF) =  -3.97296081958     A.U. after   10 cycles
 E2 =    -0.7989338310D-01 EUMP2 =    -0.40528542026805D+01

 The electronic state is 1-AG.
 Alpha  occ. eigenvalues --   -0.84125  -0.66712  -0.40312  -0.37854
 Alpha virt. eigenvalues --    0.06074   0.19265   0.42862   0.67762

 Mulliken charges:
               1
     1  H    0.103090
     2  H   -0.043450
     3  H   -0.174274
     4  H    0.114634
     5  H    0.114634
     6  H   -0.174274
     7  H   -0.043450
     8  H    0.103090
 Sum of Mulliken charges =   0.00000

 Dipole moment (field-independent basis, Debye):
    X=              0.0000    Y=              0.0000    Z=              0.0000  Tot=              0.0000
 Quadrupole moment (field-independent basis, Debye-Ang):
   XX=            -11.6108   YY=            -11.1692   ZZ=            -10.4939
   XY=              0.7331   XZ=              0.0000   YZ=             -0.0000

 Normal termination of Gaussian 09 at Thu Feb  9 15:07:19 2017.
