 Gaussian 09, Revision E.01,
 Gaussian 09:  ES64L-G09RevE.01 30-Nov-2015

 ----------------------------------------------------------------------
 #rhf/gen scf(symm,tight,novaracc,noincfock,fulldiag) stable(crhf) geom
 =nocrowd test
 ----------------------------------------------------------------------

 hf stability analysis of h10 triangular lattice, y= 0.5761867236721630
 6
 ----------------------------------------------------------------------
 Symbolic Z-matrix:
 Charge =  0 Multiplicity = 1

                         Standard orientation:
 ---------------------------------------------------------------------
 Center     Atomic      Atomic             Coordinates (Angstroms)
 Number     Number       Type             X           Y           Z
 ---------------------------------------------------------------------
      1          1           0        1.002019    1.152373   -0.000000
      2          1           0        2.004039    0.576187   -0.000000
      3          1           0        0.000000    0.576187   -0.000000
      4          1           0        1.002019    0.000000   -0.000000
      5          1           0       -1.002019    0.000000    0.000000
      6          1           0       -0.000000   -0.576187   -0.000000
      7          1           0       -2.004039   -0.576187    0.000000
      8          1           0       -1.002019   -1.152373   -0.000000
 ---------------------------------------------------------------------

 SCF Done:  E(RHF) =  -3.95126680770     A.U. after    9 cycles
 E2 =    -0.8089825765D-01 EUMP2 =    -0.40321650653554D+01

 The electronic state is 1-AG.
 Alpha  occ. eigenvalues --   -0.82640  -0.66721  -0.40925  -0.33789
 Alpha virt. eigenvalues --    0.08721   0.13908   0.47036   0.53346

 Mulliken charges:
               1
     1  H    0.099475
     2  H   -0.029251
     3  H   -0.212637
     4  H    0.142413
     5  H    0.142413
     6  H   -0.212637
     7  H   -0.029251
     8  H    0.099475
 Sum of Mulliken charges =  -0.00000

 Dipole moment (field-independent basis, Debye):
    X=             -0.0000    Y=             -0.0000    Z=              0.0000  Tot=              0.0000
 Quadrupole moment (field-independent basis, Debye-Ang):
   XX=            -10.5154   YY=            -11.5114   ZZ=            -10.5463
   XY=              1.1710   XZ=             -0.0000   YZ=             -0.0000

 Normal termination of Gaussian 09 at Thu Feb  9 15:10:57 2017.
