 Gaussian 09, Revision E.01,
 Gaussian 09:  ES64L-G09RevE.01 30-Nov-2015

 ----------------------------------------------------------------------
 #rhf/gen scf(symm,tight,novaracc,noincfock,fulldiag) stable(crhf) geom
 =nocrowd test
 ----------------------------------------------------------------------

 hf stability analysis of h10 triangular lattice, y= 0.4515347389936239
 5
 ----------------------------------------------------------------------
 Symbolic Z-matrix:
 Charge =  0 Multiplicity = 1

                         Standard orientation:
 ---------------------------------------------------------------------
 Center     Atomic      Atomic             Coordinates (Angstroms)
 Number     Number       Type             X           Y           Z
 ---------------------------------------------------------------------
      1          1           0        1.278640    0.903069    0.000000
      2          1           0        2.557280    0.451535    0.000000
      3          1           0        0.000000    0.451535    0.000000
      4          1           0        1.278640    0.000000    0.000000
      5          1           0       -1.278640    0.000000    0.000000
      6          1           0       -0.000000   -0.451535    0.000000
      7          1           0       -2.557280   -0.451535    0.000000
      8          1           0       -1.278640   -0.903069    0.000000
 ---------------------------------------------------------------------

 SCF Done:  E(RHF) =  -3.82020557411     A.U. after   12 cycles
 E2 =    -0.1108319996D+00 EUMP2 =    -0.39310375737226D+01

 The electronic state is 1-AG.
 Alpha  occ. eigenvalues --   -0.80387  -0.67469  -0.45361  -0.19394
 Alpha virt. eigenvalues --    0.07722   0.08158   0.27986   0.52116

 Mulliken charges:
               1
     1  H    0.052345
     2  H   -0.130334
     3  H   -0.095606
     4  H    0.173594
     5  H    0.173594
     6  H   -0.095606
     7  H   -0.130334
     8  H    0.052345
 Sum of Mulliken charges =  -0.00000

 Dipole moment (field-independent basis, Debye):
    X=             -0.0000    Y=             -0.0000    Z=             -0.0000  Tot=              0.0000
 Quadrupole moment (field-independent basis, Debye-Ang):
   XX=            -17.6692   YY=            -10.5664   ZZ=            -10.5050
   XY=             -0.9336   XZ=              0.0000   YZ=              0.0000

 Normal termination of Gaussian 09 at Thu Feb  9 15:18:49 2017.
