 Gaussian 09, Revision E.01,
 Gaussian 09:  ES64L-G09RevE.01 30-Nov-2015

 ----------------------------------------------------------------------
 #rhf/gen scf(symm,tight,novaracc,noincfock,fulldiag) stable(crhf) geom
 =nocrowd test
 ----------------------------------------------------------------------

 hf stability analysis of h10 triangular lattice, y= 0.6216931167693641
 2
 ----------------------------------------------------------------------
 Symbolic Z-matrix:
 Charge =  0 Multiplicity = 1

                         Standard orientation:
 ---------------------------------------------------------------------
 Center     Atomic      Atomic             Coordinates (Angstroms)
 Number     Number       Type             X           Y           Z
 ---------------------------------------------------------------------
      1          1           0        0.928674    1.243386   -0.000000
      2          1           0        1.857348    0.621693   -0.000000
      3          1           0       -0.000000    0.621693    0.000000
      4          1           0        0.928674    0.000000   -0.000000
      5          1           0       -0.928674    0.000000   -0.000000
      6          1           0       -0.000000   -0.621693    0.000000
      7          1           0       -1.857348   -0.621693   -0.000000
      8          1           0       -0.928674   -1.243386   -0.000000
 ---------------------------------------------------------------------

 SCF Done:  E(RHF) =  -3.97054335143     A.U. after   10 cycles
 E2 =    -0.7980036524D-01 EUMP2 =    -0.40503437166697D+01

 The electronic state is 1-AG.
 Alpha  occ. eigenvalues --   -0.83890  -0.66731  -0.40424  -0.37199
 Alpha virt. eigenvalues --    0.06512   0.18251   0.43660   0.65103

 Mulliken charges:
               1
     1  H    0.105056
     2  H   -0.042861
     3  H   -0.183783
     4  H    0.121588
     5  H    0.121588
     6  H   -0.183783
     7  H   -0.042861
     8  H    0.105056
 Sum of Mulliken charges =   0.00000

 Dipole moment (field-independent basis, Debye):
    X=              0.0000    Y=              0.0000    Z=             -0.0000  Tot=              0.0000
 Quadrupole moment (field-independent basis, Debye-Ang):
   XX=            -11.4693   YY=            -11.2104   ZZ=            -10.5034
   XY=              0.8236   XZ=              0.0000   YZ=             -0.0000

 Normal termination of Gaussian 09 at Thu Feb  9 15:08:02 2017.
