 Gaussian 09, Revision E.01,
 Gaussian 09:  ES64L-G09RevE.01 30-Nov-2015

 ----------------------------------------------------------------------
 #rhf/gen scf(symm,tight,novaracc,noincfock,fulldiag) stable(crhf) geom
 =nocrowd test
 ----------------------------------------------------------------------

 hf stability analysis of h10 triangular lattice, y= 0.4823678952330198
 2
 ----------------------------------------------------------------------
 Symbolic Z-matrix:
 Charge =  0 Multiplicity = 1

                         Standard orientation:
 ---------------------------------------------------------------------
 Center     Atomic      Atomic             Coordinates (Angstroms)
 Number     Number       Type             X           Y           Z
 ---------------------------------------------------------------------
      1          1           0        1.196909    0.964736   -0.000000
      2          1           0        2.393817    0.482368   -0.000000
      3          1           0        0.000000    0.482368    0.000000
      4          1           0        1.196909    0.000000   -0.000000
      5          1           0       -1.196909    0.000000   -0.000000
      6          1           0       -0.000000   -0.482368   -0.000000
      7          1           0       -2.393817   -0.482368   -0.000000
      8          1           0       -1.196909   -0.964736   -0.000000
 ---------------------------------------------------------------------

 SCF Done:  E(RHF) =  -3.84544150163     A.U. after   10 cycles
 E2 =    -0.9740990431D-01 EUMP2 =    -0.39428514059429D+01

 The electronic state is 1-AG.
 Alpha  occ. eigenvalues --   -0.79873  -0.66729  -0.42783  -0.23379
 Alpha virt. eigenvalues --    0.06841   0.12268   0.29916   0.52476

 Mulliken charges:
               1
     1  H    0.041270
     2  H   -0.042920
     3  H   -0.190198
     4  H    0.191847
     5  H    0.191847
     6  H   -0.190198
     7  H   -0.042920
     8  H    0.041270
 Sum of Mulliken charges =   0.00000

 Dipole moment (field-independent basis, Debye):
    X=              0.0000    Y=              0.0000    Z=             -0.0000  Tot=              0.0000
 Quadrupole moment (field-independent basis, Debye-Ang):
   XX=            -11.0299   YY=            -11.7459   ZZ=            -10.5808
   XY=              0.4999   XZ=              0.0000   YZ=             -0.0000

 Normal termination of Gaussian 09 at Thu Feb  9 15:16:56 2017.
