 Gaussian 09, Revision E.01,
 Gaussian 09:  ES64L-G09RevE.01 30-Nov-2015

 ----------------------------------------------------------------------
 #rhf/gen scf(symm,tight,novaracc,noincfock,fulldiag) stable(crhf) geom
 =nocrowd test
 ----------------------------------------------------------------------

 hf stability analysis of h10 triangular lattice, y= 0.3815181608920477
 1
 ----------------------------------------------------------------------
 Symbolic Z-matrix:
 Charge =  0 Multiplicity = 1

                         Standard orientation:
 ---------------------------------------------------------------------
 Center     Atomic      Atomic             Coordinates (Angstroms)
 Number     Number       Type             X           Y           Z
 ---------------------------------------------------------------------
      1          1           0        1.513297    0.763036   -0.000000
      2          1           0        3.026594    0.381518   -0.000000
      3          1           0        0.000000    0.381518   -0.000000
      4          1           0        1.513297    0.000000    0.000000
      5          1           0       -1.513297    0.000000    0.000000
      6          1           0       -0.000000   -0.381518   -0.000000
      7          1           0       -3.026594   -0.381518    0.000000
      8          1           0       -1.513297   -0.763036    0.000000
 ---------------------------------------------------------------------

 SCF Done:  E(RHF) =  -3.87498347652     A.U. after    9 cycles
 E2 =    -0.2830203012D+00 EUMP2 =    -0.41580037776864D+01

 The electronic state is 1-AG.
 Alpha  occ. eigenvalues --   -0.77929  -0.67618  -0.53146  -0.17199
 Alpha virt. eigenvalues --   -0.05011   0.20255   0.36781   0.56730

 Mulliken charges:
               1
     1  H    0.041402
     2  H   -0.118510
     3  H    0.024895
     4  H    0.052213
     5  H    0.052213
     6  H    0.024895
     7  H   -0.118510
     8  H    0.041402
 Sum of Mulliken charges =  -0.00000

 Dipole moment (field-independent basis, Debye):
    X=             -0.0000    Y=              0.0000    Z=             -0.0000  Tot=              0.0000
 Quadrupole moment (field-independent basis, Debye-Ang):
   XX=            -22.6084   YY=             -9.2087   ZZ=            -10.4468
   XY=             -1.5384   XZ=              0.0000   YZ=              0.0000

 Normal termination of Gaussian 09 at Thu Feb  9 15:22:47 2017.
