 Gaussian 09, Revision E.01,
 Gaussian 09:  ES64L-G09RevE.01 30-Nov-2015

 ----------------------------------------------------------------------
 #rhf/gen scf(symm,tight,novaracc,noincfock,fulldiag) stable(crhf) geom
 =nocrowd test
 ----------------------------------------------------------------------

 hf stability analysis of h10 triangular lattice, y= 0.5412083873838112
 7
 ----------------------------------------------------------------------
 Symbolic Z-matrix:
 Charge =  0 Multiplicity = 1

                         Standard orientation:
 ---------------------------------------------------------------------
 Center     Atomic      Atomic             Coordinates (Angstroms)
 Number     Number       Type             X           Y           Z
 ---------------------------------------------------------------------
      1          1           0        1.066780    1.082417   -0.000000
      2          1           0        2.133560    0.541208   -0.000000
      3          1           0        0.000000    0.541208   -0.000000
      4          1           0        1.066780    0.000000   -0.000000
      5          1           0       -1.066780    0.000000   -0.000000
      6          1           0       -0.000000   -0.541208    0.000000
      7          1           0       -2.133560   -0.541208   -0.000000
      8          1           0       -1.066780   -1.082417    0.000000
 ---------------------------------------------------------------------

 SCF Done:  E(RHF) =  -3.92204801463     A.U. after    9 cycles
 E2 =    -0.8389602006D-01 EUMP2 =    -0.40059440346912D+01

 The electronic state is 1-AG.
 Alpha  occ. eigenvalues --   -0.81398  -0.66607  -0.41341  -0.30339
 Alpha virt. eigenvalues --    0.10543   0.10742   0.43942   0.49644

 Mulliken charges:
               1
     1  H    0.080632
     2  H   -0.012352
     3  H   -0.224306
     4  H    0.156026
     5  H    0.156026
     6  H   -0.224306
     7  H   -0.012352
     8  H    0.080632
 Sum of Mulliken charges =  -0.00000

 Dipole moment (field-independent basis, Debye):
    X=              0.0000    Y=             -0.0000    Z=             -0.0000  Tot=              0.0000
 Quadrupole moment (field-independent basis, Debye-Ang):
   XX=             -9.4847   YY=            -11.8305   ZZ=            -10.5795
   XY=              1.3267   XZ=             -0.0000   YZ=              0.0000

 Normal termination of Gaussian 09 at Thu Feb  9 15:13:13 2017.
