 Gaussian 09, Revision E.01,
 Gaussian 09:  ES64L-G09RevE.01 30-Nov-2015

 ----------------------------------------------------------------------
 #rhf/gen scf(symm,tight,novaracc,noincfock,fulldiag) stable(crhf) geom
 =nocrowd test
 ----------------------------------------------------------------------

 hf stability analysis of h10 triangular lattice, y= 0.5657123745340343
 3
 ----------------------------------------------------------------------
 Symbolic Z-matrix:
 Charge =  0 Multiplicity = 1

                         Standard orientation:
 ---------------------------------------------------------------------
 Center     Atomic      Atomic             Coordinates (Angstroms)
 Number     Number       Type             X           Y           Z
 ---------------------------------------------------------------------
      1          1           0        1.020572    1.131425   -0.000000
      2          1           0        2.041144    0.565712   -0.000000
      3          1           0        0.000000    0.565712    0.000000
      4          1           0        1.020572    0.000000   -0.000000
      5          1           0       -1.020572    0.000000   -0.000000
      6          1           0       -0.000000   -0.565712    0.000000
      7          1           0       -2.041144   -0.565712   -0.000000
      8          1           0       -1.020572   -1.131425   -0.000000
 ---------------------------------------------------------------------

 SCF Done:  E(RHF) =  -3.94403839909     A.U. after   10 cycles
 E2 =    -0.8156395373D-01 EUMP2 =    -0.40256023528268D+01

 The electronic state is 1-AG.
 Alpha  occ. eigenvalues --   -0.82288  -0.66695  -0.41046  -0.32829
 Alpha virt. eigenvalues --    0.09310   0.12888   0.47826   0.50530

 Mulliken charges:
               1
     1  H    0.095101
     2  H   -0.024252
     3  H   -0.217117
     4  H    0.146267
     5  H    0.146267
     6  H   -0.217117
     7  H   -0.024252
     8  H    0.095101
 Sum of Mulliken charges =   0.00000

 Dipole moment (field-independent basis, Debye):
    X=             -0.0000    Y=             -0.0000    Z=             -0.0000  Tot=              0.0000
 Quadrupole moment (field-independent basis, Debye-Ang):
   XX=            -10.2178   YY=            -11.6038   ZZ=            -10.5566
   XY=              1.2348   XZ=              0.0000   YZ=              0.0000

 Normal termination of Gaussian 09 at Thu Feb  9 15:11:38 2017.
