 Gaussian 09, Revision E.01,
 Gaussian 09:  ES64L-G09RevE.01 30-Nov-2015

 ----------------------------------------------------------------------
 #rhf/gen scf(symm,tight,novaracc,noincfock,fulldiag) stable(crhf) geom
 =nocrowd test
 ----------------------------------------------------------------------

 hf stability analysis of h10 triangular lattice, y= 0.4464990303591031
 0
 ----------------------------------------------------------------------
 Symbolic Z-matrix:
 Charge =  0 Multiplicity = 1

                         Standard orientation:
 ---------------------------------------------------------------------
 Center     Atomic      Atomic             Coordinates (Angstroms)
 Number     Number       Type             X           Y           Z
 ---------------------------------------------------------------------
      1          1           0        1.293061    0.892998   -0.000000
      2          1           0        2.586121    0.446499   -0.000000
      3          1           0        0.000000    0.446499   -0.000000
      4          1           0        1.293061    0.000000   -0.000000
      5          1           0       -1.293061   -0.000000   -0.000000
      6          1           0       -0.000000   -0.446499   -0.000000
      7          1           0       -2.586121   -0.446499   -0.000000
      8          1           0       -1.293061   -0.892998   -0.000000
 ---------------------------------------------------------------------

 SCF Done:  E(RHF) =  -3.81970398582     A.U. after   12 cycles
 E2 =    -0.1147217998D+00 EUMP2 =    -0.39344257855781D+01

 The electronic state is 1-AG.
 Alpha  occ. eigenvalues --   -0.80518  -0.67606  -0.45971  -0.18758
 Alpha virt. eigenvalues --    0.06647   0.08631   0.28198   0.52051

 Mulliken charges:
               1
     1  H    0.055298
     2  H   -0.144445
     3  H   -0.076308
     4  H    0.165456
     5  H    0.165456
     6  H   -0.076308
     7  H   -0.144445
     8  H    0.055298
 Sum of Mulliken charges =   0.00000

 Dipole moment (field-independent basis, Debye):
    X=             -0.0000    Y=             -0.0000    Z=              0.0000  Tot=              0.0000
 Quadrupole moment (field-independent basis, Debye-Ang):
   XX=            -18.9866   YY=            -10.3327   ZZ=            -10.4896
   XY=             -1.1785   XZ=             -0.0000   YZ=             -0.0000

 Normal termination of Gaussian 09 at Thu Feb  9 15:19:07 2017.
