 Gaussian 09, Revision E.01,
 Gaussian 09:  ES64L-G09RevE.01 30-Nov-2015

 ----------------------------------------------------------------------
 #rhf/gen scf(symm,tight,novaracc,noincfock,fulldiag) stable(crhf) geom
 =nocrowd test
 ----------------------------------------------------------------------

 hf stability analysis of h10 triangular lattice, y= 0.4805451482874157
 4
 ----------------------------------------------------------------------
 Symbolic Z-matrix:
 Charge =  0 Multiplicity = 1

                         Standard orientation:
 ---------------------------------------------------------------------
 Center     Atomic      Atomic             Coordinates (Angstroms)
 Number     Number       Type             X           Y           Z
 ---------------------------------------------------------------------
      1          1           0        1.201449    0.961090   -0.000000
      2          1           0        2.402897    0.480545   -0.000000
      3          1           0        0.000000    0.480545   -0.000000
      4          1           0        1.201449    0.000000    0.000000
      5          1           0       -1.201449    0.000000    0.000000
      6          1           0       -0.000000   -0.480545   -0.000000
      7          1           0       -2.402897   -0.480545    0.000000
      8          1           0       -1.201449   -0.961090    0.000000
 ---------------------------------------------------------------------

 SCF Done:  E(RHF) =  -3.84316552937     A.U. after   10 cycles
 E2 =    -0.9808088350D-01 EUMP2 =    -0.39412464128698D+01

 The electronic state is 1-AG.
 Alpha  occ. eigenvalues --   -0.79876  -0.66759  -0.42882  -0.23151
 Alpha virt. eigenvalues --    0.06839   0.12146   0.29632   0.52483

 Mulliken charges:
               1
     1  H    0.041138
     2  H   -0.047090
     3  H   -0.186295
     4  H    0.192247
     5  H    0.192247
     6  H   -0.186295
     7  H   -0.047090
     8  H    0.041138
 Sum of Mulliken charges =   0.00000

 Dipole moment (field-independent basis, Debye):
    X=              0.0000    Y=             -0.0000    Z=              0.0000  Tot=              0.0000
 Quadrupole moment (field-independent basis, Debye-Ang):
   XX=            -11.3004   YY=            -11.6995   ZZ=            -10.5778
   XY=              0.4299   XZ=              0.0000   YZ=             -0.0000

 Normal termination of Gaussian 09 at Thu Feb  9 15:17:03 2017.
