 Gaussian 09, Revision E.01,
 Gaussian 09:  ES64L-G09RevE.01 30-Nov-2015

 ----------------------------------------------------------------------
 #rhf/gen scf(symm,tight,novaracc,noincfock,fulldiag) stable(crhf) geom
 =nocrowd test
 ----------------------------------------------------------------------

 hf stability analysis of h10 triangular lattice, y= 0.4521619835073459
 3
 ----------------------------------------------------------------------
 Symbolic Z-matrix:
 Charge =  0 Multiplicity = 1

                         Standard orientation:
 ---------------------------------------------------------------------
 Center     Atomic      Atomic             Coordinates (Angstroms)
 Number     Number       Type             X           Y           Z
 ---------------------------------------------------------------------
      1          1           0        1.276866    0.904324    0.000000
      2          1           0        2.553732    0.452162    0.000000
      3          1           0        0.000000    0.452162   -0.000000
      4          1           0        1.276866    0.000000    0.000000
      5          1           0       -1.276866    0.000000    0.000000
      6          1           0       -0.000000   -0.452162   -0.000000
      7          1           0       -2.553732   -0.452162    0.000000
      8          1           0       -1.276866   -0.904324   -0.000000
 ---------------------------------------------------------------------

 SCF Done:  E(RHF) =  -3.82035173114     A.U. after   12 cycles
 E2 =    -0.1104263151D+00 EUMP2 =    -0.39307780462293D+01

 The electronic state is 1-AG.
 Alpha  occ. eigenvalues --   -0.80370  -0.67451  -0.45288  -0.19475
 Alpha virt. eigenvalues --    0.07854   0.08104   0.27968   0.52126

 Mulliken charges:
               1
     1  H    0.051968
     2  H   -0.128501
     3  H   -0.097982
     4  H    0.174515
     5  H    0.174515
     6  H   -0.097982
     7  H   -0.128501
     8  H    0.051968
 Sum of Mulliken charges =   0.00000

 Dipole moment (field-independent basis, Debye):
    X=             -0.0000    Y=              0.0000    Z=              0.0000  Tot=              0.0000
 Quadrupole moment (field-independent basis, Debye-Ang):
   XX=            -17.5053   YY=            -10.5956   ZZ=            -10.5069
   XY=             -0.9024   XZ=             -0.0000   YZ=             -0.0000

 Normal termination of Gaussian 09 at Thu Feb  9 15:18:47 2017.
