 Gaussian 09, Revision E.01,
 Gaussian 09:  ES64L-G09RevE.01 30-Nov-2015

 ----------------------------------------------------------------------
 #rhf/gen scf(symm,tight,novaracc,noincfock,fulldiag) stable(crhf) geom
 =nocrowd test
 ----------------------------------------------------------------------

 hf stability analysis of h10 triangular lattice, y= 0.6548115501775451
 1
 ----------------------------------------------------------------------
 Symbolic Z-matrix:
 Charge =  0 Multiplicity = 1

                         Standard orientation:
 ---------------------------------------------------------------------
 Center     Atomic      Atomic             Coordinates (Angstroms)
 Number     Number       Type             X           Y           Z
 ---------------------------------------------------------------------
      1          1           0        0.881704    1.309623    0.000000
      2          1           0        1.763409    0.654812    0.000000
      3          1           0        0.000000    0.654812    0.000000
      4          1           0        0.881704    0.000000    0.000000
      5          1           0       -0.881704    0.000000   -0.000000
      6          1           0       -0.000000   -0.654812    0.000000
      7          1           0       -1.763409   -0.654812   -0.000000
      8          1           0       -0.881704   -1.309623    0.000000
 ---------------------------------------------------------------------

 SCF Done:  E(RHF) =  -3.97594299600     A.U. after   10 cycles
 E2 =    -0.8036305123D-01 EUMP2 =    -0.40563060472356D+01

 The electronic state is 1-AG.
 Alpha  occ. eigenvalues --   -0.84511  -0.66659  -0.40112  -0.38944
 Alpha virt. eigenvalues --    0.05339   0.21158   0.41354   0.72564

 Mulliken charges:
               1
     1  H    0.095659
     2  H   -0.041065
     3  H   -0.152870
     4  H    0.098277
     5  H    0.098277
     6  H   -0.152870
     7  H   -0.041065
     8  H    0.095659
 Sum of Mulliken charges =  -0.00000

 Dipole moment (field-independent basis, Debye):
    X=             -0.0000    Y=             -0.0000    Z=             -0.0000  Tot=              0.0000
 Quadrupole moment (field-independent basis, Debye-Ang):
   XX=            -11.7908   YY=            -11.1306   ZZ=            -10.4770
   XY=              0.5623   XZ=             -0.0000   YZ=              0.0000

 Normal termination of Gaussian 09 at Thu Feb  9 15:05:55 2017.
