 Gaussian 09, Revision E.01,
 Gaussian 09:  ES64L-G09RevE.01 30-Nov-2015

 ----------------------------------------------------------------------
 #rhf/gen scf(symm,tight,novaracc,noincfock,fulldiag) stable(crhf) geom
 =nocrowd test
 ----------------------------------------------------------------------

 hf stability analysis of h10 triangular lattice, y= 0.4713833666682978
 9
 ----------------------------------------------------------------------
 Symbolic Z-matrix:
 Charge =  0 Multiplicity = 1

                         Standard orientation:
 ---------------------------------------------------------------------
 Center     Atomic      Atomic             Coordinates (Angstroms)
 Number     Number       Type             X           Y           Z
 ---------------------------------------------------------------------
      1          1           0        1.224800    0.942767    0.000000
      2          1           0        2.449600    0.471383    0.000000
      3          1           0        0.000000    0.471383   -0.000000
      4          1           0        1.224800    0.000000    0.000000
      5          1           0       -1.224800    0.000000    0.000000
      6          1           0       -0.000000   -0.471383   -0.000000
      7          1           0       -2.449600   -0.471383    0.000000
      8          1           0       -1.224800   -0.942767    0.000000
 ---------------------------------------------------------------------

 SCF Done:  E(RHF) =  -3.83286552198     A.U. after   10 cycles
 E2 =    -0.1015769573D+00 EUMP2 =    -0.39344424792548D+01

 The electronic state is 1-AG.
 Alpha  occ. eigenvalues --   -0.79955  -0.66944  -0.43473  -0.21987
 Alpha virt. eigenvalues --    0.06984   0.11230   0.28518   0.52439

 Mulliken charges:
               1
     1  H    0.042346
     2  H   -0.070952
     3  H   -0.163048
     4  H    0.191654
     5  H    0.191654
     6  H   -0.163048
     7  H   -0.070952
     8  H    0.042346
 Sum of Mulliken charges =  -0.00000

 Dipole moment (field-independent basis, Debye):
    X=             -0.0000    Y=              0.0000    Z=              0.0000  Tot=              0.0000
 Quadrupole moment (field-independent basis, Debye-Ang):
   XX=            -12.9338   YY=            -11.4125   ZZ=            -10.5595
   XY=              0.0394   XZ=             -0.0000   YZ=              0.0000

 Normal termination of Gaussian 09 at Thu Feb  9 15:17:37 2017.
