 Gaussian 09, Revision E.01,
 Gaussian 09:  ES64L-G09RevE.01 30-Nov-2015

 ----------------------------------------------------------------------
 #rhf/gen scf(symm,tight,novaracc,noincfock,fulldiag) stable(crhf) geom
 =nocrowd test
 ----------------------------------------------------------------------

 hf stability analysis of h10 triangular lattice, y= 0.5382805396584897
 7
 ----------------------------------------------------------------------
 Symbolic Z-matrix:
 Charge =  0 Multiplicity = 1

                         Standard orientation:
 ---------------------------------------------------------------------
 Center     Atomic      Atomic             Coordinates (Angstroms)
 Number     Number       Type             X           Y           Z
 ---------------------------------------------------------------------
      1          1           0        1.072582    1.076561    0.000000
      2          1           0        2.145165    0.538281    0.000000
      3          1           0        0.000000    0.538281    0.000000
      4          1           0        1.072582    0.000000    0.000000
      5          1           0       -1.072582    0.000000   -0.000000
      6          1           0       -0.000000   -0.538281   -0.000000
      7          1           0       -2.145165   -0.538281   -0.000000
      8          1           0       -1.072582   -1.076561   -0.000000
 ---------------------------------------------------------------------

 SCF Done:  E(RHF) =  -3.91891953166     A.U. after   10 cycles
 E2 =    -0.8426040913D-01 EUMP2 =    -0.40031799407945D+01

 The electronic state is 1-AG.
 Alpha  occ. eigenvalues --   -0.81289  -0.66596  -0.41378  -0.30019
 Alpha virt. eigenvalues --    0.10272   0.10912   0.43162   0.49854

 Mulliken charges:
               1
     1  H    0.078538
     2  H   -0.011126
     3  H   -0.224802
     4  H    0.157390
     5  H    0.157390
     6  H   -0.224802
     7  H   -0.011126
     8  H    0.078538
 Sum of Mulliken charges =  -0.00000

 Dipole moment (field-independent basis, Debye):
    X=             -0.0000    Y=              0.0000    Z=             -0.0000  Tot=              0.0000
 Quadrupole moment (field-independent basis, Debye-Ang):
   XX=             -9.4030   YY=            -11.8566   ZZ=            -10.5820
   XY=              1.3296   XZ=              0.0000   YZ=              0.0000

 Normal termination of Gaussian 09 at Thu Feb  9 15:13:24 2017.
