 Gaussian 09, Revision E.01,
 Gaussian 09:  ES64L-G09RevE.01 30-Nov-2015

 ----------------------------------------------------------------------
 #rhf/gen scf(symm,tight,novaracc,noincfock,fulldiag) stable(crhf) geom
 =nocrowd test
 ----------------------------------------------------------------------

 hf stability analysis of h10 triangular lattice, y= 0.5159090308841330
 9
 ----------------------------------------------------------------------
 Symbolic Z-matrix:
 Charge =  0 Multiplicity = 1

                         Standard orientation:
 ---------------------------------------------------------------------
 Center     Atomic      Atomic             Coordinates (Angstroms)
 Number     Number       Type             X           Y           Z
 ---------------------------------------------------------------------
      1          1           0        1.119093    1.031818   -0.000000
      2          1           0        2.238186    0.515909   -0.000000
      3          1           0        0.000000    0.515909   -0.000000
      4          1           0        1.119093    0.000000   -0.000000
      5          1           0       -1.119093    0.000000   -0.000000
      6          1           0       -0.000000   -0.515909   -0.000000
      7          1           0       -2.238186   -0.515909   -0.000000
      8          1           0       -1.119093   -1.031818   -0.000000
 ---------------------------------------------------------------------

 SCF Done:  E(RHF) =  -3.89163617673     A.U. after   10 cycles
 E2 =    -0.8787184886D-01 EUMP2 =    -0.39795080255888D+01

 The electronic state is 1-AG.
 Alpha  occ. eigenvalues --   -0.80487  -0.66526  -0.41717  -0.27458
 Alpha virt. eigenvalues --    0.08364   0.12097   0.37325   0.51327

 Mulliken charges:
               1
     1  H    0.060799
     2  H   -0.006772
     3  H   -0.224407
     4  H    0.170380
     5  H    0.170380
     6  H   -0.224407
     7  H   -0.006772
     8  H    0.060799
 Sum of Mulliken charges =  -0.00000

 Dipole moment (field-independent basis, Debye):
    X=             -0.0000    Y=              0.0000    Z=             -0.0000  Tot=              0.0000
 Quadrupole moment (field-independent basis, Debye-Ang):
   XX=             -9.0149   YY=            -12.0125   ZZ=            -10.5965
   XY=              1.2506   XZ=              0.0000   YZ=             -0.0000

 Normal termination of Gaussian 09 at Thu Feb  9 15:14:50 2017.
