 Gaussian 09, Revision E.01,
 Gaussian 09:  ES64L-G09RevE.01 30-Nov-2015

 ----------------------------------------------------------------------
 #rhf/gen scf(symm,tight,novaracc,noincfock,fulldiag) stable(crhf) geom
 =nocrowd test
 ----------------------------------------------------------------------

 hf stability analysis of h10 triangular lattice, y= 0.6542147574878637
 3
 ----------------------------------------------------------------------
 Symbolic Z-matrix:
 Charge =  0 Multiplicity = 1

                         Standard orientation:
 ---------------------------------------------------------------------
 Center     Atomic      Atomic             Coordinates (Angstroms)
 Number     Number       Type             X           Y           Z
 ---------------------------------------------------------------------
      1          1           0        0.882509    1.308429    0.000000
      2          1           0        1.765018    0.654215    0.000000
      3          1           0        0.000000    0.654215    0.000000
      4          1           0        0.882509   -0.000000    0.000000
      5          1           0       -0.882509    0.000000   -0.000000
      6          1           0       -0.000000   -0.654215   -0.000000
      7          1           0       -1.765018   -0.654215   -0.000000
      8          1           0       -0.882509   -1.308429   -0.000000
 ---------------------------------------------------------------------

 SCF Done:  E(RHF) =  -3.97588703363     A.U. after   10 cycles
 E2 =    -0.8034635594D-01 EUMP2 =    -0.40562333895693D+01

 The electronic state is 1-AG.
 Alpha  occ. eigenvalues --   -0.84502  -0.66660  -0.40117  -0.38918
 Alpha virt. eigenvalues --    0.05357   0.21108   0.41394   0.72442

 Mulliken charges:
               1
     1  H    0.095920
     2  H   -0.041192
     3  H   -0.153498
     4  H    0.098770
     5  H    0.098770
     6  H   -0.153498
     7  H   -0.041192
     8  H    0.095920
 Sum of Mulliken charges =  -0.00000

 Dipole moment (field-independent basis, Debye):
    X=              0.0000    Y=             -0.0000    Z=             -0.0000  Tot=              0.0000
 Quadrupole moment (field-independent basis, Debye-Ang):
   XX=            -11.7875   YY=            -11.1309   ZZ=            -10.4775
   XY=              0.5668   XZ=             -0.0000   YZ=              0.0000

 Normal termination of Gaussian 09 at Thu Feb  9 15:05:58 2017.
