 Gaussian 09, Revision E.01,
 Gaussian 09:  ES64L-G09RevE.01 30-Nov-2015

 ----------------------------------------------------------------------
 #rhf/gen scf(symm,tight,novaracc,noincfock,fulldiag) stable(crhf) geom
 =nocrowd test
 ----------------------------------------------------------------------

 hf stability analysis of h10 triangular lattice, y= 0.4344043754822976
 6
 ----------------------------------------------------------------------
 Symbolic Z-matrix:
 Charge =  0 Multiplicity = 1

                         Standard orientation:
 ---------------------------------------------------------------------
 Center     Atomic      Atomic             Coordinates (Angstroms)
 Number     Number       Type             X           Y           Z
 ---------------------------------------------------------------------
      1          1           0        1.329062    0.868809    0.000000
      2          1           0        2.658124    0.434404    0.000000
      3          1           0        0.000000    0.434404    0.000000
      4          1           0        1.329062    0.000000    0.000000
      5          1           0       -1.329062    0.000000    0.000000
      6          1           0       -0.000000   -0.434404   -0.000000
      7          1           0       -2.658124   -0.434404    0.000000
      8          1           0       -1.329062   -0.868809    0.000000
 ---------------------------------------------------------------------

 SCF Done:  E(RHF) =  -3.82338391076     A.U. after   12 cycles
 E2 =    -0.1311618363D+00 EUMP2 =    -0.39545457470795D+01

 The electronic state is 1-AG.
 Alpha  occ. eigenvalues --   -0.80753  -0.67880  -0.47565  -0.17420
 Alpha virt. eigenvalues --    0.04064   0.10036   0.29113   0.52070

 Mulliken charges:
               1
     1  H    0.060762
     2  H   -0.170974
     3  H   -0.031283
     4  H    0.141495
     5  H    0.141495
     6  H   -0.031283
     7  H   -0.170974
     8  H    0.060762
 Sum of Mulliken charges =  -0.00000

 Dipole moment (field-independent basis, Debye):
    X=             -0.0000    Y=             -0.0000    Z=             -0.0000  Tot=              0.0000
 Quadrupole moment (field-independent basis, Debye-Ang):
   XX=            -21.9190   YY=             -9.8128   ZZ=            -10.4552
   XY=             -1.6860   XZ=             -0.0000   YZ=              0.0000

 Normal termination of Gaussian 09 at Thu Feb  9 15:19:50 2017.
