 Gaussian 09, Revision E.01,
 Gaussian 09:  ES64L-G09RevE.01 30-Nov-2015

 ----------------------------------------------------------------------
 #rhf/gen scf(symm,tight,novaracc,noincfock,fulldiag) stable(crhf) geom
 =nocrowd test
 ----------------------------------------------------------------------

 hf stability analysis of h10 triangular lattice, y= 0.4787192962540313
 7
 ----------------------------------------------------------------------
 Symbolic Z-matrix:
 Charge =  0 Multiplicity = 1

                         Standard orientation:
 ---------------------------------------------------------------------
 Center     Atomic      Atomic             Coordinates (Angstroms)
 Number     Number       Type             X           Y           Z
 ---------------------------------------------------------------------
      1          1           0        1.206031    0.957439   -0.000000
      2          1           0        2.412062    0.478719   -0.000000
      3          1           0        0.000000    0.478719   -0.000000
      4          1           0        1.206031    0.000000   -0.000000
      5          1           0       -1.206031    0.000000   -0.000000
      6          1           0       -0.000000   -0.478719   -0.000000
      7          1           0       -2.412062   -0.478719   -0.000000
      8          1           0       -1.206031   -0.957439   -0.000000
 ---------------------------------------------------------------------

 SCF Done:  E(RHF) =  -3.84095191631     A.U. after   10 cycles
 E2 =    -0.9876272419D-01 EUMP2 =    -0.39397146404933D+01

 The electronic state is 1-AG.
 Alpha  occ. eigenvalues --   -0.79884  -0.66792  -0.42987  -0.22921
 Alpha virt. eigenvalues --    0.06847   0.12004   0.29367   0.52484

 Mulliken charges:
               1
     1  H    0.041133
     2  H   -0.051478
     3  H   -0.182140
     4  H    0.192486
     5  H    0.192486
     6  H   -0.182140
     7  H   -0.051478
     8  H    0.041133
 Sum of Mulliken charges =  -0.00000

 Dipole moment (field-independent basis, Debye):
    X=             -0.0000    Y=              0.0000    Z=             -0.0000  Tot=              0.0000
 Quadrupole moment (field-independent basis, Debye-Ang):
   XX=            -11.5899   YY=            -11.6494   ZZ=            -10.5746
   XY=              0.3570   XZ=             -0.0000   YZ=              0.0000

 Normal termination of Gaussian 09 at Thu Feb  9 15:17:10 2017.
