 Gaussian 09, Revision E.01,
 Gaussian 09:  ES64L-G09RevE.01 30-Nov-2015

 ----------------------------------------------------------------------
 #rhf/gen scf(symm,tight,novaracc,noincfock,fulldiag) stable(crhf) geom
 =nocrowd test
 ----------------------------------------------------------------------

 hf stability analysis of h10 triangular lattice, y= 0.3836205710506071
 5
 ----------------------------------------------------------------------
 Symbolic Z-matrix:
 Charge =  0 Multiplicity = 1

                         Standard orientation:
 ---------------------------------------------------------------------
 Center     Atomic      Atomic             Coordinates (Angstroms)
 Number     Number       Type             X           Y           Z
 ---------------------------------------------------------------------
      1          1           0        1.505003    0.767241   -0.000000
      2          1           0        3.010007    0.383621   -0.000000
      3          1           0        0.000000    0.383621   -0.000000
      4          1           0        1.505003    0.000000    0.000000
      5          1           0       -1.505003    0.000000    0.000000
      6          1           0       -0.000000   -0.383621   -0.000000
      7          1           0       -3.010007   -0.383621   -0.000000
      8          1           0       -1.505003   -0.767241   -0.000000
 ---------------------------------------------------------------------

 SCF Done:  E(RHF) =  -3.87328442800     A.U. after    9 cycles
 E2 =    -0.2762943073D+00 EUMP2 =    -0.41495787353410D+01

 The electronic state is 1-AG.
 Alpha  occ. eigenvalues --   -0.78106  -0.67642  -0.52954  -0.17108
 Alpha virt. eigenvalues --   -0.04705   0.19767   0.36422   0.56476

 Mulliken charges:
               1
     1  H    0.042774
     2  H   -0.122793
     3  H    0.025566
     4  H    0.054453
     5  H    0.054453
     6  H    0.025566
     7  H   -0.122793
     8  H    0.042774
 Sum of Mulliken charges =  -0.00000

 Dipole moment (field-independent basis, Debye):
    X=             -0.0000    Y=              0.0000    Z=              0.0000  Tot=              0.0000
 Quadrupole moment (field-independent basis, Debye-Ang):
   XX=            -22.8239   YY=             -9.2022   ZZ=            -10.4443
   XY=             -1.5810   XZ=              0.0000   YZ=              0.0000

 Normal termination of Gaussian 09 at Thu Feb  9 15:22:40 2017.
