 Gaussian 09, Revision E.01,
 Gaussian 09:  ES64L-G09RevE.01 30-Nov-2015

 ----------------------------------------------------------------------
 #rhf/gen scf(symm,tight,novaracc,noincfock,fulldiag) stable(crhf) geom
 =nocrowd test
 ----------------------------------------------------------------------

 hf stability analysis of h10 triangular lattice, y= 0.2830441175694956
 0
 ----------------------------------------------------------------------
 Symbolic Z-matrix:
 Charge =  0 Multiplicity = 1

                         Standard orientation:
 ---------------------------------------------------------------------
 Center     Atomic      Atomic             Coordinates (Angstroms)
 Number     Number       Type             X           Y           Z
 ---------------------------------------------------------------------
      1          1           0        2.039789    0.566088    0.000000
      2          1           0        4.079578    0.283044    0.000000
      3          1           0       -0.000000    0.283044    0.000000
      4          1           0        2.039789    0.000000    0.000000
      5          1           0       -2.039789    0.000000   -0.000000
      6          1           0       -0.000000   -0.283044    0.000000
      7          1           0       -4.079578   -0.283044    0.000000
      8          1           0       -2.039789   -0.566088    0.000000
 ---------------------------------------------------------------------

 SCF Done:  E(RHF) =  -3.76091067090     A.U. after    6 cycles
 E2 =    -0.6244362344D+00 EUMP2 =    -0.43853469053031D+01

 The electronic state is 1-AG.
 Alpha  occ. eigenvalues --   -0.73087  -0.69355  -0.64575  -0.20740
 Alpha virt. eigenvalues --   -0.14114   0.44558   0.54552   0.66686

 Mulliken charges:
               1
     1  H    0.002479
     2  H   -0.004072
     3  H    0.000732
     4  H    0.000861
     5  H    0.000861
     6  H    0.000732
     7  H   -0.004072
     8  H    0.002479
 Sum of Mulliken charges =  -0.00000

 Dipole moment (field-independent basis, Debye):
    X=              0.0000    Y=              0.0000    Z=             -0.0000  Tot=              0.0000
 Quadrupole moment (field-independent basis, Debye-Ang):
   XX=            -13.4432   YY=             -9.8475   ZZ=            -10.6665
   XY=             -0.2121   XZ=             -0.0000   YZ=              0.0000

 Normal termination of Gaussian 09 at Thu Feb  9 15:27:25 2017.
