 Gaussian 09, Revision E.01,
 Gaussian 09:  ES64L-G09RevE.01 30-Nov-2015

 ----------------------------------------------------------------------
 #rhf/gen scf(symm,tight,novaracc,noincfock,fulldiag) stable(crhf) geom
 =nocrowd test
 ----------------------------------------------------------------------

 hf stability analysis of h10 triangular lattice, y= 0.4565393852425740
 9
 ----------------------------------------------------------------------
 Symbolic Z-matrix:
 Charge =  0 Multiplicity = 1

                         Standard orientation:
 ---------------------------------------------------------------------
 Center     Atomic      Atomic             Coordinates (Angstroms)
 Number     Number       Type             X           Y           Z
 ---------------------------------------------------------------------
      1          1           0        1.264623    0.913079    0.000000
      2          1           0        2.529246    0.456539    0.000000
      3          1           0        0.000000    0.456539    0.000000
      4          1           0        1.264623    0.000000    0.000000
      5          1           0       -1.264623    0.000000    0.000000
      6          1           0       -0.000000   -0.456539    0.000000
      7          1           0       -2.529246   -0.456539    0.000000
      8          1           0       -1.264623   -0.913079    0.000000
 ---------------------------------------------------------------------

 SCF Done:  E(RHF) =  -3.82187240396     A.U. after   11 cycles
 E2 =    -0.1079384561D+00 EUMP2 =    -0.39298108600745D+01

 The electronic state is 1-AG.
 Alpha  occ. eigenvalues --   -0.80257  -0.67329  -0.44804  -0.20046
 Alpha virt. eigenvalues --    0.07755   0.08748   0.27898   0.52201

 Mulliken charges:
               1
     1  H    0.049347
     2  H   -0.115415
     3  H   -0.114262
     4  H    0.180330
     5  H    0.180330
     6  H   -0.114262
     7  H   -0.115415
     8  H    0.049347
 Sum of Mulliken charges =  -0.00000

 Dipole moment (field-independent basis, Debye):
    X=             -0.0000    Y=             -0.0000    Z=             -0.0000  Tot=              0.0000
 Quadrupole moment (field-independent basis, Debye-Ang):
   XX=            -16.3741   YY=            -10.7973   ZZ=            -10.5200
   XY=             -0.6832   XZ=             -0.0000   YZ=             -0.0000

 Normal termination of Gaussian 09 at Thu Feb  9 15:18:31 2017.
