 Gaussian 09, Revision E.01,
 Gaussian 09:  ES64L-G09RevE.01 30-Nov-2015

 ----------------------------------------------------------------------
 #rhf/gen scf(symm,tight,novaracc,noincfock,fulldiag) stable(crhf) geom
 =nocrowd test
 ----------------------------------------------------------------------

 hf stability analysis of h10 triangular lattice, y= 0.7078128729166846
 0
 ----------------------------------------------------------------------
 Symbolic Z-matrix:
 Charge =  0 Multiplicity = 1

                         Standard orientation:
 ---------------------------------------------------------------------
 Center     Atomic      Atomic             Coordinates (Angstroms)
 Number     Number       Type             X           Y           Z
 ---------------------------------------------------------------------
      1          1           0        0.815682    1.415626    0.000000
      2          1           0        1.631364    0.707813    0.000000
      3          1           0        0.000000    0.707813    0.000000
      4          1           0        0.815682    0.000000    0.000000
      5          1           0       -0.815682    0.000000    0.000000
      6          1           0       -0.000000   -0.707813    0.000000
      7          1           0       -1.631364   -0.707813    0.000000
      8          1           0       -0.815682   -1.415626    0.000000
 ---------------------------------------------------------------------

 SCF Done:  E(RHF) =  -3.97773145808     A.U. after   10 cycles
 E2 =    -0.8210359985D-01 EUMP2 =    -0.40598350579300D+01

 The electronic state is 1-AG.
 Alpha  occ. eigenvalues --   -0.85079  -0.66516  -0.40604  -0.39773
 Alpha virt. eigenvalues --    0.04217   0.24905   0.38260   0.80995

 Mulliken charges:
               1
     1  H    0.062365
     2  H   -0.017636
     3  H   -0.089211
     4  H    0.044482
     5  H    0.044482
     6  H   -0.089211
     7  H   -0.017636
     8  H    0.062365
 Sum of Mulliken charges =  -0.00000

 Dipole moment (field-independent basis, Debye):
    X=              0.0000    Y=              0.0000    Z=              0.0000  Tot=              0.0000
 Quadrupole moment (field-independent basis, Debye-Ang):
   XX=            -11.8122   YY=            -11.2503   ZZ=            -10.4483
   XY=              0.2454   XZ=              0.0000   YZ=              0.0000

 Normal termination of Gaussian 09 at Thu Feb  9 15:02:46 2017.
