 Gaussian 09, Revision E.01,
 Gaussian 09:  ES64L-G09RevE.01 30-Nov-2015

 ----------------------------------------------------------------------
 #rhf/gen scf(symm,tight,novaracc,noincfock,fulldiag) stable(crhf) geom
 =nocrowd test
 ----------------------------------------------------------------------

 hf stability analysis of h10 triangular lattice, y= 0.7109373908642904
 2
 ----------------------------------------------------------------------
 Symbolic Z-matrix:
 Charge =  0 Multiplicity = 1

                         Standard orientation:
 ---------------------------------------------------------------------
 Center     Atomic      Atomic             Coordinates (Angstroms)
 Number     Number       Type             X           Y           Z
 ---------------------------------------------------------------------
      1          1           0        0.812097    1.421875   -0.000000
      2          1           0        1.624194    0.710937   -0.000000
      3          1           0        0.000000    0.710937   -0.000000
      4          1           0        0.812097   -0.000000   -0.000000
      5          1           0       -0.812097    0.000000    0.000000
      6          1           0       -0.000000   -0.710937    0.000000
      7          1           0       -1.624194   -0.710937    0.000000
      8          1           0       -0.812097   -1.421875    0.000000
 ---------------------------------------------------------------------

 SCF Done:  E(RHF) =  -3.97772846249     A.U. after   10 cycles
 E2 =    -0.8219467033D-01 EUMP2 =    -0.40599231328264D+01

 The electronic state is 1-AG.
 Alpha  occ. eigenvalues --   -0.85098  -0.66509  -0.40663  -0.39760
 Alpha virt. eigenvalues --    0.04178   0.25073   0.38117   0.81324

 Mulliken charges:
               1
     1  H    0.059949
     2  H   -0.015626
     3  H   -0.085116
     4  H    0.040793
     5  H    0.040793
     6  H   -0.085116
     7  H   -0.015626
     8  H    0.059949
 Sum of Mulliken charges =  -0.00000

 Dipole moment (field-independent basis, Debye):
    X=              0.0000    Y=              0.0000    Z=             -0.0000  Tot=              0.0000
 Quadrupole moment (field-independent basis, Debye-Ang):
   XX=            -11.8008   YY=            -11.2648   ZZ=            -10.4472
   XY=              0.2327   XZ=              0.0000   YZ=              0.0000

 Normal termination of Gaussian 09 at Thu Feb  9 15:02:35 2017.
