 Gaussian 09, Revision E.01,
 Gaussian 09:  ES64L-G09RevE.01 30-Nov-2015

 ----------------------------------------------------------------------
 #rhf/gen scf(symm,tight,novaracc,noincfock,fulldiag) stable(crhf) geom
 =nocrowd test
 ----------------------------------------------------------------------

 hf stability analysis of h10 triangular lattice, y= 0.6088122027973389
 4
 ----------------------------------------------------------------------
 Symbolic Z-matrix:
 Charge =  0 Multiplicity = 1

                         Standard orientation:
 ---------------------------------------------------------------------
 Center     Atomic      Atomic             Coordinates (Angstroms)
 Number     Number       Type             X           Y           Z
 ---------------------------------------------------------------------
      1          1           0        0.948322    1.217624    0.000000
      2          1           0        1.896645    0.608812    0.000000
      3          1           0        0.000000    0.608812    0.000000
      4          1           0        0.948322    0.000000    0.000000
      5          1           0       -0.948322    0.000000   -0.000000
      6          1           0       -0.000000   -0.608812    0.000000
      7          1           0       -1.896645   -0.608812   -0.000000
      8          1           0       -0.948322   -1.217624   -0.000000
 ---------------------------------------------------------------------

 SCF Done:  E(RHF) =  -3.96678927708     A.U. after   10 cycles
 E2 =    -0.7985007576D-01 EUMP2 =    -0.40466393528396D+01

 The electronic state is 1-AG.
 Alpha  occ. eigenvalues --   -0.83584  -0.66744  -0.40560  -0.36357
 Alpha virt. eigenvalues --    0.07070   0.17050   0.44598   0.61900

 Mulliken charges:
               1
     1  H    0.105710
     2  H   -0.040720
     3  H   -0.193544
     4  H    0.128554
     5  H    0.128554
     6  H   -0.193544
     7  H   -0.040720
     8  H    0.105710
 Sum of Mulliken charges =   0.00000

 Dipole moment (field-independent basis, Debye):
    X=             -0.0000    Y=              0.0000    Z=             -0.0000  Tot=              0.0000
 Quadrupole moment (field-independent basis, Debye-Ang):
   XX=            -11.2611   YY=            -11.2753   ZZ=            -10.5150
   XY=              0.9278   XZ=             -0.0000   YZ=              0.0000

 Normal termination of Gaussian 09 at Thu Feb  9 15:08:51 2017.
