 Gaussian 09, Revision E.01,
 Gaussian 09:  ES64L-G09RevE.01 30-Nov-2015

 ----------------------------------------------------------------------
 #rhf/gen scf(symm,tight,novaracc,noincfock,fulldiag) stable(crhf) geom
 =nocrowd test
 ----------------------------------------------------------------------

 hf stability analysis of h10 triangular lattice, y= 0.3994633319326828
 0
 ----------------------------------------------------------------------
 Symbolic Z-matrix:
 Charge =  0 Multiplicity = 1

                         Standard orientation:
 ---------------------------------------------------------------------
 Center     Atomic      Atomic             Coordinates (Angstroms)
 Number     Number       Type             X           Y           Z
 ---------------------------------------------------------------------
      1          1           0        1.445315    0.798927    0.000000
      2          1           0        2.890630    0.399463    0.000000
      3          1           0        0.000000    0.399463    0.000000
      4          1           0        1.445315    0.000000    0.000000
      5          1           0       -1.445315    0.000000    0.000000
      6          1           0       -0.000000   -0.399463    0.000000
      7          1           0       -2.890630   -0.399463    0.000000
      8          1           0       -1.445315   -0.798927    0.000000
 ---------------------------------------------------------------------

 SCF Done:  E(RHF) =  -3.85791184753     A.U. after   10 cycles
 E2 =    -0.2274037989D+00 EUMP2 =    -0.40853156464173D+01

 The electronic state is 1-AG.
 Alpha  occ. eigenvalues --   -0.79408  -0.67839  -0.51513  -0.16532
 Alpha virt. eigenvalues --   -0.02268   0.16222   0.33799   0.54606

 Mulliken charges:
               1
     1  H    0.052830
     2  H   -0.154409
     3  H    0.027476
     4  H    0.074102
     5  H    0.074102
     6  H    0.027476
     7  H   -0.154409
     8  H    0.052830
 Sum of Mulliken charges =  -0.00000

 Dipole moment (field-independent basis, Debye):
    X=             -0.0000    Y=             -0.0000    Z=             -0.0000  Tot=              0.0000
 Quadrupole moment (field-independent basis, Debye-Ang):
   XX=            -24.1523   YY=             -9.1886   ZZ=            -10.4288
   XY=             -1.8767   XZ=             -0.0000   YZ=             -0.0000

 Normal termination of Gaussian 09 at Thu Feb  9 15:21:49 2017.
