 Gaussian 09, Revision E.01,
 Gaussian 09:  ES64L-G09RevE.01 30-Nov-2015

 ----------------------------------------------------------------------
 #rhf/gen scf(symm,tight,novaracc,noincfock,fulldiag) stable(crhf) geom
 =nocrowd test
 ----------------------------------------------------------------------

 hf stability analysis of h10 triangular lattice, y= 0.2662511995880488
 8
 ----------------------------------------------------------------------
 Symbolic Z-matrix:
 Charge =  0 Multiplicity = 1

                         Standard orientation:
 ---------------------------------------------------------------------
 Center     Atomic      Atomic             Coordinates (Angstroms)
 Number     Number       Type             X           Y           Z
 ---------------------------------------------------------------------
      1          1           0        2.168442    0.532502   -0.000000
      2          1           0        4.336884    0.266251   -0.000000
      3          1           0        0.000000    0.266251   -0.000000
      4          1           0        2.168442    0.000000   -0.000000
      5          1           0       -2.168442    0.000000   -0.000000
      6          1           0       -0.000000   -0.266251   -0.000000
      7          1           0       -4.336884   -0.266251   -0.000000
      8          1           0       -2.168442   -0.532502   -0.000000
 ---------------------------------------------------------------------

 SCF Done:  E(RHF) =  -3.68153002240     A.U. after    6 cycles
 E2 =    -0.6785334126D+00 EUMP2 =    -0.43600634349587D+01

 The electronic state is 1-AG.
 Alpha  occ. eigenvalues --   -0.73128  -0.70284  -0.66807  -0.20953
 Alpha virt. eigenvalues --   -0.14792   0.49041   0.57795   0.68197

 Mulliken charges:
               1
     1  H    0.000986
     2  H   -0.000635
     3  H    0.000249
     4  H   -0.000601
     5  H   -0.000601
     6  H    0.000249
     7  H   -0.000635
     8  H    0.000986
 Sum of Mulliken charges =   0.00000

 Dipole moment (field-independent basis, Debye):
    X=             -0.0000    Y=             -0.0000    Z=              0.0000  Tot=              0.0000
 Quadrupole moment (field-independent basis, Debye-Ang):
   XX=            -12.6999   YY=             -9.9775   ZZ=            -10.7160
   XY=             -0.1360   XZ=             -0.0000   YZ=              0.0000

 Normal termination of Gaussian 09 at Thu Feb  9 15:28:04 2017.
