 Gaussian 09, Revision E.01,
 Gaussian 09:  ES64L-G09RevE.01 30-Nov-2015

 ----------------------------------------------------------------------
 #rhf/gen scf(symm,tight,novaracc,noincfock,fulldiag) stable(crhf) geom
 =nocrowd test
 ----------------------------------------------------------------------

 hf stability analysis of h10 triangular lattice, y= 0.3231128888021356
 2
 ----------------------------------------------------------------------
 Symbolic Z-matrix:
 Charge =  0 Multiplicity = 1

                         Standard orientation:
 ---------------------------------------------------------------------
 Center     Atomic      Atomic             Coordinates (Angstroms)
 Number     Number       Type             X           Y           Z
 ---------------------------------------------------------------------
      1          1           0        1.786838    0.646226    0.000000
      2          1           0        3.573675    0.323113    0.000000
      3          1           0       -0.000000    0.323113   -0.000000
      4          1           0        1.786838    0.000000    0.000000
      5          1           0       -1.786838    0.000000    0.000000
      6          1           0       -0.000000   -0.323113   -0.000000
      7          1           0       -3.573675   -0.323113   -0.000000
      8          1           0       -1.786838   -0.646226   -0.000000
 ---------------------------------------------------------------------

 SCF Done:  E(RHF) =  -3.86595387623     A.U. after    7 cycles
 E2 =    -0.4891296568D+00 EUMP2 =    -0.43550835330515D+01

 The electronic state is 1-AG.
 Alpha  occ. eigenvalues --   -0.73998  -0.67853  -0.59362  -0.19718
 Alpha virt. eigenvalues --   -0.11630   0.34415   0.47177   0.63144

 Mulliken charges:
               1
     1  H    0.011049
     2  H   -0.027216
     3  H    0.005086
     4  H    0.011080
     5  H    0.011080
     6  H    0.005086
     7  H   -0.027216
     8  H    0.011049
 Sum of Mulliken charges =   0.00000

 Dipole moment (field-independent basis, Debye):
    X=             -0.0000    Y=             -0.0000    Z=             -0.0000  Tot=              0.0000
 Quadrupole moment (field-independent basis, Debye-Ang):
   XX=            -16.2641   YY=             -9.5450   ZZ=            -10.5551
   XY=             -0.5454   XZ=             -0.0000   YZ=             -0.0000

 Normal termination of Gaussian 09 at Thu Feb  9 15:25:41 2017.
