 Gaussian 09, Revision E.01,
 Gaussian 09:  ES64L-G09RevE.01 30-Nov-2015

 ----------------------------------------------------------------------
 #rhf/gen scf(symm,tight,novaracc,noincfock,fulldiag) stable(crhf) geom
 =nocrowd test
 ----------------------------------------------------------------------

 hf stability analysis of h10 triangular lattice, y= 0.5493918787803220
 3
 ----------------------------------------------------------------------
 Symbolic Z-matrix:
 Charge =  0 Multiplicity = 1

                         Standard orientation:
 ---------------------------------------------------------------------
 Center     Atomic      Atomic             Coordinates (Angstroms)
 Number     Number       Type             X           Y           Z
 ---------------------------------------------------------------------
      1          1           0        1.050890    1.098784    0.000000
      2          1           0        2.101779    0.549392    0.000000
      3          1           0        0.000000    0.549392    0.000000
      4          1           0        1.050890    0.000000    0.000000
      5          1           0       -1.050890    0.000000   -0.000000
      6          1           0       -0.000000   -0.549392    0.000000
      7          1           0       -2.101779   -0.549392   -0.000000
      8          1           0       -1.050890   -1.098784    0.000000
 ---------------------------------------------------------------------

 SCF Done:  E(RHF) =  -3.93021886961     A.U. after    9 cycles
 E2 =    -0.8298271875D-01 EUMP2 =    -0.40132015883636D+01

 The electronic state is 1-AG.
 Alpha  occ. eigenvalues --   -0.81703  -0.66640  -0.41239  -0.31207
 Alpha virt. eigenvalues --    0.10261   0.11314   0.46134   0.49046

 Mulliken charges:
               1
     1  H    0.086093
     2  H   -0.016131
     3  H   -0.222466
     4  H    0.152504
     5  H    0.152504
     6  H   -0.222466
     7  H   -0.016131
     8  H    0.086093
 Sum of Mulliken charges =  -0.00000

 Dipole moment (field-independent basis, Debye):
    X=              0.0000    Y=             -0.0000    Z=             -0.0000  Tot=              0.0000
 Quadrupole moment (field-independent basis, Debye-Ang):
   XX=             -9.7259   YY=            -11.7552   ZZ=            -10.5722
   XY=              1.3078   XZ=              0.0000   YZ=              0.0000

 Normal termination of Gaussian 09 at Thu Feb  9 15:12:41 2017.
