 Gaussian 09, Revision E.01,
 Gaussian 09:  ES64L-G09RevE.01 30-Nov-2015

 ----------------------------------------------------------------------
 #rhf/gen scf(symm,tight,novaracc,noincfock,fulldiag) stable(crhf) geom
 =nocrowd test
 ----------------------------------------------------------------------

 hf stability analysis of h10 triangular lattice, y= 0.6825415422818821
 3
 ----------------------------------------------------------------------
 Symbolic Z-matrix:
 Charge =  0 Multiplicity = 1

                         Standard orientation:
 ---------------------------------------------------------------------
 Center     Atomic      Atomic             Coordinates (Angstroms)
 Number     Number       Type             X           Y           Z
 ---------------------------------------------------------------------
      1          1           0        0.845883    1.365083    0.000000
      2          1           0        1.691766    0.682542   -0.000000
      3          1           0        0.000000    0.682542    0.000000
      4          1           0        0.845883    0.000000   -0.000000
      5          1           0       -0.845883    0.000000    0.000000
      6          1           0       -0.000000   -0.682542    0.000000
      7          1           0       -1.691766   -0.682542    0.000000
      8          1           0       -0.845883   -1.365083    0.000000
 ---------------------------------------------------------------------

 SCF Done:  E(RHF) =  -3.97746920924     A.U. after   10 cycles
 E2 =    -0.8126735110D-01 EUMP2 =    -0.40587365603428D+01

 The electronic state is 1-AG.
 Alpha  occ. eigenvalues --   -0.84867  -0.66580  -0.39974  -0.39906
 Alpha virt. eigenvalues --    0.04642   0.23301   0.39606   0.77613

 Mulliken charges:
               1
     1  H    0.080412
     2  H   -0.031597
     3  H   -0.121246
     4  H    0.072431
     5  H    0.072431
     6  H   -0.121246
     7  H   -0.031597
     8  H    0.080412
 Sum of Mulliken charges =  -0.00000

 Dipole moment (field-independent basis, Debye):
    X=              0.0000    Y=              0.0000    Z=              0.0000  Tot=              0.0000
 Quadrupole moment (field-independent basis, Debye-Ang):
   XX=            -11.8611   YY=            -11.1596   ZZ=            -10.4597
   XY=              0.3746   XZ=              0.0000   YZ=              0.0000

 Normal termination of Gaussian 09 at Thu Feb  9 15:04:12 2017.
