 Gaussian 09, Revision E.01,
 Gaussian 09:  ES64L-G09RevE.01 30-Nov-2015

 ----------------------------------------------------------------------
 #rhf/gen scf(symm,tight,novaracc,noincfock,fulldiag) stable(crhf) geom
 =nocrowd test
 ----------------------------------------------------------------------

 hf stability analysis of h10 triangular lattice, y= 0.4956465381435082
 9
 ----------------------------------------------------------------------
 Symbolic Z-matrix:
 Charge =  0 Multiplicity = 1

                         Standard orientation:
 ---------------------------------------------------------------------
 Center     Atomic      Atomic             Coordinates (Angstroms)
 Number     Number       Type             X           Y           Z
 ---------------------------------------------------------------------
      1          1           0        1.164843    0.991293   -0.000000
      2          1           0        2.329685    0.495647   -0.000000
      3          1           0        0.000000    0.495647   -0.000000
      4          1           0        1.164843    0.000000   -0.000000
      5          1           0       -1.164843    0.000000   -0.000000
      6          1           0       -0.000000   -0.495647   -0.000000
      7          1           0       -2.329685   -0.495647   -0.000000
      8          1           0       -1.164843   -0.991293   -0.000000
 ---------------------------------------------------------------------

 SCF Done:  E(RHF) =  -3.86338867329     A.U. after   10 cycles
 E2 =    -0.9293809982D-01 EUMP2 =    -0.39563267731098D+01

 The electronic state is 1-AG.
 Alpha  occ. eigenvalues --   -0.79974  -0.66575  -0.42219  -0.25016
 Alpha virt. eigenvalues --    0.07142   0.12638   0.32475   0.52246

 Mulliken charges:
               1
     1  H    0.045884
     2  H   -0.019632
     3  H   -0.211419
     4  H    0.185167
     5  H    0.185167
     6  H   -0.211419
     7  H   -0.019632
     8  H    0.045884
 Sum of Mulliken charges =   0.00000

 Dipole moment (field-independent basis, Debye):
    X=              0.0000    Y=              0.0000    Z=             -0.0000  Tot=              0.0000
 Quadrupole moment (field-independent basis, Debye-Ang):
   XX=             -9.6210   YY=            -11.9717   ZZ=            -10.5953
   XY=              0.9179   XZ=              0.0000   YZ=             -0.0000

 Normal termination of Gaussian 09 at Thu Feb  9 15:16:06 2017.
