 Gaussian 09, Revision E.01,
 Gaussian 09:  ES64L-G09RevE.01 30-Nov-2015

 ----------------------------------------------------------------------
 #rhf/gen scf(symm,tight,novaracc,noincfock,fulldiag) stable(crhf) geom
 =nocrowd test
 ----------------------------------------------------------------------

 hf stability analysis of h10 triangular lattice, y= 0.6667980048883402
 9
 ----------------------------------------------------------------------
 Symbolic Z-matrix:
 Charge =  0 Multiplicity = 1

                         Standard orientation:
 ---------------------------------------------------------------------
 Center     Atomic      Atomic             Coordinates (Angstroms)
 Number     Number       Type             X           Y           Z
 ---------------------------------------------------------------------
      1          1           0        0.865855    1.333596    0.000000
      2          1           0        1.731710    0.666798   -0.000000
      3          1           0        0.000000    0.666798    0.000000
      4          1           0        0.865855    0.000000   -0.000000
      5          1           0       -0.865855    0.000000   -0.000000
      6          1           0       -0.000000   -0.666798    0.000000
      7          1           0       -1.731710   -0.666798   -0.000000
      8          1           0       -0.865855   -1.333596   -0.000000
 ---------------------------------------------------------------------

 SCF Done:  E(RHF) =  -3.97683428171     A.U. after   10 cycles
 E2 =    -0.8073010089D-01 EUMP2 =    -0.40575643825958D+01

 The electronic state is 1-AG.
 Alpha  occ. eigenvalues --   -0.84682  -0.66625  -0.40016  -0.39435
 Alpha virt. eigenvalues --    0.05007   0.22124   0.40572   0.74903

 Mulliken charges:
               1
     1  H    0.089784
     2  H   -0.037814
     3  H   -0.139763
     4  H    0.087793
     5  H    0.087793
     6  H   -0.139763
     7  H   -0.037814
     8  H    0.089784
 Sum of Mulliken charges =  -0.00000

 Dipole moment (field-independent basis, Debye):
    X=              0.0000    Y=             -0.0000    Z=             -0.0000  Tot=              0.0000
 Quadrupole moment (field-independent basis, Debye-Ang):
   XX=            -11.8403   YY=            -11.1330   ZZ=            -10.4689
   XY=              0.4763   XZ=             -0.0000   YZ=              0.0000

 Normal termination of Gaussian 09 at Thu Feb  9 15:05:10 2017.
