 Gaussian 09, Revision E.01,
 Gaussian 09:  ES64L-G09RevE.01 30-Nov-2015

 ----------------------------------------------------------------------
 #rhf/gen scf(symm,tight,novaracc,noincfock,fulldiag) stable(crhf) geom
 =nocrowd test
 ----------------------------------------------------------------------

 hf stability analysis of h10 triangular lattice, y= 0.2681655823086660
 5
 ----------------------------------------------------------------------
 Symbolic Z-matrix:
 Charge =  0 Multiplicity = 1

                         Standard orientation:
 ---------------------------------------------------------------------
 Center     Atomic      Atomic             Coordinates (Angstroms)
 Number     Number       Type             X           Y           Z
 ---------------------------------------------------------------------
      1          1           0        2.152962    0.536331    0.000000
      2          1           0        4.305924    0.268166    0.000000
      3          1           0        0.000000    0.268166   -0.000000
      4          1           0        2.152962    0.000000    0.000000
      5          1           0       -2.152962    0.000000   -0.000000
      6          1           0       -0.000000   -0.268166    0.000000
      7          1           0       -4.305924   -0.268166   -0.000000
      8          1           0       -2.152962   -0.536331   -0.000000
 ---------------------------------------------------------------------

 SCF Done:  E(RHF) =  -3.69182656894     A.U. after    6 cycles
 E2 =    -0.6723327161D+00 EUMP2 =    -0.43641592850047D+01

 The electronic state is 1-AG.
 Alpha  occ. eigenvalues --   -0.73111  -0.70171  -0.66554  -0.20935
 Alpha virt. eigenvalues --   -0.14723   0.48521   0.57418   0.68018

 Mulliken charges:
               1
     1  H    0.001115
     2  H   -0.000909
     3  H    0.000285
     4  H   -0.000490
     5  H   -0.000490
     6  H    0.000285
     7  H   -0.000909
     8  H    0.001115
 Sum of Mulliken charges =   0.00000

 Dipole moment (field-independent basis, Debye):
    X=             -0.0000    Y=              0.0000    Z=              0.0000  Tot=              0.0000
 Quadrupole moment (field-independent basis, Debye-Ang):
   XX=            -12.7742   YY=             -9.9628   ZZ=            -10.7104
   XY=             -0.1433   XZ=             -0.0000   YZ=             -0.0000

 Normal termination of Gaussian 09 at Thu Feb  9 15:28:00 2017.
