 Gaussian 09, Revision E.01,
 Gaussian 09:  ES64L-G09RevE.01 30-Nov-2015

 ----------------------------------------------------------------------
 #rhf/gen scf(symm,tight,novaracc,noincfock,fulldiag) stable(crhf) geom
 =nocrowd test
 ----------------------------------------------------------------------

 hf stability analysis of h10 triangular lattice, y= 0.2803104089832951
 2
 ----------------------------------------------------------------------
 Symbolic Z-matrix:
 Charge =  0 Multiplicity = 1

                         Standard orientation:
 ---------------------------------------------------------------------
 Center     Atomic      Atomic             Coordinates (Angstroms)
 Number     Number       Type             X           Y           Z
 ---------------------------------------------------------------------
      1          1           0        2.059682    0.560621    0.000000
      2          1           0        4.119364    0.280310    0.000000
      3          1           0        0.000000    0.280310    0.000000
      4          1           0        2.059682    0.000000    0.000000
      5          1           0       -2.059682    0.000000   -0.000000
      6          1           0       -0.000000   -0.280310    0.000000
      7          1           0       -4.119364   -0.280310   -0.000000
      8          1           0       -2.059682   -0.560621   -0.000000
 ---------------------------------------------------------------------

 SCF Done:  E(RHF) =  -3.74960848197     A.U. after    6 cycles
 E2 =    -0.6332397664D+00 EUMP2 =    -0.43828482483876D+01

 The electronic state is 1-AG.
 Alpha  occ. eigenvalues --   -0.73078  -0.69496  -0.64940  -0.20783
 Alpha virt. eigenvalues --   -0.14236   0.45276   0.55071   0.66925

 Mulliken charges:
               1
     1  H    0.002174
     2  H   -0.003335
     3  H    0.000623
     4  H    0.000539
     5  H    0.000539
     6  H    0.000623
     7  H   -0.003335
     8  H    0.002174
 Sum of Mulliken charges =   0.00000

 Dipole moment (field-independent basis, Debye):
    X=             -0.0000    Y=              0.0000    Z=              0.0000  Tot=              0.0000
 Quadrupole moment (field-independent basis, Debye-Ang):
   XX=            -13.3073   YY=             -9.8687   ZZ=            -10.6746
   XY=             -0.1977   XZ=             -0.0000   YZ=              0.0000

 Normal termination of Gaussian 09 at Thu Feb  9 15:27:32 2017.
