 Gaussian 09, Revision E.01,
 Gaussian 09:  ES64L-G09RevE.01 30-Nov-2015

 ----------------------------------------------------------------------
 #rhf/gen scf(symm,tight,novaracc,noincfock,fulldiag) stable(crhf) geom
 =nocrowd test
 ----------------------------------------------------------------------

 hf stability analysis of h10 triangular lattice, y= 0.5942289519578017
 9
 ----------------------------------------------------------------------
 Symbolic Z-matrix:
 Charge =  0 Multiplicity = 1

                         Standard orientation:
 ---------------------------------------------------------------------
 Center     Atomic      Atomic             Coordinates (Angstroms)
 Number     Number       Type             X           Y           Z
 ---------------------------------------------------------------------
      1          1           0        0.971596    1.188458   -0.000000
      2          1           0        1.943191    0.594229    0.000000
      3          1           0        0.000000    0.594229   -0.000000
      4          1           0        0.971596    0.000000    0.000000
      5          1           0       -0.971596    0.000000    0.000000
      6          1           0       -0.000000   -0.594229   -0.000000
      7          1           0       -1.943191   -0.594229    0.000000
      8          1           0       -0.971596   -1.188458    0.000000
 ---------------------------------------------------------------------

 SCF Done:  E(RHF) =  -3.96103720370     A.U. after    9 cycles
 E2 =    -0.8014146167D-01 EUMP2 =    -0.40411786653720D+01

 The electronic state is 1-AG.
 Alpha  occ. eigenvalues --   -0.83192  -0.66745  -0.40720  -0.35287
 Alpha virt. eigenvalues --    0.07769   0.15659   0.45680   0.58135

 Mulliken charges:
               1
     1  H    0.104322
     2  H   -0.036549
     3  H   -0.203057
     4  H    0.135284
     5  H    0.135284
     6  H   -0.203057
     7  H   -0.036549
     8  H    0.104322
 Sum of Mulliken charges =  -0.00000

 Dipole moment (field-independent basis, Debye):
    X=             -0.0000    Y=              0.0000    Z=              0.0000  Tot=              0.0000
 Quadrupole moment (field-independent basis, Debye-Ang):
   XX=            -10.9656   YY=            -11.3693   ZZ=            -10.5288
   XY=              1.0422   XZ=             -0.0000   YZ=              0.0000

 Normal termination of Gaussian 09 at Thu Feb  9 15:09:47 2017.
