 Gaussian 09, Revision E.01,
 Gaussian 09:  ES64L-G09RevE.01 30-Nov-2015

 ----------------------------------------------------------------------
 #rhf/gen scf(symm,tight,novaracc,noincfock,fulldiag) stable(crhf) geom
 =nocrowd test
 ----------------------------------------------------------------------

 hf stability analysis of h10 triangular lattice, y= 0.5628012212403139
 5
 ----------------------------------------------------------------------
 Symbolic Z-matrix:
 Charge =  0 Multiplicity = 1

                         Standard orientation:
 ---------------------------------------------------------------------
 Center     Atomic      Atomic             Coordinates (Angstroms)
 Number     Number       Type             X           Y           Z
 ---------------------------------------------------------------------
      1          1           0        1.025851    1.125602   -0.000000
      2          1           0        2.051702    0.562801   -0.000000
      3          1           0        0.000000    0.562801   -0.000000
      4          1           0        1.025851    0.000000    0.000000
      5          1           0       -1.025851    0.000000   -0.000000
      6          1           0       -0.000000   -0.562801   -0.000000
      7          1           0       -2.051702   -0.562801   -0.000000
      8          1           0       -1.025851   -1.125602   -0.000000
 ---------------------------------------------------------------------

 SCF Done:  E(RHF) =  -3.94180798428     A.U. after   10 cycles
 E2 =    -0.8178133297D-01 EUMP2 =    -0.40235893172468D+01

 The electronic state is 1-AG.
 Alpha  occ. eigenvalues --   -0.82187  -0.66687  -0.41080  -0.32551
 Alpha virt. eigenvalues --    0.09478   0.12605   0.48045   0.49745

 Mulliken charges:
               1
     1  H    0.093687
     2  H   -0.022806
     3  H   -0.218220
     4  H    0.147339
     5  H    0.147339
     6  H   -0.218220
     7  H   -0.022806
     8  H    0.093687
 Sum of Mulliken charges =  -0.00000

 Dipole moment (field-independent basis, Debye):
    X=              0.0000    Y=             -0.0000    Z=             -0.0000  Tot=              0.0000
 Quadrupole moment (field-independent basis, Debye-Ang):
   XX=            -10.1315   YY=            -11.6304   ZZ=            -10.5594
   XY=              1.2505   XZ=             -0.0000   YZ=              0.0000

 Normal termination of Gaussian 09 at Thu Feb  9 15:11:49 2017.
