 Gaussian 09, Revision E.01,
 Gaussian 09:  ES64L-G09RevE.01 30-Nov-2015

 ----------------------------------------------------------------------
 #rhf/gen scf(symm,tight,novaracc,noincfock,fulldiag) stable(crhf) geom
 =nocrowd test
 ----------------------------------------------------------------------

 hf stability analysis of h10 triangular lattice, y= 0.7440826740526687
 0
 ----------------------------------------------------------------------
 Symbolic Z-matrix:
 Charge =  0 Multiplicity = 1

                         Standard orientation:
 ---------------------------------------------------------------------
 Center     Atomic      Atomic             Coordinates (Angstroms)
 Number     Number       Type             X           Y           Z
 ---------------------------------------------------------------------
      1          1           0        0.775922    1.488165    0.000000
      2          1           0        1.551844    0.744083    0.000000
      3          1           0        0.000000    0.744083    0.000000
      4          1           0        0.775922    0.000000    0.000000
      5          1           0       -0.775922    0.000000   -0.000000
      6          1           0       -0.000000   -0.744083    0.000000
      7          1           0       -1.551844   -0.744083   -0.000000
      8          1           0       -0.775922   -1.488165   -0.000000
 ---------------------------------------------------------------------

 SCF Done:  E(RHF) =  -3.97758688377     A.U. after    9 cycles
 E2 =    -0.8285542882D-01 EUMP2 =    -0.40604423125973D+01

 The electronic state is 1-AG.
 Alpha  occ. eigenvalues --   -0.85226  -0.66462  -0.41052  -0.39674
 Alpha virt. eigenvalues --    0.03917   0.26292   0.37064   0.83549

 Mulliken charges:
               1
     1  H    0.033253
     2  H    0.008296
     3  H   -0.041156
     4  H   -0.000393
     5  H   -0.000393
     6  H   -0.041156
     7  H    0.008296
     8  H    0.033253
 Sum of Mulliken charges =  -0.00000

 Dipole moment (field-independent basis, Debye):
    X=              0.0000    Y=             -0.0000    Z=              0.0000  Tot=              0.0000
 Quadrupole moment (field-independent basis, Debye-Ang):
   XX=            -11.6350   YY=            -11.4474   ZZ=            -10.4398
   XY=              0.1463   XZ=             -0.0000   YZ=              0.0000

 Normal termination of Gaussian 09 at Thu Feb  9 15:00:39 2017.
