 Gaussian 09, Revision E.01,
 Gaussian 09:  ES64L-G09RevE.01 30-Nov-2015

 ----------------------------------------------------------------------
 #rhf/gen scf(symm,tight,novaracc,noincfock,fulldiag) stable(crhf) geom
 =nocrowd test
 ----------------------------------------------------------------------

 hf stability analysis of h10 triangular lattice, y= 0.7408396028061298
 2
 ----------------------------------------------------------------------
 Symbolic Z-matrix:
 Charge =  0 Multiplicity = 1

                         Standard orientation:
 ---------------------------------------------------------------------
 Center     Atomic      Atomic             Coordinates (Angstroms)
 Number     Number       Type             X           Y           Z
 ---------------------------------------------------------------------
      1          1           0        0.779319    1.481679    0.000000
      2          1           0        1.558638    0.740840   -0.000000
      3          1           0        0.000000    0.740840    0.000000
      4          1           0        0.779319    0.000000   -0.000000
      5          1           0       -0.779319    0.000000    0.000000
      6          1           0       -0.000000   -0.740840    0.000000
      7          1           0       -1.558638   -0.740840    0.000000
      8          1           0       -0.779319   -1.481679    0.000000
 ---------------------------------------------------------------------

 SCF Done:  E(RHF) =  -3.97759923155     A.U. after    9 cycles
 E2 =    -0.8281926160D-01 EUMP2 =    -0.40604184931539D+01

 The electronic state is 1-AG.
 Alpha  occ. eigenvalues --   -0.85220  -0.66465  -0.41033  -0.39679
 Alpha virt. eigenvalues --    0.03931   0.26224   0.37123   0.83434

 Mulliken charges:
               1
     1  H    0.035891
     2  H    0.005803
     3  H   -0.045443
     4  H    0.003749
     5  H    0.003749
     6  H   -0.045443
     7  H    0.005803
     8  H    0.035891
 Sum of Mulliken charges =   0.00000

 Dipole moment (field-independent basis, Debye):
    X=             -0.0000    Y=             -0.0000    Z=              0.0000  Tot=              0.0000
 Quadrupole moment (field-independent basis, Debye-Ang):
   XX=            -11.6536   YY=            -11.4281   ZZ=            -10.4401
   XY=              0.1508   XZ=              0.0000   YZ=             -0.0000

 Normal termination of Gaussian 09 at Thu Feb  9 15:00:50 2017.
