 Gaussian 09, Revision E.01,
 Gaussian 09:  ES64L-G09RevE.01 30-Nov-2015

 ----------------------------------------------------------------------
 #rhf/gen scf(symm,tight,novaracc,noincfock,fulldiag) stable(crhf) geom
 =nocrowd test
 ----------------------------------------------------------------------

 hf stability analysis of h10 triangular lattice, y= 0.6625913996779515
 5
 ----------------------------------------------------------------------
 Symbolic Z-matrix:
 Charge =  0 Multiplicity = 1

                         Standard orientation:
 ---------------------------------------------------------------------
 Center     Atomic      Atomic             Coordinates (Angstroms)
 Number     Number       Type             X           Y           Z
 ---------------------------------------------------------------------
      1          1           0        0.871352    1.325183    0.000000
      2          1           0        1.742704    0.662591   -0.000000
      3          1           0        0.000000    0.662591    0.000000
      4          1           0        0.871352    0.000000   -0.000000
      5          1           0       -0.871352    0.000000    0.000000
      6          1           0       -0.000000   -0.662591    0.000000
      7          1           0       -1.742704   -0.662591    0.000000
      8          1           0       -0.871352   -1.325183    0.000000
 ---------------------------------------------------------------------

 SCF Done:  E(RHF) =  -3.97656874863     A.U. after   10 cycles
 E2 =    -0.8059521239D-01 EUMP2 =    -0.40571639610195D+01

 The electronic state is 1-AG.
 Alpha  occ. eigenvalues --   -0.84625  -0.66637  -0.40048  -0.39271
 Alpha virt. eigenvalues --    0.05118   0.21791   0.40842   0.74108

 Mulliken charges:
               1
     1  H    0.091980
     2  H   -0.039107
     3  H   -0.144468
     4  H    0.091595
     5  H    0.091595
     6  H   -0.144468
     7  H   -0.039107
     8  H    0.091980
 Sum of Mulliken charges =  -0.00000

 Dipole moment (field-independent basis, Debye):
    X=             -0.0000    Y=              0.0000    Z=              0.0000  Tot=              0.0000
 Quadrupole moment (field-independent basis, Debye-Ang):
   XX=            -11.8265   YY=            -11.1303   ZZ=            -10.4717
   XY=              0.5057   XZ=              0.0000   YZ=             -0.0000

 Normal termination of Gaussian 09 at Thu Feb  9 15:05:26 2017.
