 Gaussian 09, Revision E.01,
 Gaussian 09:  ES64L-G09RevE.01 30-Nov-2015

 ----------------------------------------------------------------------
 #rhf/gen scf(symm,tight,novaracc,noincfock,fulldiag) stable(crhf) geom
 =nocrowd test
 ----------------------------------------------------------------------

 hf stability analysis of h10 triangular lattice, y= 0.7382543110874336
 7
 ----------------------------------------------------------------------
 Symbolic Z-matrix:
 Charge =  0 Multiplicity = 1

                         Standard orientation:
 ---------------------------------------------------------------------
 Center     Atomic      Atomic             Coordinates (Angstroms)
 Number     Number       Type             X           Y           Z
 ---------------------------------------------------------------------
      1          1           0        0.782048    1.476509   -0.000000
      2          1           0        1.564096    0.738254   -0.000000
      3          1           0        0.000000    0.738254   -0.000000
      4          1           0        0.782048    0.000000   -0.000000
      5          1           0       -0.782048    0.000000   -0.000000
      6          1           0       -0.000000   -0.738254   -0.000000
      7          1           0       -1.564096   -0.738254   -0.000000
      8          1           0       -0.782048   -1.476509   -0.000000
 ---------------------------------------------------------------------

 SCF Done:  E(RHF) =  -3.97761028652     A.U. after    9 cycles
 E2 =    -0.8278566351D-01 EUMP2 =    -0.40603959500276D+01

 The electronic state is 1-AG.
 Alpha  occ. eigenvalues --   -0.85214  -0.66467  -0.41014  -0.39683
 Alpha virt. eigenvalues --    0.03943   0.26162   0.37178   0.83326

 Mulliken charges:
               1
     1  H    0.037997
     2  H    0.003832
     3  H   -0.048870
     4  H    0.007041
     5  H    0.007041
     6  H   -0.048870
     7  H    0.003832
     8  H    0.037997
 Sum of Mulliken charges =  -0.00000

 Dipole moment (field-independent basis, Debye):
    X=             -0.0000    Y=             -0.0000    Z=             -0.0000  Tot=              0.0000
 Quadrupole moment (field-independent basis, Debye-Ang):
   XX=            -11.6682   YY=            -11.4128   ZZ=            -10.4405
   XY=              0.1550   XZ=             -0.0000   YZ=             -0.0000

 Normal termination of Gaussian 09 at Thu Feb  9 15:00:59 2017.
