 Gaussian 09, Revision E.01,
 Gaussian 09:  ES64L-G09RevE.01 30-Nov-2015

 ----------------------------------------------------------------------
 #rhf/gen scf(symm,tight,novaracc,noincfock,fulldiag) stable(crhf) geom
 =nocrowd test
 ----------------------------------------------------------------------

 hf stability analysis of h10 triangular lattice, y= 0.6435097221535421
 9
 ----------------------------------------------------------------------
 Symbolic Z-matrix:
 Charge =  0 Multiplicity = 1

                         Standard orientation:
 ---------------------------------------------------------------------
 Center     Atomic      Atomic             Coordinates (Angstroms)
 Number     Number       Type             X           Y           Z
 ---------------------------------------------------------------------
      1          1           0        0.897190    1.287019    0.000000
      2          1           0        1.794379    0.643510    0.000000
      3          1           0        0.000000    0.643510    0.000000
      4          1           0        0.897190    0.000000    0.000000
      5          1           0       -0.897190    0.000000    0.000000
      6          1           0       -0.000000   -0.643510   -0.000000
      7          1           0       -1.794379   -0.643510   -0.000000
      8          1           0       -0.897190   -1.287019   -0.000000
 ---------------------------------------------------------------------

 SCF Done:  E(RHF) =  -3.97466165062     A.U. after   10 cycles
 E2 =    -0.8008053665D-01 EUMP2 =    -0.40547421872676D+01

 The electronic state is 1-AG.
 Alpha  occ. eigenvalues --   -0.84325  -0.66688  -0.40211  -0.38414
 Alpha virt. eigenvalues --    0.05696   0.20201   0.42120   0.70168

 Mulliken charges:
               1
     1  H    0.100055
     2  H   -0.042880
     3  H   -0.164334
     4  H    0.107160
     5  H    0.107160
     6  H   -0.164334
     7  H   -0.042880
     8  H    0.100055
 Sum of Mulliken charges =  -0.00000

 Dipole moment (field-independent basis, Debye):
    X=              0.0000    Y=              0.0000    Z=              0.0000  Tot=              0.0000
 Quadrupole moment (field-independent basis, Debye-Ang):
   XX=            -11.7135   YY=            -11.1435   ZZ=            -10.4854
   XY=              0.6486   XZ=              0.0000   YZ=             -0.0000

 Normal termination of Gaussian 09 at Thu Feb  9 15:06:38 2017.
