 Gaussian 09, Revision E.01,
 Gaussian 09:  ES64L-G09RevE.01 30-Nov-2015

 ----------------------------------------------------------------------
 #rhf/gen scf(symm,tight,novaracc,noincfock,fulldiag) stable(crhf) geom
 =nocrowd test
 ----------------------------------------------------------------------

 hf stability analysis of h10 triangular lattice, y= 0.5283010827917987
 7
 ----------------------------------------------------------------------
 Symbolic Z-matrix:
 Charge =  0 Multiplicity = 1

                         Standard orientation:
 ---------------------------------------------------------------------
 Center     Atomic      Atomic             Coordinates (Angstroms)
 Number     Number       Type             X           Y           Z
 ---------------------------------------------------------------------
      1          1           0        1.092843    1.056602   -0.000000
      2          1           0        2.185687    0.528301   -0.000000
      3          1           0        0.000000    0.528301   -0.000000
      4          1           0        1.092843    0.000000   -0.000000
      5          1           0       -1.092843    0.000000   -0.000000
      6          1           0       -0.000000   -0.528301   -0.000000
      7          1           0       -2.185687   -0.528301   -0.000000
      8          1           0       -1.092843   -1.056602   -0.000000
 ---------------------------------------------------------------------

 SCF Done:  E(RHF) =  -3.90745742709     A.U. after   10 cycles
 E2 =    -0.8567301100D-01 EUMP2 =    -0.39931304380818D+01

 The electronic state is 1-AG.
 Alpha  occ. eigenvalues --   -0.80918  -0.66558  -0.41515  -0.28901
 Alpha virt. eigenvalues --    0.09378   0.11474   0.40525   0.50546

 Mulliken charges:
               1
     1  H    0.070923
     2  H   -0.007804
     3  H   -0.225695
     4  H    0.162576
     5  H    0.162576
     6  H   -0.225695
     7  H   -0.007804
     8  H    0.070923
 Sum of Mulliken charges =  -0.00000

 Dipole moment (field-independent basis, Debye):
    X=              0.0000    Y=              0.0000    Z=             -0.0000  Tot=              0.0000
 Quadrupole moment (field-independent basis, Debye-Ang):
   XX=             -9.1617   YY=            -11.9388   ZZ=            -10.5896
   XY=              1.3200   XZ=             -0.0000   YZ=             -0.0000

 Normal termination of Gaussian 09 at Thu Feb  9 15:14:02 2017.
