 Gaussian 09, Revision E.01,
 Gaussian 09:  ES64L-G09RevE.01 30-Nov-2015

 ----------------------------------------------------------------------
 #rhf/gen scf(symm,tight,novaracc,noincfock,fulldiag) stable(crhf) geom
 =nocrowd test
 ----------------------------------------------------------------------

 hf stability analysis of h10 triangular lattice, y= 0.4427008172522774
 5
 ----------------------------------------------------------------------
 Symbolic Z-matrix:
 Charge =  0 Multiplicity = 1

                         Standard orientation:
 ---------------------------------------------------------------------
 Center     Atomic      Atomic             Coordinates (Angstroms)
 Number     Number       Type             X           Y           Z
 ---------------------------------------------------------------------
      1          1           0        1.304155    0.885402   -0.000000
      2          1           0        2.608309    0.442701    0.000000
      3          1           0        0.000000    0.442701   -0.000000
      4          1           0        1.304155    0.000000    0.000000
      5          1           0       -1.304155    0.000000    0.000000
      6          1           0       -0.000000   -0.442701   -0.000000
      7          1           0       -2.608309   -0.442701    0.000000
      8          1           0       -1.304155   -0.885402   -0.000000
 ---------------------------------------------------------------------

 SCF Done:  E(RHF) =  -3.82012572345     A.U. after   12 cycles
 E2 =    -0.1186275611D+00 EUMP2 =    -0.39387532845699D+01

 The electronic state is 1-AG.
 Alpha  occ. eigenvalues --   -0.80609  -0.67703  -0.46457  -0.18301
 Alpha virt. eigenvalues --    0.05826   0.09032   0.28429   0.52024

 Mulliken charges:
               1
     1  H    0.057340
     2  H   -0.154130
     3  H   -0.061722
     4  H    0.158512
     5  H    0.158512
     6  H   -0.061722
     7  H   -0.154130
     8  H    0.057340
 Sum of Mulliken charges =  -0.00000

 Dipole moment (field-independent basis, Debye):
    X=             -0.0000    Y=              0.0000    Z=             -0.0000  Tot=              0.0000
 Quadrupole moment (field-independent basis, Debye-Ang):
   XX=            -19.9625   YY=            -10.1602   ZZ=            -10.4781
   XY=             -1.3536   XZ=             -0.0000   YZ=              0.0000

 Normal termination of Gaussian 09 at Thu Feb  9 15:19:21 2017.
