 Gaussian 09, Revision E.01,
 Gaussian 09:  ES64L-G09RevE.01 30-Nov-2015

 ----------------------------------------------------------------------
 #rhf/gen scf(symm,tight,novaracc,noincfock,fulldiag) stable(crhf) geom
 =nocrowd test
 ----------------------------------------------------------------------

 hf stability analysis of h10 triangular lattice, y= 0.4968465411362013
 0
 ----------------------------------------------------------------------
 Symbolic Z-matrix:
 Charge =  0 Multiplicity = 1

                         Standard orientation:
 ---------------------------------------------------------------------
 Center     Atomic      Atomic             Coordinates (Angstroms)
 Number     Number       Type             X           Y           Z
 ---------------------------------------------------------------------
      1          1           0        1.162029    0.993693   -0.000000
      2          1           0        2.324059    0.496847   -0.000000
      3          1           0        0.000000    0.496847    0.000000
      4          1           0        1.162029    0.000000   -0.000000
      5          1           0       -1.162029    0.000000   -0.000000
      6          1           0       -0.000000   -0.496847    0.000000
      7          1           0       -2.324059   -0.496847   -0.000000
      8          1           0       -1.162029   -0.993693   -0.000000
 ---------------------------------------------------------------------

 SCF Done:  E(RHF) =  -3.86507941896     A.U. after   10 cycles
 E2 =    -0.9257770086D-01 EUMP2 =    -0.39576571198167D+01

 The electronic state is 1-AG.
 Alpha  occ. eigenvalues --   -0.79994  -0.66566  -0.42180  -0.25163
 Alpha virt. eigenvalues --    0.07192   0.12635   0.32739   0.52209

 Mulliken charges:
               1
     1  H    0.046576
     2  H   -0.018162
     3  H   -0.212754
     4  H    0.184340
     5  H    0.184340
     6  H   -0.212754
     7  H   -0.018162
     8  H    0.046576
 Sum of Mulliken charges =  -0.00000

 Dipole moment (field-independent basis, Debye):
    X=              0.0000    Y=              0.0000    Z=             -0.0000  Tot=              0.0000
 Quadrupole moment (field-independent basis, Debye-Ang):
   XX=             -9.5398   YY=            -11.9830   ZZ=            -10.5960
   XY=              0.9474   XZ=             -0.0000   YZ=             -0.0000

 Normal termination of Gaussian 09 at Thu Feb  9 15:16:02 2017.
