 Gaussian 09, Revision E.01,
 Gaussian 09:  ES64L-G09RevE.01 30-Nov-2015

 ----------------------------------------------------------------------
 #rhf/gen scf(symm,tight,novaracc,noincfock,fulldiag) stable(crhf) geom
 =nocrowd test
 ----------------------------------------------------------------------

 hf stability analysis of h10 triangular lattice, y= 0.4701554321208025
 7
 ----------------------------------------------------------------------
 Symbolic Z-matrix:
 Charge =  0 Multiplicity = 1

                         Standard orientation:
 ---------------------------------------------------------------------
 Center     Atomic      Atomic             Coordinates (Angstroms)
 Number     Number       Type             X           Y           Z
 ---------------------------------------------------------------------
      1          1           0        1.227999    0.940311    0.000000
      2          1           0        2.455997    0.470155    0.000000
      3          1           0        0.000000    0.470155   -0.000000
      4          1           0        1.227999    0.000000    0.000000
      5          1           0       -1.227999    0.000000   -0.000000
      6          1           0       -0.000000   -0.470155   -0.000000
      7          1           0       -2.455997   -0.470155   -0.000000
      8          1           0       -1.227999   -0.940311   -0.000000
 ---------------------------------------------------------------------

 SCF Done:  E(RHF) =  -3.83165865225     A.U. after   10 cycles
 E2 =    -0.1020582647D+00 EUMP2 =    -0.39337169169042D+01

 The electronic state is 1-AG.
 Alpha  occ. eigenvalues --   -0.79973  -0.66972  -0.43565  -0.21829
 Alpha virt. eigenvalues --    0.07023   0.11068   0.28411   0.52425

 Mulliken charges:
               1
     1  H    0.042727
     2  H   -0.074450
     3  H   -0.159493
     4  H    0.191216
     5  H    0.191216
     6  H   -0.159493
     7  H   -0.074450
     8  H    0.042727
 Sum of Mulliken charges =  -0.00000

 Dipole moment (field-independent basis, Debye):
    X=             -0.0000    Y=              0.0000    Z=              0.0000  Tot=              0.0000
 Quadrupole moment (field-independent basis, Debye-Ang):
   XX=            -13.1852   YY=            -11.3678   ZZ=            -10.5566
   XY=             -0.0171   XZ=             -0.0000   YZ=              0.0000

 Normal termination of Gaussian 09 at Thu Feb  9 15:17:42 2017.
