 Gaussian 09, Revision E.01,
 Gaussian 09:  ES64L-G09RevE.01 30-Nov-2015

 ----------------------------------------------------------------------
 #rhf/gen scf(symm,tight,novaracc,noincfock,fulldiag) stable(crhf) geom
 =nocrowd test
 ----------------------------------------------------------------------

 hf stability analysis of h10 triangular lattice, y= 0.5575581591299673
 1
 ----------------------------------------------------------------------
 Symbolic Z-matrix:
 Charge =  0 Multiplicity = 1

                         Standard orientation:
 ---------------------------------------------------------------------
 Center     Atomic      Atomic             Coordinates (Angstroms)
 Number     Number       Type             X           Y           Z
 ---------------------------------------------------------------------
      1          1           0        1.035498    1.115116   -0.000000
      2          1           0        2.070996    0.557558    0.000000
      3          1           0        0.000000    0.557558   -0.000000
      4          1           0        1.035498    0.000000    0.000000
      5          1           0       -1.035498    0.000000   -0.000000
      6          1           0       -0.000000   -0.557558   -0.000000
      7          1           0       -2.070996   -0.557558   -0.000000
      8          1           0       -1.035498   -1.115116   -0.000000
 ---------------------------------------------------------------------

 SCF Done:  E(RHF) =  -3.93753766697     A.U. after   10 cycles
 E2 =    -0.8221065846D-01 EUMP2 =    -0.40197483254252D+01

 The electronic state is 1-AG.
 Alpha  occ. eigenvalues --   -0.82001  -0.66669  -0.41141  -0.32038
 Alpha virt. eigenvalues --    0.09782   0.12097   0.48332   0.48438

 Mulliken charges:
               1
     1  H    0.090926
     2  H   -0.020178
     3  H   -0.220048
     4  H    0.149300
     5  H    0.149300
     6  H   -0.220048
     7  H   -0.020178
     8  H    0.090926
 Sum of Mulliken charges =  -0.00000

 Dipole moment (field-independent basis, Debye):
    X=             -0.0000    Y=              0.0000    Z=             -0.0000  Tot=              0.0000
 Quadrupole moment (field-independent basis, Debye-Ang):
   XX=             -9.9737   YY=            -11.6789   ZZ=            -10.5645
   XY=              1.2761   XZ=              0.0000   YZ=              0.0000

 Normal termination of Gaussian 09 at Thu Feb  9 15:12:09 2017.
