 Gaussian 09, Revision E.01,
 Gaussian 09:  ES64L-G09RevE.01 30-Nov-2015

 ----------------------------------------------------------------------
 #rhf/gen scf(symm,tight,novaracc,noincfock,fulldiag) stable(crhf) geom
 =nocrowd test
 ----------------------------------------------------------------------

 hf stability analysis of h10 triangular lattice, y= 0.7525762555518267
 2
 ----------------------------------------------------------------------
 Symbolic Z-matrix:
 Charge =  0 Multiplicity = 1

                         Standard orientation:
 ---------------------------------------------------------------------
 Center     Atomic      Atomic             Coordinates (Angstroms)
 Number     Number       Type             X           Y           Z
 ---------------------------------------------------------------------
      1          1           0        0.767165    1.505152   -0.000000
      2          1           0        1.534330    0.752576   -0.000000
      3          1           0        0.000000    0.752576   -0.000000
      4          1           0        0.767165    0.000000   -0.000000
      5          1           0       -0.767165    0.000000   -0.000000
      6          1           0       -0.000000   -0.752576   -0.000000
      7          1           0       -1.534330   -0.752576   -0.000000
      8          1           0       -0.767165   -1.505152   -0.000000
 ---------------------------------------------------------------------

 SCF Done:  E(RHF) =  -3.97756439291     A.U. after    9 cycles
 E2 =    -0.8291817183D-01 EUMP2 =    -0.40604825647428D+01

 The electronic state is 1-AG.
 Alpha  occ. eigenvalues --   -0.85237  -0.66458  -0.41086  -0.39667
 Alpha virt. eigenvalues --    0.03895   0.26410   0.36961   0.83748

 Mulliken charges:
               1
     1  H    0.026390
     2  H    0.014907
     3  H   -0.030011
     4  H   -0.011287
     5  H   -0.011287
     6  H   -0.030011
     7  H    0.014907
     8  H    0.026390
 Sum of Mulliken charges =   0.00000

 Dipole moment (field-independent basis, Debye):
    X=              0.0000    Y=              0.0000    Z=             -0.0000  Tot=              0.0000
 Quadrupole moment (field-independent basis, Debye-Ang):
   XX=            -11.5851   YY=            -11.4984   ZZ=            -10.4391
   XY=              0.1385   XZ=             -0.0000   YZ=             -0.0000

 Normal termination of Gaussian 09 at Thu Feb  9 15:00:10 2017.
