 Gaussian 09, Revision E.01,
 Gaussian 09:  ES64L-G09RevE.01 30-Nov-2015

 ----------------------------------------------------------------------
 #rhf/gen scf(symm,tight,novaracc,noincfock,fulldiag) stable(crhf) geom
 =nocrowd test
 ----------------------------------------------------------------------

 hf stability analysis of h10 triangular lattice, y= 0.2821356060257092
 0
 ----------------------------------------------------------------------
 Symbolic Z-matrix:
 Charge =  0 Multiplicity = 1

                         Standard orientation:
 ---------------------------------------------------------------------
 Center     Atomic      Atomic             Coordinates (Angstroms)
 Number     Number       Type             X           Y           Z
 ---------------------------------------------------------------------
      1          1           0        2.046357    0.564271    0.000000
      2          1           0        4.092715    0.282136    0.000000
      3          1           0        0.000000    0.282136   -0.000000
      4          1           0        2.046357    0.000000    0.000000
      5          1           0       -2.046357    0.000000    0.000000
      6          1           0       -0.000000   -0.282136   -0.000000
      7          1           0       -4.092715   -0.282136    0.000000
      8          1           0       -2.046357   -0.564271    0.000000
 ---------------------------------------------------------------------

 SCF Done:  E(RHF) =  -3.75722102240     A.U. after    6 cycles
 E2 =    -0.6273641331D+00 EUMP2 =    -0.43845851554551D+01

 The electronic state is 1-AG.
 Alpha  occ. eigenvalues --   -0.73083  -0.69402  -0.64696  -0.20755
 Alpha virt. eigenvalues --   -0.14155   0.44796   0.54724   0.66765

 Mulliken charges:
               1
     1  H    0.002374
     2  H   -0.003818
     3  H    0.000694
     4  H    0.000750
     5  H    0.000750
     6  H    0.000694
     7  H   -0.003818
     8  H    0.002374
 Sum of Mulliken charges =  -0.00000

 Dipole moment (field-independent basis, Debye):
    X=             -0.0000    Y=              0.0000    Z=             -0.0000  Tot=              0.0000
 Quadrupole moment (field-independent basis, Debye-Ang):
   XX=            -13.3974   YY=             -9.8545   ZZ=            -10.6692
   XY=             -0.2072   XZ=             -0.0000   YZ=              0.0000

 Normal termination of Gaussian 09 at Thu Feb  9 15:27:27 2017.
