 Gaussian 09, Revision E.01,
 Gaussian 09:  ES64L-G09RevE.01 30-Nov-2015

 ----------------------------------------------------------------------
 #rhf/gen scf(symm,tight,novaracc,noincfock,fulldiag) stable(crhf) geom
 =nocrowd test
 ----------------------------------------------------------------------

 hf stability analysis of h10 triangular lattice, y= 0.3658177288610871
 5
 ----------------------------------------------------------------------
 Symbolic Z-matrix:
 Charge =  0 Multiplicity = 1

                         Standard orientation:
 ---------------------------------------------------------------------
 Center     Atomic      Atomic             Coordinates (Angstroms)
 Number     Number       Type             X           Y           Z
 ---------------------------------------------------------------------
      1          1           0        1.578246    0.731635   -0.000000
      2          1           0        3.156491    0.365818   -0.000000
      3          1           0        0.000000    0.365818   -0.000000
      4          1           0        1.578246    0.000000    0.000000
      5          1           0       -1.578246    0.000000    0.000000
      6          1           0       -0.000000   -0.365818   -0.000000
      7          1           0       -3.156491   -0.365818    0.000000
      8          1           0       -1.578246   -0.731635    0.000000
 ---------------------------------------------------------------------

 SCF Done:  E(RHF) =  -3.88424247506     A.U. after    8 cycles
 E2 =    -0.3354335219D+00 EUMP2 =    -0.42196759969583D+01

 The electronic state is 1-AG.
 Alpha  occ. eigenvalues --   -0.76641  -0.67494  -0.54632  -0.17914
 Alpha virt. eigenvalues --   -0.07157   0.23975   0.39516   0.58606

 Mulliken charges:
               1
     1  H    0.031445
     2  H   -0.087754
     3  H    0.018833
     4  H    0.037476
     5  H    0.037476
     6  H    0.018833
     7  H   -0.087754
     8  H    0.031445
 Sum of Mulliken charges =  -0.00000

 Dipole moment (field-independent basis, Debye):
    X=             -0.0000    Y=              0.0000    Z=             -0.0000  Tot=              0.0000
 Quadrupole moment (field-independent basis, Debye-Ang):
   XX=            -20.8667   YY=             -9.2765   ZZ=            -10.4691
   XY=             -1.2231   XZ=              0.0000   YZ=              0.0000

 Normal termination of Gaussian 09 at Thu Feb  9 15:23:36 2017.
