 Gaussian 09, Revision E.01,
 Gaussian 09:  ES64L-G09RevE.01 30-Nov-2015

 ----------------------------------------------------------------------
 #rhf/gen scf(symm,tight,novaracc,noincfock,fulldiag) stable(crhf) geom
 =nocrowd test
 ----------------------------------------------------------------------

 hf stability analysis of h10 triangular lattice, y= 0.5371085427920604
 4
 ----------------------------------------------------------------------
 Symbolic Z-matrix:
 Charge =  0 Multiplicity = 1

                         Standard orientation:
 ---------------------------------------------------------------------
 Center     Atomic      Atomic             Coordinates (Angstroms)
 Number     Number       Type             X           Y           Z
 ---------------------------------------------------------------------
      1          1           0        1.074923    1.074217   -0.000000
      2          1           0        2.149846    0.537109   -0.000000
      3          1           0        0.000000    0.537109    0.000000
      4          1           0        1.074923    0.000000   -0.000000
      5          1           0       -1.074923    0.000000   -0.000000
      6          1           0       -0.000000   -0.537109   -0.000000
      7          1           0       -2.149846   -0.537109   -0.000000
      8          1           0       -1.074923   -1.074217   -0.000000
 ---------------------------------------------------------------------

 SCF Done:  E(RHF) =  -3.91763704540     A.U. after   10 cycles
 E2 =    -0.8441225651D-01 EUMP2 =    -0.40020493019108D+01

 The electronic state is 1-AG.
 Alpha  occ. eigenvalues --   -0.81245  -0.66591  -0.41394  -0.29890
 Alpha virt. eigenvalues --    0.10165   0.10979   0.42850   0.49937

 Mulliken charges:
               1
     1  H    0.077681
     2  H   -0.010662
     3  H   -0.224973
     4  H    0.157954
     5  H    0.157954
     6  H   -0.224973
     7  H   -0.010662
     8  H    0.077681
 Sum of Mulliken charges =  -0.00000

 Dipole moment (field-independent basis, Debye):
    X=              0.0000    Y=              0.0000    Z=             -0.0000  Tot=              0.0000
 Quadrupole moment (field-independent basis, Debye-Ang):
   XX=             -9.3714   YY=            -11.8669   ZZ=            -10.5829
   XY=              1.3301   XZ=              0.0000   YZ=             -0.0000

 Normal termination of Gaussian 09 at Thu Feb  9 15:13:28 2017.
