 Gaussian 09, Revision E.01,
 Gaussian 09:  ES64L-G09RevE.01 30-Nov-2015

 ----------------------------------------------------------------------
 #rhf/gen scf(symm,tight,novaracc,noincfock,fulldiag) stable(crhf) geom
 =nocrowd test
 ----------------------------------------------------------------------

 hf stability analysis of h10 triangular lattice, y= 0.4369672201147746
 2
 ----------------------------------------------------------------------
 Symbolic Z-matrix:
 Charge =  0 Multiplicity = 1

                         Standard orientation:
 ---------------------------------------------------------------------
 Center     Atomic      Atomic             Coordinates (Angstroms)
 Number     Number       Type             X           Y           Z
 ---------------------------------------------------------------------
      1          1           0        1.321267    0.873934    0.000000
      2          1           0        2.642534    0.436967    0.000000
      3          1           0        0.000000    0.436967    0.000000
      4          1           0        1.321267    0.000000    0.000000
      5          1           0       -1.321267    0.000000   -0.000000
      6          1           0       -0.000000   -0.436967    0.000000
      7          1           0       -2.642534   -0.436967   -0.000000
      8          1           0       -1.321267   -0.873934   -0.000000
 ---------------------------------------------------------------------

 SCF Done:  E(RHF) =  -3.82204768163     A.U. after   12 cycles
 E2 =    -0.1266395454D+00 EUMP2 =    -0.39486872270322D+01

 The electronic state is 1-AG.
 Alpha  occ. eigenvalues --   -0.80720  -0.67832  -0.47220  -0.17671
 Alpha virt. eigenvalues --    0.04600   0.09707   0.28878   0.52037

 Mulliken charges:
               1
     1  H    0.059893
     2  H   -0.166519
     3  H   -0.040339
     4  H    0.146965
     5  H    0.146965
     6  H   -0.040339
     7  H   -0.166519
     8  H    0.059893
 Sum of Mulliken charges =   0.00000

 Dipole moment (field-independent basis, Debye):
    X=              0.0000    Y=              0.0000    Z=              0.0000  Tot=              0.0000
 Quadrupole moment (field-independent basis, Debye-Ang):
   XX=            -21.3511   YY=             -9.9142   ZZ=            -10.4619
   XY=             -1.5924   XZ=             -0.0000   YZ=             -0.0000

 Normal termination of Gaussian 09 at Thu Feb  9 15:19:41 2017.
