 Gaussian 09, Revision E.01,
 Gaussian 09:  ES64L-G09RevE.01 30-Nov-2015

 ----------------------------------------------------------------------
 #rhf/gen scf(symm,tight,novaracc,noincfock,fulldiag) stable(crhf) geom
 =nocrowd test
 ----------------------------------------------------------------------

 hf stability analysis of h10 triangular lattice, y= 0.3679895202330282
 8
 ----------------------------------------------------------------------
 Symbolic Z-matrix:
 Charge =  0 Multiplicity = 1

                         Standard orientation:
 ---------------------------------------------------------------------
 Center     Atomic      Atomic             Coordinates (Angstroms)
 Number     Number       Type             X           Y           Z
 ---------------------------------------------------------------------
      1          1           0        1.568931    0.735979    0.000000
      2          1           0        3.137863    0.367990    0.000000
      3          1           0       -0.000000    0.367990    0.000000
      4          1           0        1.568931    0.000000    0.000000
      5          1           0       -1.568931    0.000000    0.000000
      6          1           0       -0.000000   -0.367990   -0.000000
      7          1           0       -3.137863   -0.367990    0.000000
      8          1           0       -1.568931   -0.735979    0.000000
 ---------------------------------------------------------------------

 SCF Done:  E(RHF) =  -3.88336178643     A.U. after    8 cycles
 E2 =    -0.3279577508D+00 EUMP2 =    -0.42113195371791D+01

 The electronic state is 1-AG.
 Alpha  occ. eigenvalues --   -0.76813  -0.67505  -0.54420  -0.17813
 Alpha virt. eigenvalues --   -0.06876   0.23454   0.39133   0.58351

 Mulliken charges:
               1
     1  H    0.032774
     2  H   -0.091820
     3  H    0.019720
     4  H    0.039327
     5  H    0.039327
     6  H    0.019720
     7  H   -0.091820
     8  H    0.032774
 Sum of Mulliken charges =  -0.00000

 Dipole moment (field-independent basis, Debye):
    X=             -0.0000    Y=             -0.0000    Z=             -0.0000  Tot=              0.0000
 Quadrupole moment (field-independent basis, Debye-Ang):
   XX=            -21.1162   YY=             -9.2656   ZZ=            -10.4658
   XY=             -1.2656   XZ=              0.0000   YZ=              0.0000

 Normal termination of Gaussian 09 at Thu Feb  9 15:23:30 2017.
