 Gaussian 09, Revision E.01,
 Gaussian 09:  ES64L-G09RevE.01 30-Nov-2015

 ----------------------------------------------------------------------
 #rhf/gen scf(symm,tight,novaracc,noincfock,fulldiag) stable(crhf) geom
 =nocrowd test
 ----------------------------------------------------------------------

 hf stability analysis of h10 triangular lattice, y= 0.2954928447552192
 0
 ----------------------------------------------------------------------
 Symbolic Z-matrix:
 Charge =  0 Multiplicity = 1

                         Standard orientation:
 ---------------------------------------------------------------------
 Center     Atomic      Atomic             Coordinates (Angstroms)
 Number     Number       Type             X           Y           Z
 ---------------------------------------------------------------------
      1          1           0        1.953855    0.590986    0.000000
      2          1           0        3.907711    0.295493    0.000000
      3          1           0        0.000000    0.295493    0.000000
      4          1           0        1.953855    0.000000    0.000000
      5          1           0       -1.953855    0.000000   -0.000000
      6          1           0       -0.000000   -0.295493    0.000000
      7          1           0       -3.907711   -0.295493   -0.000000
      8          1           0       -1.953855   -0.590986   -0.000000
 ---------------------------------------------------------------------

 SCF Done:  E(RHF) =  -3.80510725194     A.U. after    6 cycles
 E2 =    -0.5839103519D+00 EUMP2 =    -0.43890176038684D+01

 The electronic state is 1-AG.
 Alpha  occ. eigenvalues --   -0.73210  -0.68772  -0.62917  -0.20504
 Alpha virt. eigenvalues --   -0.13490   0.41341   0.52222   0.65609

 Mulliken charges:
               1
     1  H    0.004246
     2  H   -0.008538
     3  H    0.001453
     4  H    0.002840
     5  H    0.002840
     6  H    0.001453
     7  H   -0.008538
     8  H    0.004246
 Sum of Mulliken charges =  -0.00000

 Dipole moment (field-independent basis, Debye):
    X=             -0.0000    Y=              0.0000    Z=              0.0000  Tot=              0.0000
 Quadrupole moment (field-independent basis, Debye-Ang):
   XX=            -14.1461   YY=             -9.7510   ZZ=            -10.6300
   XY=             -0.2892   XZ=             -0.0000   YZ=             -0.0000

 Normal termination of Gaussian 09 at Thu Feb  9 15:26:55 2017.
