 Gaussian 09, Revision E.01,
 Gaussian 09:  ES64L-G09RevE.01 30-Nov-2015

 ----------------------------------------------------------------------
 #rhf/gen scf(symm,tight,novaracc,noincfock,fulldiag) stable(crhf) geom
 =nocrowd test
 ----------------------------------------------------------------------

 hf stability analysis of h10 triangular lattice, y= 0.6140751347763212
 5
 ----------------------------------------------------------------------
 Symbolic Z-matrix:
 Charge =  0 Multiplicity = 1

                         Standard orientation:
 ---------------------------------------------------------------------
 Center     Atomic      Atomic             Coordinates (Angstroms)
 Number     Number       Type             X           Y           Z
 ---------------------------------------------------------------------
      1          1           0        0.940195    1.228150   -0.000000
      2          1           0        1.880390    0.614075   -0.000000
      3          1           0        0.000000    0.614075   -0.000000
      4          1           0        0.940195    0.000000    0.000000
      5          1           0       -0.940195    0.000000    0.000000
      6          1           0       -0.000000   -0.614075   -0.000000
      7          1           0       -1.880390   -0.614075   -0.000000
      8          1           0       -0.940195   -1.228150   -0.000000
 ---------------------------------------------------------------------

 SCF Done:  E(RHF) =  -3.96846034418     A.U. after   10 cycles
 E2 =    -0.7980781394D-01 EUMP2 =    -0.40482681581257D+01

 The electronic state is 1-AG.
 Alpha  occ. eigenvalues --   -0.83713  -0.66740  -0.40504  -0.36713
 Alpha virt. eigenvalues --    0.06835   0.17544   0.44212   0.63225

 Mulliken charges:
               1
     1  H    0.105654
     2  H   -0.041779
     3  H   -0.189711
     4  H    0.125835
     5  H    0.125835
     6  H   -0.189711
     7  H   -0.041779
     8  H    0.105654
 Sum of Mulliken charges =   0.00000

 Dipole moment (field-independent basis, Debye):
    X=             -0.0000    Y=             -0.0000    Z=              0.0000  Tot=              0.0000
 Quadrupole moment (field-independent basis, Debye-Ang):
   XX=            -11.3521   YY=            -11.2466   ZZ=            -10.5102
   XY=              0.8854   XZ=             -0.0000   YZ=              0.0000

 Normal termination of Gaussian 09 at Thu Feb  9 15:08:31 2017.
