 Gaussian 09, Revision E.01,
 Gaussian 09:  ES64L-G09RevE.01 30-Nov-2015

 ----------------------------------------------------------------------
 #rhf/gen scf(symm,tight,novaracc,noincfock,fulldiag) stable(crhf) geom
 =nocrowd test
 ----------------------------------------------------------------------

 hf stability analysis of h10 triangular lattice, y= 0.5294773242189838
 6
 ----------------------------------------------------------------------
 Symbolic Z-matrix:
 Charge =  0 Multiplicity = 1

                         Standard orientation:
 ---------------------------------------------------------------------
 Center     Atomic      Atomic             Coordinates (Angstroms)
 Number     Number       Type             X           Y           Z
 ---------------------------------------------------------------------
      1          1           0        1.090415    1.058955   -0.000000
      2          1           0        2.180831    0.529477   -0.000000
      3          1           0        0.000000    0.529477    0.000000
      4          1           0        1.090415    0.000000   -0.000000
      5          1           0       -1.090415    0.000000   -0.000000
      6          1           0       -0.000000   -0.529477   -0.000000
      7          1           0       -2.180831   -0.529477   -0.000000
      8          1           0       -1.090415   -1.058955   -0.000000
 ---------------------------------------------------------------------

 SCF Done:  E(RHF) =  -3.90887118198     A.U. after   10 cycles
 E2 =    -0.8549162366D-01 EUMP2 =    -0.39943628056431D+01

 The electronic state is 1-AG.
 Alpha  occ. eigenvalues --   -0.80961  -0.66562  -0.41498  -0.29035
 Alpha virt. eigenvalues --    0.09481   0.11410   0.40833   0.50467

 Mulliken charges:
               1
     1  H    0.071854
     2  H   -0.008108
     3  H   -0.225663
     4  H    0.161917
     5  H    0.161917
     6  H   -0.225663
     7  H   -0.008108
     8  H    0.071854
 Sum of Mulliken charges =  -0.00000

 Dipole moment (field-independent basis, Debye):
    X=              0.0000    Y=             -0.0000    Z=             -0.0000  Tot=              0.0000
 Quadrupole moment (field-independent basis, Debye-Ang):
   XX=             -9.1862   YY=            -11.9299   ZZ=            -10.5888
   XY=              1.3229   XZ=              0.0000   YZ=             -0.0000

 Normal termination of Gaussian 09 at Thu Feb  9 15:13:58 2017.
