 Gaussian 09, Revision E.01,
 Gaussian 09:  ES64L-G09RevE.01 30-Nov-2015

 ----------------------------------------------------------------------
 #rhf/gen scf(symm,tight,novaracc,noincfock,fulldiag) stable(crhf) geom
 =nocrowd test
 ----------------------------------------------------------------------

 hf stability analysis of h10 triangular lattice, y= 0.6788907736058349
 4
 ----------------------------------------------------------------------
 Symbolic Z-matrix:
 Charge =  0 Multiplicity = 1

                         Standard orientation:
 ---------------------------------------------------------------------
 Center     Atomic      Atomic             Coordinates (Angstroms)
 Number     Number       Type             X           Y           Z
 ---------------------------------------------------------------------
      1          1           0        0.850432    1.357782    0.000000
      2          1           0        1.700864    0.678891    0.000000
      3          1           0       -0.000000    0.678891    0.000000
      4          1           0        0.850432    0.000000    0.000000
      5          1           0       -0.850432    0.000000    0.000000
      6          1           0       -0.000000   -0.678891    0.000000
      7          1           0       -1.700864   -0.678891    0.000000
      8          1           0       -0.850432   -1.357782    0.000000
 ---------------------------------------------------------------------

 SCF Done:  E(RHF) =  -3.97736515965     A.U. after   10 cycles
 E2 =    -0.8114033373D-01 EUMP2 =    -0.40585054933716D+01

 The electronic state is 1-AG.
 Alpha  occ. eigenvalues --   -0.84828  -0.66590  -0.39930  -0.39859
 Alpha virt. eigenvalues --    0.04720   0.23038   0.39822   0.77024

 Mulliken charges:
               1
     1  H    0.082736
     2  H   -0.033225
     3  H   -0.125658
     4  H    0.076147
     5  H    0.076147
     6  H   -0.125658
     7  H   -0.033225
     8  H    0.082736
 Sum of Mulliken charges =  -0.00000

 Dipole moment (field-independent basis, Debye):
    X=             -0.0000    Y=              0.0000    Z=              0.0000  Tot=              0.0000
 Quadrupole moment (field-independent basis, Debye-Ang):
   XX=            -11.8603   YY=            -11.1512   ZZ=            -10.4617
   XY=              0.3969   XZ=              0.0000   YZ=              0.0000

 Normal termination of Gaussian 09 at Thu Feb  9 15:04:25 2017.
