 Gaussian 09, Revision E.01,
 Gaussian 09:  ES64L-G09RevE.01 30-Nov-2015

 ----------------------------------------------------------------------
 #rhf/gen scf(symm,tight,novaracc,noincfock,fulldiag) stable(crhf) geom
 =nocrowd test
 ----------------------------------------------------------------------

 hf stability analysis of h10 triangular lattice, y= 0.3357804129248861
 4
 ----------------------------------------------------------------------
 Symbolic Z-matrix:
 Charge =  0 Multiplicity = 1

                         Standard orientation:
 ---------------------------------------------------------------------
 Center     Atomic      Atomic             Coordinates (Angstroms)
 Number     Number       Type             X           Y           Z
 ---------------------------------------------------------------------
      1          1           0        1.719428    0.671561   -0.000000
      2          1           0        3.438856    0.335780   -0.000000
      3          1           0        0.000000    0.335780    0.000000
      4          1           0        1.719428    0.000000   -0.000000
      5          1           0       -1.719428    0.000000   -0.000000
      6          1           0       -0.000000   -0.335780   -0.000000
      7          1           0       -3.438856   -0.335780   -0.000000
      8          1           0       -1.719428   -0.671561   -0.000000
 ---------------------------------------------------------------------

 SCF Done:  E(RHF) =  -3.87952241023     A.U. after    8 cycles
 E2 =    -0.4433821511D+00 EUMP2 =    -0.43229045613230D+01

 The electronic state is 1-AG.
 Alpha  occ. eigenvalues --   -0.74609  -0.67617  -0.57845  -0.19242
 Alpha virt. eigenvalues --   -0.10517   0.31293   0.44889   0.61906

 Mulliken charges:
               1
     1  H    0.015819
     2  H   -0.040963
     3  H    0.008106
     4  H    0.017038
     5  H    0.017038
     6  H    0.008106
     7  H   -0.040963
     8  H    0.015819
 Sum of Mulliken charges =   0.00000

 Dipole moment (field-independent basis, Debye):
    X=              0.0000    Y=             -0.0000    Z=              0.0000  Tot=              0.0000
 Quadrupole moment (field-independent basis, Debye-Ang):
   XX=            -17.5008   YY=             -9.4573   ZZ=            -10.5256
   XY=             -0.7102   XZ=              0.0000   YZ=              0.0000

 Normal termination of Gaussian 09 at Thu Feb  9 15:25:05 2017.
