 Gaussian 09, Revision E.01,
 Gaussian 09:  ES64L-G09RevE.01 30-Nov-2015

 ----------------------------------------------------------------------
 #rhf/gen scf(symm,tight,novaracc,noincfock,fulldiag) stable(crhf) geom
 =nocrowd test
 ----------------------------------------------------------------------

 hf stability analysis of h10 triangular lattice, y= 0.6807147699477958
 9
 ----------------------------------------------------------------------
 Symbolic Z-matrix:
 Charge =  0 Multiplicity = 1

                         Standard orientation:
 ---------------------------------------------------------------------
 Center     Atomic      Atomic             Coordinates (Angstroms)
 Number     Number       Type             X           Y           Z
 ---------------------------------------------------------------------
      1          1           0        0.848153    1.361430   -0.000000
      2          1           0        1.696306    0.680715    0.000000
      3          1           0        0.000000    0.680715   -0.000000
      4          1           0        0.848153    0.000000    0.000000
      5          1           0       -0.848153    0.000000   -0.000000
      6          1           0       -0.000000   -0.680715   -0.000000
      7          1           0       -1.696306   -0.680715   -0.000000
      8          1           0       -0.848153   -1.361430   -0.000000
 ---------------------------------------------------------------------

 SCF Done:  E(RHF) =  -3.97741996454     A.U. after   10 cycles
 E2 =    -0.8120374524D-01 EUMP2 =    -0.40586237097758D+01

 The electronic state is 1-AG.
 Alpha  occ. eigenvalues --   -0.84847  -0.66585  -0.39918  -0.39917
 Alpha virt. eigenvalues --    0.04681   0.23170   0.39713   0.77321

 Mulliken charges:
               1
     1  H    0.081585
     2  H   -0.032426
     3  H   -0.123462
     4  H    0.074302
     5  H    0.074302
     6  H   -0.123462
     7  H   -0.032426
     8  H    0.081585
 Sum of Mulliken charges =   0.00000

 Dipole moment (field-independent basis, Debye):
    X=              0.0000    Y=             -0.0000    Z=             -0.0000  Tot=              0.0000
 Quadrupole moment (field-independent basis, Debye-Ang):
   XX=            -11.8610   YY=            -11.1552   ZZ=            -10.4607
   XY=              0.3857   XZ=             -0.0000   YZ=              0.0000

 Normal termination of Gaussian 09 at Thu Feb  9 15:04:18 2017.
