 Gaussian 09, Revision E.01,
 Gaussian 09:  ES64L-G09RevE.01 30-Nov-2015

 ----------------------------------------------------------------------
 #rhf/gen scf(symm,tight,novaracc,noincfock,fulldiag) stable(crhf) geom
 =nocrowd test
 ----------------------------------------------------------------------

 hf stability analysis of h10 triangular lattice, y= 0.3442571619217983
 9
 ----------------------------------------------------------------------
 Symbolic Z-matrix:
 Charge =  0 Multiplicity = 1

                         Standard orientation:
 ---------------------------------------------------------------------
 Center     Atomic      Atomic             Coordinates (Angstroms)
 Number     Number       Type             X           Y           Z
 ---------------------------------------------------------------------
      1          1           0        1.677090    0.688514    0.000000
      2          1           0        3.354180    0.344257    0.000000
      3          1           0        0.000000    0.344257    0.000000
      4          1           0        1.677090    0.000000    0.000000
      5          1           0       -1.677090    0.000000    0.000000
      6          1           0       -0.000000   -0.344257    0.000000
      7          1           0       -3.354180   -0.344257    0.000000
      8          1           0       -1.677090   -0.688514    0.000000
 ---------------------------------------------------------------------

 SCF Done:  E(RHF) =  -3.88441873315     A.U. after    8 cycles
 E2 =    -0.4124637828D+00 EUMP2 =    -0.42968825159635D+01

 The electronic state is 1-AG.
 Alpha  occ. eigenvalues --   -0.75105  -0.67524  -0.56883  -0.18890
 Alpha virt. eigenvalues --   -0.09672   0.29214   0.43363   0.61026

 Mulliken charges:
               1
     1  H    0.019639
     2  H   -0.052195
     3  H    0.010677
     4  H    0.021879
     5  H    0.021879
     6  H    0.010677
     7  H   -0.052195
     8  H    0.019639
 Sum of Mulliken charges =   0.00000

 Dipole moment (field-independent basis, Debye):
    X=              0.0000    Y=              0.0000    Z=             -0.0000  Tot=              0.0000
 Quadrupole moment (field-independent basis, Debye-Ang):
   XX=            -18.4066   YY=             -9.4018   ZZ=            -10.5077
   XY=             -0.8383   XZ=             -0.0000   YZ=             -0.0000

 Normal termination of Gaussian 09 at Thu Feb  9 15:24:40 2017.
