 Gaussian 09, Revision E.01,
 Gaussian 09:  ES64L-G09RevE.01 30-Nov-2015

 ----------------------------------------------------------------------
 #rhf/gen scf(symm,tight,novaracc,noincfock,fulldiag) stable(crhf) geom
 =nocrowd test
 ----------------------------------------------------------------------

 hf stability analysis of h10 triangular lattice, y= 0.4452350468424508
 0
 ----------------------------------------------------------------------
 Symbolic Z-matrix:
 Charge =  0 Multiplicity = 1

                         Standard orientation:
 ---------------------------------------------------------------------
 Center     Atomic      Atomic             Coordinates (Angstroms)
 Number     Number       Type             X           Y           Z
 ---------------------------------------------------------------------
      1          1           0        1.296731    0.890470   -0.000000
      2          1           0        2.593463    0.445235   -0.000000
      3          1           0        0.000000    0.445235    0.000000
      4          1           0        1.296731    0.000000   -0.000000
      5          1           0       -1.296731    0.000000    0.000000
      6          1           0       -0.000000   -0.445235   -0.000000
      7          1           0       -2.593463   -0.445235   -0.000000
      8          1           0       -1.296731   -0.890470   -0.000000
 ---------------------------------------------------------------------

 SCF Done:  E(RHF) =  -3.81976779376     A.U. after   12 cycles
 E2 =    -0.1159142143D+00 EUMP2 =    -0.39356820080711D+01

 The electronic state is 1-AG.
 Alpha  occ. eigenvalues --   -0.80549  -0.67639  -0.46131  -0.18603
 Alpha virt. eigenvalues --    0.06374   0.08760   0.28268   0.52039

 Mulliken charges:
               1
     1  H    0.056001
     2  H   -0.147776
     3  H   -0.071441
     4  H    0.163217
     5  H    0.163217
     6  H   -0.071441
     7  H   -0.147776
     8  H    0.056001
 Sum of Mulliken charges =  -0.00000

 Dipole moment (field-independent basis, Debye):
    X=             -0.0000    Y=             -0.0000    Z=              0.0000  Tot=              0.0000
 Quadrupole moment (field-independent basis, Debye-Ang):
   XX=            -19.3144   YY=            -10.2747   ZZ=            -10.4857
   XY=             -1.2379   XZ=              0.0000   YZ=              0.0000

 Normal termination of Gaussian 09 at Thu Feb  9 15:19:12 2017.
