 Gaussian 09, Revision E.01,
 Gaussian 09:  ES64L-G09RevE.01 30-Nov-2015

 ----------------------------------------------------------------------
 #rhf/gen scf(symm,tight,novaracc,noincfock,fulldiag) stable(crhf) geom
 =nocrowd test
 ----------------------------------------------------------------------

 hf stability analysis of h10 triangular lattice, y= 0.7343913021119935
 5
 ----------------------------------------------------------------------
 Symbolic Z-matrix:
 Charge =  0 Multiplicity = 1

                         Standard orientation:
 ---------------------------------------------------------------------
 Center     Atomic      Atomic             Coordinates (Angstroms)
 Number     Number       Type             X           Y           Z
 ---------------------------------------------------------------------
      1          1           0        0.786162    1.468783   -0.000000
      2          1           0        1.572323    0.734391   -0.000000
      3          1           0        0.000000    0.734391   -0.000000
      4          1           0        0.786162    0.000000   -0.000000
      5          1           0       -0.786162    0.000000    0.000000
      6          1           0       -0.000000   -0.734391    0.000000
      7          1           0       -1.572323   -0.734391    0.000000
      8          1           0       -0.786162   -1.468783    0.000000
 ---------------------------------------------------------------------

 SCF Done:  E(RHF) =  -3.97762838808     A.U. after    9 cycles
 E2 =    -0.8272770966D-01 EUMP2 =    -0.40603560977478D+01

 The electronic state is 1-AG.
 Alpha  occ. eigenvalues --   -0.85203  -0.66471  -0.40982  -0.39690
 Alpha virt. eigenvalues --    0.03964   0.26054   0.37272   0.83139

 Mulliken charges:
               1
     1  H    0.041147
     2  H    0.000918
     3  H   -0.054002
     4  H    0.011937
     5  H    0.011937
     6  H   -0.054002
     7  H    0.000918
     8  H    0.041147
 Sum of Mulliken charges =  -0.00000

 Dipole moment (field-independent basis, Debye):
    X=              0.0000    Y=              0.0000    Z=             -0.0000  Tot=              0.0000
 Quadrupole moment (field-independent basis, Debye-Ang):
   XX=            -11.6896   YY=            -11.3902   ZZ=            -10.4411
   XY=              0.1623   XZ=              0.0000   YZ=              0.0000

 Normal termination of Gaussian 09 at Thu Feb  9 15:01:13 2017.
