 Gaussian 09, Revision E.01,
 Gaussian 09:  ES64L-G09RevE.01 30-Nov-2015

 ----------------------------------------------------------------------
 #rhf/gen scf(symm,tight,novaracc,noincfock,fulldiag) stable(crhf) geom
 =nocrowd test
 ----------------------------------------------------------------------

 hf stability analysis of h10 triangular lattice, y= 0.6006400760937612
 4
 ----------------------------------------------------------------------
 Symbolic Z-matrix:
 Charge =  0 Multiplicity = 1

                         Standard orientation:
 ---------------------------------------------------------------------
 Center     Atomic      Atomic             Coordinates (Angstroms)
 Number     Number       Type             X           Y           Z
 ---------------------------------------------------------------------
      1          1           0        0.961225    1.201280    0.000000
      2          1           0        1.922450    0.600640    0.000000
      3          1           0        0.000000    0.600640   -0.000000
      4          1           0        0.961225   -0.000000    0.000000
      5          1           0       -0.961225    0.000000    0.000000
      6          1           0       -0.000000   -0.600640    0.000000
      7          1           0       -1.922450   -0.600640    0.000000
      8          1           0       -0.961225   -1.201280    0.000000
 ---------------------------------------------------------------------

 SCF Done:  E(RHF) =  -3.96378074504     A.U. after    9 cycles
 E2 =    -0.7998046946D-01 EUMP2 =    -0.40437612144934D+01

 The electronic state is 1-AG.
 Alpha  occ. eigenvalues --   -0.83370  -0.66746  -0.40649  -0.35773
 Alpha virt. eigenvalues --    0.07454   0.16274   0.45202   0.59805

 Mulliken charges:
               1
     1  H    0.105212
     2  H   -0.038597
     3  H   -0.199074
     4  H    0.132459
     5  H    0.132459
     6  H   -0.199074
     7  H   -0.038597
     8  H    0.105212
 Sum of Mulliken charges =  -0.00000

 Dipole moment (field-independent basis, Debye):
    X=             -0.0000    Y=             -0.0000    Z=              0.0000  Tot=              0.0000
 Quadrupole moment (field-independent basis, Debye-Ang):
   XX=            -11.1033   YY=            -11.3254   ZZ=            -10.5227
   XY=              0.9927   XZ=             -0.0000   YZ=              0.0000

 Normal termination of Gaussian 09 at Thu Feb  9 15:09:23 2017.
