 Gaussian 09, Revision E.01,
 Gaussian 09:  ES64L-G09RevE.01 30-Nov-2015

 ----------------------------------------------------------------------
 #rhf/gen scf(symm,tight,novaracc,noincfock,fulldiag) stable(crhf) geom
 =nocrowd test
 ----------------------------------------------------------------------

 hf stability analysis of h10 triangular lattice, y= 0.7165872321299139
 3
 ----------------------------------------------------------------------
 Symbolic Z-matrix:
 Charge =  0 Multiplicity = 1

                         Standard orientation:
 ---------------------------------------------------------------------
 Center     Atomic      Atomic             Coordinates (Angstroms)
 Number     Number       Type             X           Y           Z
 ---------------------------------------------------------------------
      1          1           0        0.805694    1.433174   -0.000000
      2          1           0        1.611389    0.716587   -0.000000
      3          1           0        0.000000    0.716587   -0.000000
      4          1           0        0.805694    0.000000   -0.000000
      5          1           0       -0.805694    0.000000    0.000000
      6          1           0       -0.000000   -0.716587    0.000000
      7          1           0       -1.611389   -0.716587    0.000000
      8          1           0       -0.805694   -1.433174    0.000000
 ---------------------------------------------------------------------

 SCF Done:  E(RHF) =  -3.97771314460     A.U. after    9 cycles
 E2 =    -0.8234879674D-01 EUMP2 =    -0.40600619413476D+01

 The electronic state is 1-AG.
 Alpha  occ. eigenvalues --   -0.85130  -0.66498  -0.40760  -0.39739
 Alpha virt. eigenvalues --    0.04113   0.25356   0.37875   0.81867

 Mulliken charges:
               1
     1  H    0.055511
     2  H   -0.011859
     3  H   -0.077666
     4  H    0.034015
     5  H    0.034015
     6  H   -0.077666
     7  H   -0.011859
     8  H    0.055511
 Sum of Mulliken charges =  -0.00000

 Dipole moment (field-independent basis, Debye):
    X=             -0.0000    Y=              0.0000    Z=              0.0000  Tot=              0.0000
 Quadrupole moment (field-independent basis, Debye-Ang):
   XX=            -11.7777   YY=            -11.2927   ZZ=            -10.4453
   XY=              0.2117   XZ=              0.0000   YZ=              0.0000

 Normal termination of Gaussian 09 at Thu Feb  9 15:02:15 2017.
