 Gaussian 09, Revision E.01,
 Gaussian 09:  ES64L-G09RevE.01 30-Nov-2015

 ----------------------------------------------------------------------
 #rhf/gen scf(symm,tight,novaracc,noincfock,fulldiag) stable(crhf) geom
 =nocrowd test
 ----------------------------------------------------------------------

 hf stability analysis of h10 triangular lattice, y= 0.5087889041436474
 1
 ----------------------------------------------------------------------
 Symbolic Z-matrix:
 Charge =  0 Multiplicity = 1

                         Standard orientation:
 ---------------------------------------------------------------------
 Center     Atomic      Atomic             Coordinates (Angstroms)
 Number     Number       Type             X           Y           Z
 ---------------------------------------------------------------------
      1          1           0        1.134754    1.017578   -0.000000
      2          1           0        2.269508    0.508789   -0.000000
      3          1           0        0.000000    0.508789   -0.000000
      4          1           0        1.134754    0.000000   -0.000000
      5          1           0       -1.134754    0.000000   -0.000000
      6          1           0       -0.000000   -0.508789   -0.000000
      7          1           0       -2.269508   -0.508789   -0.000000
      8          1           0       -1.134754   -1.017578   -0.000000
 ---------------------------------------------------------------------

 SCF Done:  E(RHF) =  -3.88190740295     A.U. after   10 cycles
 E2 =    -0.8941640890D-01 EUMP2 =    -0.39713238118518D+01

 The electronic state is 1-AG.
 Alpha  occ. eigenvalues --   -0.80270  -0.66524  -0.41860  -0.26608
 Alpha virt. eigenvalues --    0.07855   0.12381   0.35546   0.51714

 Mulliken charges:
               1
     1  H    0.055022
     2  H   -0.008701
     3  H   -0.221829
     4  H    0.175508
     5  H    0.175508
     6  H   -0.221829
     7  H   -0.008701
     8  H    0.055022
 Sum of Mulliken charges =   0.00000

 Dipole moment (field-independent basis, Debye):
    X=             -0.0000    Y=             -0.0000    Z=              0.0000  Tot=              0.0000
 Quadrupole moment (field-independent basis, Debye-Ang):
   XX=             -9.0691   YY=            -12.0288   ZZ=            -10.5983
   XY=              1.1706   XZ=              0.0000   YZ=             -0.0000

 Normal termination of Gaussian 09 at Thu Feb  9 15:15:17 2017.
