 Gaussian 09, Revision E.01,
 Gaussian 09:  ES64L-G09RevE.01 30-Nov-2015

 ----------------------------------------------------------------------
 #rhf/gen scf(symm,tight,novaracc,noincfock,fulldiag) stable(crhf) geom
 =nocrowd test
 ----------------------------------------------------------------------

 hf stability analysis of h10 triangular lattice, y= 0.6862036198488725
 7
 ----------------------------------------------------------------------
 Symbolic Z-matrix:
 Charge =  0 Multiplicity = 1

                         Standard orientation:
 ---------------------------------------------------------------------
 Center     Atomic      Atomic             Coordinates (Angstroms)
 Number     Number       Type             X           Y           Z
 ---------------------------------------------------------------------
      1          1           0        0.841369    1.372407   -0.000000
      2          1           0        1.682737    0.686204    0.000000
      3          1           0        0.000000    0.686204   -0.000000
      4          1           0        0.841369    0.000000    0.000000
      5          1           0       -0.841369    0.000000    0.000000
      6          1           0       -0.000000   -0.686204   -0.000000
      7          1           0       -1.682737   -0.686204    0.000000
      8          1           0       -0.841369   -1.372407   -0.000000
 ---------------------------------------------------------------------

 SCF Done:  E(RHF) =  -3.97755221679     A.U. after   10 cycles
 E2 =    -0.8139473767D-01 EUMP2 =    -0.40589469544600D+01

 The electronic state is 1-AG.
 Alpha  occ. eigenvalues --   -0.84903  -0.66570  -0.40083  -0.39884
 Alpha virt. eigenvalues --    0.04569   0.23557   0.39393   0.78180

 Mulliken charges:
               1
     1  H    0.077998
     2  H   -0.029858
     3  H   -0.116757
     4  H    0.068616
     5  H    0.068616
     6  H   -0.116757
     7  H   -0.029858
     8  H    0.077998
 Sum of Mulliken charges =  -0.00000

 Dipole moment (field-independent basis, Debye):
    X=             -0.0000    Y=             -0.0000    Z=              0.0000  Tot=              0.0000
 Quadrupole moment (field-independent basis, Debye-Ang):
   XX=            -11.8597   YY=            -11.1694   ZZ=            -10.4577
   XY=              0.3532   XZ=             -0.0000   YZ=              0.0000

 Normal termination of Gaussian 09 at Thu Feb  9 15:03:58 2017.
