 Gaussian 09, Revision E.01,
 Gaussian 09:  ES64L-G09RevE.01 30-Nov-2015

 ----------------------------------------------------------------------
 #rhf/gen scf(symm,tight,novaracc,noincfock,fulldiag) stable(crhf) geom
 =nocrowd test
 ----------------------------------------------------------------------

 hf stability analysis of h10 triangular lattice, y= 0.3166143622156391
 0
 ----------------------------------------------------------------------
 Symbolic Z-matrix:
 Charge =  0 Multiplicity = 1

                         Standard orientation:
 ---------------------------------------------------------------------
 Center     Atomic      Atomic             Coordinates (Angstroms)
 Number     Number       Type             X           Y           Z
 ---------------------------------------------------------------------
      1          1           0        1.823513    0.633229   -0.000000
      2          1           0        3.647025    0.316614   -0.000000
      3          1           0        0.000000    0.316614   -0.000000
      4          1           0        1.823513    0.000000    0.000000
      5          1           0       -1.823513    0.000000   -0.000000
      6          1           0       -0.000000   -0.316614   -0.000000
      7          1           0       -3.647025   -0.316614   -0.000000
      8          1           0       -1.823513   -0.633229   -0.000000
 ---------------------------------------------------------------------

 SCF Done:  E(RHF) =  -3.85575852824     A.U. after    7 cycles
 E2 =    -0.5121242913D+00 EUMP2 =    -0.43678828194969D+01

 The electronic state is 1-AG.
 Alpha  occ. eigenvalues --   -0.73746  -0.68020  -0.60173  -0.19935
 Alpha virt. eigenvalues --   -0.12134   0.36027   0.48355   0.63747

 Mulliken charges:
               1
     1  H    0.009030
     2  H   -0.021521
     3  H    0.003903
     4  H    0.008588
     5  H    0.008588
     6  H    0.003903
     7  H   -0.021521
     8  H    0.009030
 Sum of Mulliken charges =  -0.00000

 Dipole moment (field-independent basis, Debye):
    X=             -0.0000    Y=             -0.0000    Z=              0.0000  Tot=              0.0000
 Quadrupole moment (field-independent basis, Debye-Ang):
   XX=            -15.6927   YY=             -9.5919   ZZ=            -10.5716
   XY=             -0.4730   XZ=             -0.0000   YZ=              0.0000

 Normal termination of Gaussian 09 at Thu Feb  9 15:25:59 2017.
