 Gaussian 09, Revision E.01,
 Gaussian 09:  ES64L-G09RevE.01 30-Nov-2015

 ----------------------------------------------------------------------
 #rhf/gen scf(symm,tight,novaracc,noincfock,fulldiag) stable(crhf) geom
 =nocrowd test
 ----------------------------------------------------------------------

 hf stability analysis of h10 triangular lattice, y= 0.3518141221564598
 5
 ----------------------------------------------------------------------
 Symbolic Z-matrix:
 Charge =  0 Multiplicity = 1

                         Standard orientation:
 ---------------------------------------------------------------------
 Center     Atomic      Atomic             Coordinates (Angstroms)
 Number     Number       Type             X           Y           Z
 ---------------------------------------------------------------------
      1          1           0        1.641066    0.703628   -0.000000
      2          1           0        3.282132    0.351814   -0.000000
      3          1           0        0.000000    0.351814   -0.000000
      4          1           0        1.641066    0.000000   -0.000000
      5          1           0       -1.641066    0.000000   -0.000000
      6          1           0       -0.000000   -0.351814   -0.000000
      7          1           0       -3.282132   -0.351814   -0.000000
      8          1           0       -1.641066   -0.703628   -0.000000
 ---------------------------------------------------------------------

 SCF Done:  E(RHF) =  -3.88627322787     A.U. after    8 cycles
 E2 =    -0.3850309114D+00 EUMP2 =    -0.42713041392960D+01

 The electronic state is 1-AG.
 Alpha  occ. eigenvalues --   -0.75602  -0.67482  -0.56062  -0.18557
 Alpha virt. eigenvalues --   -0.08850   0.27367   0.42008   0.60206

 Mulliken charges:
               1
     1  H    0.023457
     2  H   -0.063569
     3  H    0.013317
     4  H    0.026795
     5  H    0.026795
     6  H    0.013317
     7  H   -0.063569
     8  H    0.023457
 Sum of Mulliken charges =  -0.00000

 Dipole moment (field-independent basis, Debye):
    X=              0.0000    Y=              0.0000    Z=              0.0000  Tot=              0.0000
 Quadrupole moment (field-independent basis, Debye-Ang):
   XX=            -19.2531   YY=             -9.3550   ZZ=            -10.4931
   XY=             -0.9642   XZ=             -0.0000   YZ=              0.0000

 Normal termination of Gaussian 09 at Thu Feb  9 15:24:18 2017.
