 Gaussian 09, Revision E.01,
 Gaussian 09:  ES64L-G09RevE.01 30-Nov-2015

 ----------------------------------------------------------------------
 #rhf/gen scf(symm,tight,novaracc,noincfock,fulldiag) stable(crhf) geom
 =nocrowd test
 ----------------------------------------------------------------------

 hf stability analysis of h10 triangular lattice, y= 0.6399559941408923
 3
 ----------------------------------------------------------------------
 Symbolic Z-matrix:
 Charge =  0 Multiplicity = 1

                         Standard orientation:
 ---------------------------------------------------------------------
 Center     Atomic      Atomic             Coordinates (Angstroms)
 Number     Number       Type             X           Y           Z
 ---------------------------------------------------------------------
      1          1           0        0.902172    1.279912   -0.000000
      2          1           0        1.804344    0.639956   -0.000000
      3          1           0        0.000000    0.639956    0.000000
      4          1           0        0.902172    0.000000   -0.000000
      5          1           0       -0.902172    0.000000   -0.000000
      6          1           0       -0.000000   -0.639956   -0.000000
      7          1           0       -1.804344   -0.639956   -0.000000
      8          1           0       -0.902172   -1.279912   -0.000000
 ---------------------------------------------------------------------

 SCF Done:  E(RHF) =  -3.97415214450     A.U. after   10 cycles
 E2 =    -0.8000851210D-01 EUMP2 =    -0.40541606565971D+01

 The electronic state is 1-AG.
 Alpha  occ. eigenvalues --   -0.84261  -0.66696  -0.40244  -0.38234
 Alpha virt. eigenvalues --    0.05818   0.19892   0.42366   0.69380

 Mulliken charges:
               1
     1  H    0.101191
     2  H   -0.043194
     3  H   -0.167748
     4  H    0.109751
     5  H    0.109751
     6  H   -0.167748
     7  H   -0.043194
     8  H    0.101191
 Sum of Mulliken charges =  -0.00000

 Dipole moment (field-independent basis, Debye):
    X=             -0.0000    Y=              0.0000    Z=             -0.0000  Tot=              0.0000
 Quadrupole moment (field-independent basis, Debye-Ang):
   XX=            -11.6826   YY=            -11.1506   ZZ=            -10.4882
   XY=              0.6766   XZ=              0.0000   YZ=             -0.0000

 Normal termination of Gaussian 09 at Thu Feb  9 15:06:51 2017.
