 Gaussian 09, Revision E.01,
 Gaussian 09:  ES64L-G09RevE.01 30-Nov-2015

 ----------------------------------------------------------------------
 #rhf/gen scf(symm,tight,novaracc,noincfock,fulldiag) stable(crhf) geom
 =nocrowd test
 ----------------------------------------------------------------------

 hf stability analysis of h10 triangular lattice, y= 0.4286035293641193
 3
 ----------------------------------------------------------------------
 Symbolic Z-matrix:
 Charge =  0 Multiplicity = 1

                         Standard orientation:
 ---------------------------------------------------------------------
 Center     Atomic      Atomic             Coordinates (Angstroms)
 Number     Number       Type             X           Y           Z
 ---------------------------------------------------------------------
      1          1           0        1.347050    0.857207    0.000000
      2          1           0        2.694099    0.428604    0.000000
      3          1           0        0.000000    0.428604    0.000000
      4          1           0        1.347050    0.000000    0.000000
      5          1           0       -1.347050    0.000000   -0.000000
      6          1           0       -0.000000   -0.428604    0.000000
      7          1           0       -2.694099   -0.428604   -0.000000
      8          1           0       -1.347050   -0.857207   -0.000000
 ---------------------------------------------------------------------

 SCF Done:  E(RHF) =  -3.82738575545     A.U. after   11 cycles
 E2 =    -0.1435701403D+00 EUMP2 =    -0.39709558957036D+01

 The electronic state is 1-AG.
 Alpha  occ. eigenvalues --   -0.80771  -0.67962  -0.48337  -0.16941
 Alpha virt. eigenvalues --    0.02887   0.10845   0.29716   0.52221

 Mulliken charges:
               1
     1  H    0.061975
     2  H   -0.178092
     3  H   -0.012641
     4  H    0.128758
     5  H    0.128758
     6  H   -0.012641
     7  H   -0.178092
     8  H    0.061975
 Sum of Mulliken charges =  -0.00000

 Dipole moment (field-independent basis, Debye):
    X=              0.0000    Y=             -0.0000    Z=              0.0000  Tot=              0.0000
 Quadrupole moment (field-independent basis, Debye-Ang):
   XX=            -23.0315   YY=             -9.6092   ZZ=            -10.4422
   XY=             -1.8590   XZ=             -0.0000   YZ=             -0.0000

 Normal termination of Gaussian 09 at Thu Feb  9 15:20:10 2017.
