 Gaussian 09, Revision E.01,
 Gaussian 09:  ES64L-G09RevE.01 30-Nov-2015

 ----------------------------------------------------------------------
 #rhf/gen scf(symm,tight,novaracc,noincfock,fulldiag) stable(crhf) geom
 =nocrowd test
 ----------------------------------------------------------------------

 hf stability analysis of h10 triangular lattice, y= 0.3342196069912995
 4
 ----------------------------------------------------------------------
 Symbolic Z-matrix:
 Charge =  0 Multiplicity = 1

                         Standard orientation:
 ---------------------------------------------------------------------
 Center     Atomic      Atomic             Coordinates (Angstroms)
 Number     Number       Type             X           Y           Z
 ---------------------------------------------------------------------
      1          1           0        1.727458    0.668439    0.000000
      2          1           0        3.454916    0.334220    0.000000
      3          1           0        0.000000    0.334220   -0.000000
      4          1           0        1.727458    0.000000    0.000000
      5          1           0       -1.727458    0.000000    0.000000
      6          1           0       -0.000000   -0.334220    0.000000
      7          1           0       -3.454916   -0.334220    0.000000
      8          1           0       -1.727458   -0.668439    0.000000
 ---------------------------------------------------------------------

 SCF Done:  E(RHF) =  -3.87827141783     A.U. after    8 cycles
 E2 =    -0.4490639164D+00 EUMP2 =    -0.43273353342678D+01

 The electronic state is 1-AG.
 Alpha  occ. eigenvalues --   -0.74526  -0.67640  -0.58027  -0.19305
 Alpha virt. eigenvalues --   -0.10664   0.31676   0.45170   0.62064

 Mulliken charges:
               1
     1  H    0.015170
     2  H   -0.039074
     3  H    0.007680
     4  H    0.016223
     5  H    0.016223
     6  H    0.007680
     7  H   -0.039074
     8  H    0.015170
 Sum of Mulliken charges =  -0.00000

 Dipole moment (field-independent basis, Debye):
    X=              0.0000    Y=              0.0000    Z=             -0.0000  Tot=              0.0000
 Quadrupole moment (field-independent basis, Debye-Ang):
   XX=            -17.3403   YY=             -9.4678   ZZ=            -10.5290
   XY=             -0.6881   XZ=              0.0000   YZ=             -0.0000

 Normal termination of Gaussian 09 at Thu Feb  9 15:25:10 2017.
