 Gaussian 09, Revision E.01,
 Gaussian 09:  ES64L-G09RevE.01 30-Nov-2015

 ----------------------------------------------------------------------
 #rhf/gen scf(symm,tight,novaracc,noincfock,fulldiag) stable(crhf) geom
 =nocrowd test
 ----------------------------------------------------------------------

 hf stability analysis of h10 triangular lattice, y= 0.4088881785656025
 6
 ----------------------------------------------------------------------
 Symbolic Z-matrix:
 Charge =  0 Multiplicity = 1

                         Standard orientation:
 ---------------------------------------------------------------------
 Center     Atomic      Atomic             Coordinates (Angstroms)
 Number     Number       Type             X           Y           Z
 ---------------------------------------------------------------------
      1          1           0        1.412000    0.817776    0.000000
      2          1           0        2.824001    0.408888    0.000000
      3          1           0        0.000000    0.408888    0.000000
      4          1           0        1.412000    0.000000    0.000000
      5          1           0       -1.412000    0.000000    0.000000
      6          1           0       -0.000000   -0.408888    0.000000
      7          1           0       -2.824001   -0.408888    0.000000
      8          1           0       -1.412000   -0.817776    0.000000
 ---------------------------------------------------------------------

 SCF Done:  E(RHF) =  -3.84743384109     A.U. after   11 cycles
 E2 =    -0.1991261979D+00 EUMP2 =    -0.40465600389571D+01

 The electronic state is 1-AG.
 Alpha  occ. eigenvalues --   -0.80075  -0.67947  -0.50611  -0.16362
 Alpha virt. eigenvalues --   -0.00710   0.14273   0.32336   0.53601

 Mulliken charges:
               1
     1  H    0.057904
     2  H   -0.170155
     3  H    0.023355
     4  H    0.088895
     5  H    0.088895
     6  H    0.023355
     7  H   -0.170155
     8  H    0.057904
 Sum of Mulliken charges =   0.00000

 Dipole moment (field-independent basis, Debye):
    X=              0.0000    Y=             -0.0000    Z=             -0.0000  Tot=              0.0000
 Quadrupole moment (field-independent basis, Debye-Ang):
   XX=            -24.5033   YY=             -9.2336   ZZ=            -10.4249
   XY=             -1.9949   XZ=              0.0000   YZ=              0.0000

 Normal termination of Gaussian 09 at Thu Feb  9 15:21:18 2017.
