 Gaussian 09, Revision E.01,
 Gaussian 09:  ES64L-G09RevE.01 30-Nov-2015

 ----------------------------------------------------------------------
 #rhf/gen scf(symm,tight,novaracc,noincfock,fulldiag) stable(crhf) geom
 =nocrowd test
 ----------------------------------------------------------------------

 hf stability analysis of h10 triangular lattice, y= 0.4227526086182665
 8
 ----------------------------------------------------------------------
 Symbolic Z-matrix:
 Charge =  0 Multiplicity = 1

                         Standard orientation:
 ---------------------------------------------------------------------
 Center     Atomic      Atomic             Coordinates (Angstroms)
 Number     Number       Type             X           Y           Z
 ---------------------------------------------------------------------
      1          1           0        1.365693    0.845505   -0.000000
      2          1           0        2.731386    0.422753    0.000000
      3          1           0        0.000000    0.422753   -0.000000
      4          1           0        1.365693    0.000000    0.000000
      5          1           0       -1.365693    0.000000    0.000000
      6          1           0       -0.000000   -0.422753   -0.000000
      7          1           0       -2.731386   -0.422753    0.000000
      8          1           0       -1.365693   -0.845505    0.000000
 ---------------------------------------------------------------------

 SCF Done:  E(RHF) =  -3.83256660401     A.U. after   11 cycles
 E2 =    -0.1586536825D+00 EUMP2 =    -0.39912202865272D+01

 The electronic state is 1-AG.
 Alpha  occ. eigenvalues --   -0.80690  -0.68003  -0.49079  -0.16600
 Alpha virt. eigenvalues --    0.01759   0.11754   0.30412   0.52494

 Mulliken charges:
               1
     1  H    0.062034
     2  H   -0.180696
     3  H    0.002709
     4  H    0.115954
     5  H    0.115954
     6  H    0.002709
     7  H   -0.180696
     8  H    0.062034
 Sum of Mulliken charges =   0.00000

 Dipole moment (field-independent basis, Debye):
    X=              0.0000    Y=              0.0000    Z=             -0.0000  Tot=              0.0000
 Quadrupole moment (field-independent basis, Debye-Ang):
   XX=            -23.8519   YY=             -9.4468   ZZ=            -10.4327
   XY=             -1.9714   XZ=              0.0000   YZ=              0.0000

 Normal termination of Gaussian 09 at Thu Feb  9 15:20:31 2017.
