 Gaussian 09, Revision E.01,
 Gaussian 09:  ES64L-G09RevE.01 30-Nov-2015

 ----------------------------------------------------------------------
 #rhf/gen scf(symm,tight,novaracc,noincfock,fulldiag) stable(crhf) geom
 =nocrowd test
 ----------------------------------------------------------------------

 hf stability analysis of h10 triangular lattice, y= 0.2728963831954491
 8
 ----------------------------------------------------------------------
 Symbolic Z-matrix:
 Charge =  0 Multiplicity = 1

                         Standard orientation:
 ---------------------------------------------------------------------
 Center     Atomic      Atomic             Coordinates (Angstroms)
 Number     Number       Type             X           Y           Z
 ---------------------------------------------------------------------
      1          1           0        2.115639    0.545793   -0.000000
      2          1           0        4.231278    0.272896   -0.000000
      3          1           0        0.000000    0.272896    0.000000
      4          1           0        2.115639    0.000000   -0.000000
      5          1           0       -2.115639    0.000000    0.000000
      6          1           0       -0.000000   -0.272896   -0.000000
      7          1           0       -4.231278   -0.272896   -0.000000
      8          1           0       -2.115639   -0.545793   -0.000000
 ---------------------------------------------------------------------

 SCF Done:  E(RHF) =  -3.71585098724     A.U. after    6 cycles
 E2 =    -0.6570764441D+00 EUMP2 =    -0.43729274313116D+01

 The electronic state is 1-AG.
 Alpha  occ. eigenvalues --   -0.73084  -0.69899  -0.65928  -0.20883
 Alpha virt. eigenvalues --   -0.14544   0.47245   0.56495   0.67585

 Mulliken charges:
               1
     1  H    0.001474
     2  H   -0.001704
     3  H    0.000391
     4  H   -0.000161
     5  H   -0.000161
     6  H    0.000391
     7  H   -0.001704
     8  H    0.001474
 Sum of Mulliken charges =  -0.00000

 Dipole moment (field-independent basis, Debye):
    X=              0.0000    Y=              0.0000    Z=              0.0000  Tot=              0.0000
 Quadrupole moment (field-independent basis, Debye-Ang):
   XX=            -12.9688   YY=             -9.9263   ZZ=            -10.6966
   XY=             -0.1628   XZ=              0.0000   YZ=              0.0000

 Normal termination of Gaussian 09 at Thu Feb  9 15:27:49 2017.
