 Gaussian 09, Revision E.01,
 Gaussian 09:  ES64L-G09RevE.01 30-Nov-2015

 ----------------------------------------------------------------------
 #rhf/gen scf(symm,tight,novaracc,noincfock,fulldiag) stable(crhf) geom
 =nocrowd test
 ----------------------------------------------------------------------

 hf stability analysis of h10 triangular lattice, y= 0.3701512145574039
 6
 ----------------------------------------------------------------------
 Symbolic Z-matrix:
 Charge =  0 Multiplicity = 1

                         Standard orientation:
 ---------------------------------------------------------------------
 Center     Atomic      Atomic             Coordinates (Angstroms)
 Number     Number       Type             X           Y           Z
 ---------------------------------------------------------------------
      1          1           0        1.559769    0.740302   -0.000000
      2          1           0        3.119537    0.370151    0.000000
      3          1           0        0.000000    0.370151   -0.000000
      4          1           0        1.559769    0.000000    0.000000
      5          1           0       -1.559769    0.000000    0.000000
      6          1           0       -0.000000   -0.370151   -0.000000
      7          1           0       -3.119537   -0.370151    0.000000
      8          1           0       -1.559769   -0.740302   -0.000000
 ---------------------------------------------------------------------

 SCF Done:  E(RHF) =  -3.88234864952     A.U. after    9 cycles
 E2 =    -0.3205855519D+00 EUMP2 =    -0.42029342014739D+01

 The electronic state is 1-AG.
 Alpha  occ. eigenvalues --   -0.76987  -0.67518  -0.54211  -0.17713
 Alpha virt. eigenvalues --   -0.06590   0.22937   0.38753   0.58094

 Mulliken charges:
               1
     1  H    0.034116
     2  H   -0.095940
     3  H    0.020599
     4  H    0.041225
     5  H    0.041225
     6  H    0.020599
     7  H   -0.095940
     8  H    0.034116
 Sum of Mulliken charges =   0.00000

 Dipole moment (field-independent basis, Debye):
    X=              0.0000    Y=              0.0000    Z=             -0.0000  Tot=              0.0000
 Quadrupole moment (field-independent basis, Debye-Ang):
   XX=            -21.3629   YY=             -9.2551   ZZ=            -10.4625
   XY=             -1.3085   XZ=             -0.0000   YZ=              0.0000

 Normal termination of Gaussian 09 at Thu Feb  9 15:23:23 2017.
