 Gaussian 09, Revision E.01,
 Gaussian 09:  ES64L-G09RevE.01 30-Nov-2015

 ----------------------------------------------------------------------
 #rhf/gen scf(symm,tight,novaracc,noincfock,fulldiag) stable(crhf) geom
 =nocrowd test
 ----------------------------------------------------------------------

 hf stability analysis of h10 triangular lattice, y= 0.5064083691873014
 8
 ----------------------------------------------------------------------
 Symbolic Z-matrix:
 Charge =  0 Multiplicity = 1

                         Standard orientation:
 ---------------------------------------------------------------------
 Center     Atomic      Atomic             Coordinates (Angstroms)
 Number     Number       Type             X           Y           Z
 ---------------------------------------------------------------------
      1          1           0        1.140088    1.012817    0.000000
      2          1           0        2.280177    0.506408    0.000000
      3          1           0        0.000000    0.506408    0.000000
      4          1           0        1.140088    0.000000    0.000000
      5          1           0       -1.140088    0.000000    0.000000
      6          1           0       -0.000000   -0.506408    0.000000
      7          1           0       -2.280177   -0.506408    0.000000
      8          1           0       -1.140088   -1.012817    0.000000
 ---------------------------------------------------------------------

 SCF Done:  E(RHF) =  -3.87858275626     A.U. after   10 cycles
 E2 =    -0.8998660263D-01 EUMP2 =    -0.39685693588917D+01

 The electronic state is 1-AG.
 Alpha  occ. eigenvalues --   -0.80205  -0.66527  -0.41915  -0.26322
 Alpha virt. eigenvalues --    0.07702   0.12458   0.34966   0.51830

 Mulliken charges:
               1
     1  H    0.053170
     2  H   -0.009900
     3  H   -0.220557
     4  H    0.177287
     5  H    0.177287
     6  H   -0.220557
     7  H   -0.009900
     8  H    0.053170
 Sum of Mulliken charges =   0.00000

 Dipole moment (field-independent basis, Debye):
    X=             -0.0000    Y=             -0.0000    Z=              0.0000  Tot=              0.0000
 Quadrupole moment (field-independent basis, Debye-Ang):
   XX=             -9.1198   YY=            -12.0280   ZZ=            -10.5984
   XY=              1.1357   XZ=              0.0000   YZ=             -0.0000

 Normal termination of Gaussian 09 at Thu Feb  9 15:15:26 2017.
