 Gaussian 09, Revision E.01,
 Gaussian 09:  ES64L-G09RevE.01 30-Nov-2015

 ----------------------------------------------------------------------
 #rhf/gen scf(symm,tight,novaracc,noincfock,fulldiag) stable(crhf) geom
 =nocrowd test
 ----------------------------------------------------------------------

 hf stability analysis of h10 triangular lattice, y= 0.5581409430019123
 0
 ----------------------------------------------------------------------
 Symbolic Z-matrix:
 Charge =  0 Multiplicity = 1

                         Standard orientation:
 ---------------------------------------------------------------------
 Center     Atomic      Atomic             Coordinates (Angstroms)
 Number     Number       Type             X           Y           Z
 ---------------------------------------------------------------------
      1          1           0        1.034417    1.116282   -0.000000
      2          1           0        2.068833    0.558141   -0.000000
      3          1           0        0.000000    0.558141    0.000000
      4          1           0        1.034417    0.000000   -0.000000
      5          1           0       -1.034417    0.000000   -0.000000
      6          1           0       -0.000000   -0.558141   -0.000000
      7          1           0       -2.068833   -0.558141   -0.000000
      8          1           0       -1.034417   -1.116282   -0.000000
 ---------------------------------------------------------------------

 SCF Done:  E(RHF) =  -3.93802865412     A.U. after   10 cycles
 E2 =    -0.8216046608D-01 EUMP2 =    -0.40201891201940D+01

 The electronic state is 1-AG.
 Alpha  occ. eigenvalues --   -0.82021  -0.66671  -0.41134  -0.32096
 Alpha virt. eigenvalues --    0.09748   0.12154   0.48395   0.48489

 Mulliken charges:
               1
     1  H    0.091246
     2  H   -0.020471
     3  H   -0.219855
     4  H    0.149080
     5  H    0.149080
     6  H   -0.219855
     7  H   -0.020471
     8  H    0.091246
 Sum of Mulliken charges =   0.00000

 Dipole moment (field-independent basis, Debye):
    X=              0.0000    Y=             -0.0000    Z=             -0.0000  Tot=              0.0000
 Quadrupole moment (field-independent basis, Debye-Ang):
   XX=             -9.9914   YY=            -11.6735   ZZ=            -10.5639
   XY=              1.2734   XZ=              0.0000   YZ=              0.0000

 Normal termination of Gaussian 09 at Thu Feb  9 15:12:07 2017.
