 Gaussian 09, Revision E.01,
 Gaussian 09:  ES64L-G09RevE.01 30-Nov-2015

 ----------------------------------------------------------------------
 #rhf/gen scf(symm,tight,novaracc,noincfock,fulldiag) stable(crhf) geom
 =nocrowd test
 ----------------------------------------------------------------------

 hf stability analysis of h10 triangular lattice, y= 0.4324761417282538
 3
 ----------------------------------------------------------------------
 Symbolic Z-matrix:
 Charge =  0 Multiplicity = 1

                         Standard orientation:
 ---------------------------------------------------------------------
 Center     Atomic      Atomic             Coordinates (Angstroms)
 Number     Number       Type             X           Y           Z
 ---------------------------------------------------------------------
      1          1           0        1.334988    0.864952    0.000000
      2          1           0        2.669975    0.432476    0.000000
      3          1           0        0.000000    0.432476    0.000000
      4          1           0        1.334988    0.000000    0.000000
      5          1           0       -1.334988    0.000000    0.000000
      6          1           0       -0.000000   -0.432476   -0.000000
      7          1           0       -2.669975   -0.432476    0.000000
      8          1           0       -1.334988   -0.864952    0.000000
 ---------------------------------------------------------------------

 SCF Done:  E(RHF) =  -3.82457055425     A.U. after   11 cycles
 E2 =    -0.1349604595D+00 EUMP2 =    -0.39595310137474D+01

 The electronic state is 1-AG.
 Alpha  occ. eigenvalues --   -0.80768  -0.67912  -0.47824  -0.17246
 Alpha virt. eigenvalues --    0.03666   0.10295   0.29303   0.52108

 Mulliken charges:
               1
     1  H    0.061287
     2  H   -0.173817
     3  H   -0.024767
     4  H    0.137298
     5  H    0.137298
     6  H   -0.024767
     7  H   -0.173817
     8  H    0.061287
 Sum of Mulliken charges =  -0.00000

 Dipole moment (field-independent basis, Debye):
    X=              0.0000    Y=              0.0000    Z=             -0.0000  Tot=              0.0000
 Quadrupole moment (field-independent basis, Debye-Ang):
   XX=            -22.3179   YY=             -9.7408   ZZ=            -10.4506
   XY=             -1.7498   XZ=              0.0000   YZ=              0.0000

 Normal termination of Gaussian 09 at Thu Feb  9 15:19:57 2017.
