 Gaussian 09, Revision E.01,
 Gaussian 09:  ES64L-G09RevE.01 30-Nov-2015

 ----------------------------------------------------------------------
 #rhf/gen scf(symm,tight,novaracc,noincfock,fulldiag) stable(crhf) geom
 =nocrowd test
 ----------------------------------------------------------------------

 hf stability analysis of h10 triangular lattice, y= 0.7273541585154700
 3
 ----------------------------------------------------------------------
 Symbolic Z-matrix:
 Charge =  0 Multiplicity = 1

                         Standard orientation:
 ---------------------------------------------------------------------
 Center     Atomic      Atomic             Coordinates (Angstroms)
 Number     Number       Type             X           Y           Z
 ---------------------------------------------------------------------
      1          1           0        0.793768    1.454708    0.000000
      2          1           0        1.587536    0.727354   -0.000000
      3          1           0        0.000000    0.727354    0.000000
      4          1           0        0.793768    0.000000   -0.000000
      5          1           0       -0.793768    0.000000   -0.000000
      6          1           0       -0.000000   -0.727354   -0.000000
      7          1           0       -1.587536   -0.727354   -0.000000
      8          1           0       -0.793768   -1.454708   -0.000000
 ---------------------------------------------------------------------

 SCF Done:  E(RHF) =  -3.97766398171     A.U. after    9 cycles
 E2 =    -0.8259903890D-01 EUMP2 =    -0.40602630206049D+01

 The electronic state is 1-AG.
 Alpha  occ. eigenvalues --   -0.85179  -0.66480  -0.40909  -0.39706
 Alpha virt. eigenvalues --    0.04013   0.25816   0.37478   0.82716

 Mulliken charges:
               1
     1  H    0.046869
     2  H   -0.004275
     3  H   -0.063367
     4  H    0.020773
     5  H    0.020773
     6  H   -0.063367
     7  H   -0.004275
     8  H    0.046869
 Sum of Mulliken charges =  -0.00000

 Dipole moment (field-independent basis, Debye):
    X=              0.0000    Y=              0.0000    Z=             -0.0000  Tot=              0.0000
 Quadrupole moment (field-independent basis, Debye-Ang):
   XX=            -11.7268   YY=            -11.3502   ZZ=            -10.4425
   XY=              0.1787   XZ=             -0.0000   YZ=             -0.0000

 Normal termination of Gaussian 09 at Thu Feb  9 15:01:37 2017.
