 Gaussian 09, Revision E.01,
 Gaussian 09:  ES64L-G09RevE.01 30-Nov-2015

 ----------------------------------------------------------------------
 #rhf/gen scf(symm,tight,novaracc,noincfock,fulldiag) stable(crhf) geom
 =nocrowd test
 ----------------------------------------------------------------------

 hf stability analysis of h10 triangular lattice, y= 0.6770695023340408
 4
 ----------------------------------------------------------------------
 Symbolic Z-matrix:
 Charge =  0 Multiplicity = 1

                         Standard orientation:
 ---------------------------------------------------------------------
 Center     Atomic      Atomic             Coordinates (Angstroms)
 Number     Number       Type             X           Y           Z
 ---------------------------------------------------------------------
      1          1           0        0.852719    1.354139    0.000000
      2          1           0        1.705439    0.677069    0.000000
      3          1           0        0.000000    0.677069    0.000000
      4          1           0        0.852719   -0.000000    0.000000
      5          1           0       -0.852719    0.000000   -0.000000
      6          1           0       -0.000000   -0.677069    0.000000
      7          1           0       -1.705439   -0.677069   -0.000000
      8          1           0       -0.852719   -1.354139   -0.000000
 ---------------------------------------------------------------------

 SCF Done:  E(RHF) =  -3.97730448660     A.U. after   10 cycles
 E2 =    -0.8107721885D-01 EUMP2 =    -0.40583817054457D+01

 The electronic state is 1-AG.
 Alpha  occ. eigenvalues --   -0.84807  -0.66596  -0.39942  -0.39800
 Alpha virt. eigenvalues --    0.04760   0.22905   0.39932   0.76720

 Mulliken charges:
               1
     1  H    0.083863
     2  H   -0.033997
     3  H   -0.127833
     4  H    0.077967
     5  H    0.077967
     6  H   -0.127833
     7  H   -0.033997
     8  H    0.083863
 Sum of Mulliken charges =  -0.00000

 Dipole moment (field-independent basis, Debye):
    X=              0.0000    Y=             -0.0000    Z=             -0.0000  Tot=              0.0000
 Quadrupole moment (field-independent basis, Debye-Ang):
   XX=            -11.8591   YY=            -11.1475   ZZ=            -10.4627
   XY=              0.4083   XZ=             -0.0000   YZ=             -0.0000

 Normal termination of Gaussian 09 at Thu Feb  9 15:04:32 2017.
