 Gaussian 09, Revision E.01,
 Gaussian 09:  ES64L-G09RevE.01 30-Nov-2015

 ----------------------------------------------------------------------
 #rhf/gen scf(symm,tight,novaracc,noincfock,fulldiag) stable(crhf) geom
 =nocrowd test
 ----------------------------------------------------------------------

 hf stability analysis of h10 triangular lattice, y= 0.5406230550554291
 8
 ----------------------------------------------------------------------
 Symbolic Z-matrix:
 Charge =  0 Multiplicity = 1

                         Standard orientation:
 ---------------------------------------------------------------------
 Center     Atomic      Atomic             Coordinates (Angstroms)
 Number     Number       Type             X           Y           Z
 ---------------------------------------------------------------------
      1          1           0        1.067935    1.081246   -0.000000
      2          1           0        2.135870    0.540623   -0.000000
      3          1           0        0.000000    0.540623   -0.000000
      4          1           0        1.067935    0.000000    0.000000
      5          1           0       -1.067935    0.000000    0.000000
      6          1           0       -0.000000   -0.540623   -0.000000
      7          1           0       -2.135870   -0.540623   -0.000000
      8          1           0       -1.067935   -1.081246   -0.000000
 ---------------------------------------------------------------------

 SCF Done:  E(RHF) =  -3.92143120480     A.U. after    9 cycles
 E2 =    -0.8396719882D-01 EUMP2 =    -0.40053984036237D+01

 The electronic state is 1-AG.
 Alpha  occ. eigenvalues --   -0.81376  -0.66605  -0.41348  -0.30275
 Alpha virt. eigenvalues --    0.10489   0.10776   0.43786   0.49686

 Mulliken charges:
               1
     1  H    0.080219
     2  H   -0.012100
     3  H   -0.224413
     4  H    0.156293
     5  H    0.156293
     6  H   -0.224413
     7  H   -0.012100
     8  H    0.080219
 Sum of Mulliken charges =   0.00000

 Dipole moment (field-independent basis, Debye):
    X=             -0.0000    Y=              0.0000    Z=              0.0000  Tot=              0.0000
 Quadrupole moment (field-independent basis, Debye-Ang):
   XX=             -9.4681   YY=            -11.8358   ZZ=            -10.5800
   XY=              1.3275   XZ=             -0.0000   YZ=              0.0000

 Normal termination of Gaussian 09 at Thu Feb  9 15:13:15 2017.
