 Gaussian 09, Revision E.01,
 Gaussian 09:  ES64L-G09RevE.01 30-Nov-2015

 ----------------------------------------------------------------------
 #rhf/gen scf(symm,tight,novaracc,noincfock,fulldiag) stable(crhf) geom
 =nocrowd test
 ----------------------------------------------------------------------

 hf stability analysis of h10 triangular lattice, y= 0.5796774035222013
 2
 ----------------------------------------------------------------------
 Symbolic Z-matrix:
 Charge =  0 Multiplicity = 1

                         Standard orientation:
 ---------------------------------------------------------------------
 Center     Atomic      Atomic             Coordinates (Angstroms)
 Number     Number       Type             X           Y           Z
 ---------------------------------------------------------------------
      1          1           0        0.995985    1.159355    0.000000
      2          1           0        1.991971    0.579677    0.000000
      3          1           0        0.000000    0.579677    0.000000
      4          1           0        0.995985    0.000000    0.000000
      5          1           0       -0.995985    0.000000   -0.000000
      6          1           0       -0.000000   -0.579677    0.000000
      7          1           0       -1.991971   -0.579677   -0.000000
      8          1           0       -0.995985   -1.159355   -0.000000
 ---------------------------------------------------------------------

 SCF Done:  E(RHF) =  -3.95341063010     A.U. after    9 cycles
 E2 =    -0.8071484708D-01 EUMP2 =    -0.40341254771788D+01

 The electronic state is 1-AG.
 Alpha  occ. eigenvalues --   -0.82752  -0.66728  -0.40885  -0.34094
 Alpha virt. eigenvalues --    0.08530   0.14248   0.46772   0.54280

 Mulliken charges:
               1
     1  H    0.100680
     2  H   -0.030815
     3  H   -0.210968
     4  H    0.141103
     5  H    0.141103
     6  H   -0.210968
     7  H   -0.030815
     8  H    0.100680
 Sum of Mulliken charges =  -0.00000

 Dipole moment (field-independent basis, Debye):
    X=             -0.0000    Y=              0.0000    Z=             -0.0000  Tot=              0.0000
 Quadrupole moment (field-independent basis, Debye-Ang):
   XX=            -10.6092   YY=            -11.4820   ZZ=            -10.5429
   XY=              1.1477   XZ=              0.0000   YZ=              0.0000

 Normal termination of Gaussian 09 at Thu Feb  9 15:10:43 2017.
