 Gaussian 09, Revision E.01,
 Gaussian 09:  ES64L-G09RevE.01 30-Nov-2015

 ----------------------------------------------------------------------
 #rhf/gen scf(symm,tight,novaracc,noincfock,fulldiag) stable(crhf) geom
 =nocrowd test
 ----------------------------------------------------------------------

 hf stability analysis of h10 triangular lattice, y= 0.6193469264612477
 8
 ----------------------------------------------------------------------
 Symbolic Z-matrix:
 Charge =  0 Multiplicity = 1

                         Standard orientation:
 ---------------------------------------------------------------------
 Center     Atomic      Atomic             Coordinates (Angstroms)
 Number     Number       Type             X           Y           Z
 ---------------------------------------------------------------------
      1          1           0        0.932192    1.238694    0.000000
      2          1           0        1.864384    0.619347    0.000000
      3          1           0        0.000000    0.619347    0.000000
      4          1           0        0.932192    0.000000    0.000000
      5          1           0       -0.932192    0.000000   -0.000000
      6          1           0       -0.000000   -0.619347    0.000000
      7          1           0       -1.864384   -0.619347   -0.000000
      8          1           0       -0.932192   -1.238694   -0.000000
 ---------------------------------------------------------------------

 SCF Done:  E(RHF) =  -3.96994204675     A.U. after   10 cycles
 E2 =    -0.7979616212D-01 EUMP2 =    -0.40497382088680D+01

 The electronic state is 1-AG.
 Alpha  occ. eigenvalues --   -0.83837  -0.66734  -0.40448  -0.37053
 Alpha virt. eigenvalues --    0.06610   0.18035   0.43829   0.64530

 Mulliken charges:
               1
     1  H    0.105305
     2  H   -0.042586
     3  H   -0.185657
     4  H    0.122937
     5  H    0.122937
     6  H   -0.185657
     7  H   -0.042586
     8  H    0.105305
 Sum of Mulliken charges =  -0.00000

 Dipole moment (field-independent basis, Debye):
    X=             -0.0000    Y=              0.0000    Z=             -0.0000  Tot=              0.0000
 Quadrupole moment (field-independent basis, Debye-Ang):
   XX=            -11.4350   YY=            -11.2209   ZZ=            -10.5055
   XY=              0.8426   XZ=             -0.0000   YZ=              0.0000

 Normal termination of Gaussian 09 at Thu Feb  9 15:08:11 2017.
