 Gaussian 09, Revision E.01,
 Gaussian 09:  ES64L-G09RevE.01 30-Nov-2015

 ----------------------------------------------------------------------
 #rhf/gen scf(symm,tight,novaracc,noincfock,fulldiag) stable(crhf) geom
 =nocrowd test
 ----------------------------------------------------------------------

 hf stability analysis of h10 triangular lattice, y= 0.5022331513632394
 3
 ----------------------------------------------------------------------
 Symbolic Z-matrix:
 Charge =  0 Multiplicity = 1

                         Standard orientation:
 ---------------------------------------------------------------------
 Center     Atomic      Atomic             Coordinates (Angstroms)
 Number     Number       Type             X           Y           Z
 ---------------------------------------------------------------------
      1          1           0        1.149566    1.004466    0.000000
      2          1           0        2.299132    0.502233    0.000000
      3          1           0        0.000000    0.502233    0.000000
      4          1           0        1.149566    0.000000    0.000000
      5          1           0       -1.149566    0.000000    0.000000
      6          1           0       -0.000000   -0.502233   -0.000000
      7          1           0       -2.299132   -0.502233    0.000000
      8          1           0       -1.149566   -1.004466    0.000000
 ---------------------------------------------------------------------

 SCF Done:  E(RHF) =  -3.87269897830     A.U. after   10 cycles
 E2 =    -0.9105730592D-01 EUMP2 =    -0.39637562842110D+01

 The electronic state is 1-AG.
 Alpha  occ. eigenvalues --   -0.80102  -0.66539  -0.42020  -0.25818
 Alpha virt. eigenvalues --    0.07457   0.12565   0.33970   0.52013

 Mulliken charges:
               1
     1  H    0.050089
     2  H   -0.012788
     3  H   -0.217724
     4  H    0.180422
     5  H    0.180422
     6  H   -0.217724
     7  H   -0.012788
     8  H    0.050089
 Sum of Mulliken charges =  -0.00000

 Dipole moment (field-independent basis, Debye):
    X=              0.0000    Y=              0.0000    Z=              0.0000  Tot=              0.0000
 Quadrupole moment (field-independent basis, Debye-Ang):
   XX=             -9.2570   YY=            -12.0173   ZZ=            -10.5980
   XY=              1.0634   XZ=              0.0000   YZ=             -0.0000

 Normal termination of Gaussian 09 at Thu Feb  9 15:15:41 2017.
