 Gaussian 09, Revision E.01,
 Gaussian 09:  ES64L-G09RevE.01 30-Nov-2015

 ----------------------------------------------------------------------
 #rhf/gen scf(symm,tight,novaracc,noincfock,fulldiag) stable(crhf) geom
 =nocrowd test
 ----------------------------------------------------------------------

 hf stability analysis of h10 triangular lattice, y= 0.5616364580384261
 0
 ----------------------------------------------------------------------
 Symbolic Z-matrix:
 Charge =  0 Multiplicity = 1

                         Standard orientation:
 ---------------------------------------------------------------------
 Center     Atomic      Atomic             Coordinates (Angstroms)
 Number     Number       Type             X           Y           Z
 ---------------------------------------------------------------------
      1          1           0        1.027979    1.123273   -0.000000
      2          1           0        2.055957    0.561636   -0.000000
      3          1           0       -0.000000    0.561636   -0.000000
      4          1           0        1.027979    0.000000   -0.000000
      5          1           0       -1.027979    0.000000   -0.000000
      6          1           0       -0.000000   -0.561636    0.000000
      7          1           0       -2.055957   -0.561636   -0.000000
      8          1           0       -1.027979   -1.123273   -0.000000
 ---------------------------------------------------------------------

 SCF Done:  E(RHF) =  -3.94088769119     A.U. after   10 cycles
 E2 =    -0.8187244398D-01 EUMP2 =    -0.40227601351714D+01

 The electronic state is 1-AG.
 Alpha  occ. eigenvalues --   -0.82146  -0.66683  -0.41093  -0.32439
 Alpha virt. eigenvalues --    0.09545   0.12492   0.48132   0.49431

 Mulliken charges:
               1
     1  H    0.093097
     2  H   -0.022224
     3  H   -0.218644
     4  H    0.147771
     5  H    0.147771
     6  H   -0.218644
     7  H   -0.022224
     8  H    0.093097
 Sum of Mulliken charges =   0.00000

 Dipole moment (field-independent basis, Debye):
    X=              0.0000    Y=             -0.0000    Z=             -0.0000  Tot=              0.0000
 Quadrupole moment (field-independent basis, Debye-Ang):
   XX=            -10.0967   YY=            -11.6411   ZZ=            -10.5606
   XY=              1.2565   XZ=             -0.0000   YZ=              0.0000

 Normal termination of Gaussian 09 at Thu Feb  9 15:11:53 2017.
