 Gaussian 09, Revision E.01,
 Gaussian 09:  ES64L-G09RevE.01 30-Nov-2015

 ----------------------------------------------------------------------
 #rhf/gen scf(symm,tight,novaracc,noincfock,fulldiag) stable(crhf) geom
 =nocrowd test
 ----------------------------------------------------------------------

 hf stability analysis of h10 triangular lattice, y= 0.5224100215765680
 2
 ----------------------------------------------------------------------
 Symbolic Z-matrix:
 Charge =  0 Multiplicity = 1

                         Standard orientation:
 ---------------------------------------------------------------------
 Center     Atomic      Atomic             Coordinates (Angstroms)
 Number     Number       Type             X           Y           Z
 ---------------------------------------------------------------------
      1          1           0        1.105167    1.044820    0.000000
      2          1           0        2.210334    0.522410    0.000000
      3          1           0        0.000000    0.522410   -0.000000
      4          1           0        1.105167    0.000000    0.000000
      5          1           0       -1.105167    0.000000   -0.000000
      6          1           0       -0.000000   -0.522410   -0.000000
      7          1           0       -2.210334   -0.522410   -0.000000
      8          1           0       -1.105167   -1.044820   -0.000000
 ---------------------------------------------------------------------

 SCF Done:  E(RHF) =  -3.90013811496     A.U. after   10 cycles
 E2 =    -0.8664898020D-01 EUMP2 =    -0.39867870951572D+01

 The electronic state is 1-AG.
 Alpha  occ. eigenvalues --   -0.80707  -0.66540  -0.41605  -0.28222
 Alpha virt. eigenvalues --    0.08879   0.11785   0.38991   0.50931

 Mulliken charges:
               1
     1  H    0.066159
     2  H   -0.006757
     3  H   -0.225492
     4  H    0.166090
     5  H    0.166090
     6  H   -0.225492
     7  H   -0.006757
     8  H    0.066159
 Sum of Mulliken charges =  -0.00000

 Dipole moment (field-independent basis, Debye):
    X=             -0.0000    Y=              0.0000    Z=              0.0000  Tot=              0.0000
 Quadrupole moment (field-independent basis, Debye-Ang):
   XX=             -9.0630   YY=            -11.9793   ZZ=            -10.5934
   XY=              1.2964   XZ=              0.0000   YZ=              0.0000

 Normal termination of Gaussian 09 at Thu Feb  9 15:14:25 2017.
