 Gaussian 09, Revision E.01,
 Gaussian 09:  ES64L-G09RevE.01 30-Nov-2015

 ----------------------------------------------------------------------
 #rhf/gen scf(symm,tight,novaracc,noincfock,fulldiag) stable(crhf) geom
 =nocrowd test
 ----------------------------------------------------------------------

 hf stability analysis of h10 triangular lattice, y= 0.2691179761683100
 1
 ----------------------------------------------------------------------
 Symbolic Z-matrix:
 Charge =  0 Multiplicity = 1

                         Standard orientation:
 ---------------------------------------------------------------------
 Center     Atomic      Atomic             Coordinates (Angstroms)
 Number     Number       Type             X           Y           Z
 ---------------------------------------------------------------------
      1          1           0        2.145343    0.538236   -0.000000
      2          1           0        4.290685    0.269118   -0.000000
      3          1           0        0.000000    0.269118   -0.000000
      4          1           0        2.145343    0.000000   -0.000000
      5          1           0       -2.145343    0.000000   -0.000000
      6          1           0       -0.000000   -0.269118   -0.000000
      7          1           0       -4.290685   -0.269118   -0.000000
      8          1           0       -2.145343   -0.538236   -0.000000
 ---------------------------------------------------------------------

 SCF Done:  E(RHF) =  -3.69682421647     A.U. after    6 cycles
 E2 =    -0.6692547042D+00 EUMP2 =    -0.43660789206551D+01

 The electronic state is 1-AG.
 Alpha  occ. eigenvalues --   -0.73104  -0.70115  -0.66428  -0.20925
 Alpha virt. eigenvalues --   -0.14688   0.48263   0.57231   0.67930

 Mulliken charges:
               1
     1  H    0.001182
     2  H   -0.001055
     3  H    0.000304
     4  H   -0.000431
     5  H   -0.000431
     6  H    0.000304
     7  H   -0.001055
     8  H    0.001182
 Sum of Mulliken charges =  -0.00000

 Dipole moment (field-independent basis, Debye):
    X=             -0.0000    Y=             -0.0000    Z=             -0.0000  Tot=              0.0000
 Quadrupole moment (field-independent basis, Debye-Ang):
   XX=            -12.8121   YY=             -9.9555   ZZ=            -10.7076
   XY=             -0.1471   XZ=              0.0000   YZ=             -0.0000

 Normal termination of Gaussian 09 at Thu Feb  9 15:27:58 2017.
