 Gaussian 09, Revision E.01,
 Gaussian 09:  ES64L-G09RevE.01 30-Nov-2015

 ----------------------------------------------------------------------
 #rhf/gen scf(symm,tight,novaracc,noincfock,fulldiag) stable(crhf) geom
 =nocrowd test
 ----------------------------------------------------------------------

 hf stability analysis of h10 triangular lattice, y= 0.4175072795245631
 8
 ----------------------------------------------------------------------
 Symbolic Z-matrix:
 Charge =  0 Multiplicity = 1

                         Standard orientation:
 ---------------------------------------------------------------------
 Center     Atomic      Atomic             Coordinates (Angstroms)
 Number     Number       Type             X           Y           Z
 ---------------------------------------------------------------------
      1          1           0        1.382851    0.835015   -0.000000
      2          1           0        2.765702    0.417507   -0.000000
      3          1           0        0.000000    0.417507   -0.000000
      4          1           0        1.382851    0.000000   -0.000000
      5          1           0       -1.382851    0.000000   -0.000000
      6          1           0       -0.000000   -0.417507   -0.000000
      7          1           0       -2.765702   -0.417507   -0.000000
      8          1           0       -1.382851   -0.835015   -0.000000
 ---------------------------------------------------------------------

 SCF Done:  E(RHF) =  -3.83791007734     A.U. after   11 cycles
 E2 =    -0.1735579147D+00 EUMP2 =    -0.40114679920442D+01

 The electronic state is 1-AG.
 Alpha  occ. eigenvalues --   -0.80524  -0.68004  -0.49696  -0.16423
 Alpha virt. eigenvalues --    0.00795   0.12649   0.31100   0.52843

 Mulliken charges:
               1
     1  H    0.061104
     2  H   -0.179167
     3  H    0.013045
     4  H    0.105017
     5  H    0.105017
     6  H    0.013045
     7  H   -0.179167
     8  H    0.061104
 Sum of Mulliken charges =  -0.00000

 Dipole moment (field-independent basis, Debye):
    X=             -0.0000    Y=             -0.0000    Z=              0.0000  Tot=              0.0000
 Quadrupole moment (field-independent basis, Debye-Ang):
   XX=            -24.3021   YY=             -9.3397   ZZ=            -10.4274
   XY=             -2.0171   XZ=             -0.0000   YZ=             -0.0000

 Normal termination of Gaussian 09 at Thu Feb  9 15:20:49 2017.
