 Gaussian 09, Revision E.01,
 Gaussian 09:  ES64L-G09RevE.01 30-Nov-2015

 ----------------------------------------------------------------------
 #rhf/gen scf(symm,tight,novaracc,noincfock,fulldiag) stable(crhf) geom
 =nocrowd test
 ----------------------------------------------------------------------

 hf stability analysis of h10 triangular lattice, y= 0.5884060480197481
 6
 ----------------------------------------------------------------------
 Symbolic Z-matrix:
 Charge =  0 Multiplicity = 1

                         Standard orientation:
 ---------------------------------------------------------------------
 Center     Atomic      Atomic             Coordinates (Angstroms)
 Number     Number       Type             X           Y           Z
 ---------------------------------------------------------------------
      1          1           0        0.981211    1.176812   -0.000000
      2          1           0        1.962421    0.588406   -0.000000
      3          1           0        0.000000    0.588406   -0.000000
      4          1           0        0.981211    0.000000    0.000000
      5          1           0       -0.981211    0.000000    0.000000
      6          1           0       -0.000000   -0.588406    0.000000
      7          1           0       -1.962421   -0.588406    0.000000
      8          1           0       -0.981211   -1.176812    0.000000
 ---------------------------------------------------------------------

 SCF Done:  E(RHF) =  -3.95822891551     A.U. after    9 cycles
 E2 =    -0.8033509674D-01 EUMP2 =    -0.40385640122555D+01

 The electronic state is 1-AG.
 Alpha  occ. eigenvalues --   -0.83022  -0.66740  -0.40786  -0.34825
 Alpha virt. eigenvalues --    0.08066   0.15096   0.46116   0.56602

 Mulliken charges:
               1
     1  H    0.103134
     2  H   -0.034422
     3  H   -0.206409
     4  H    0.137697
     5  H    0.137697
     6  H   -0.206409
     7  H   -0.034422
     8  H    0.103134
 Sum of Mulliken charges =  -0.00000

 Dipole moment (field-independent basis, Debye):
    X=             -0.0000    Y=             -0.0000    Z=              0.0000  Tot=              0.0000
 Quadrupole moment (field-independent basis, Debye-Ang):
   XX=            -10.8300   YY=            -11.4123   ZZ=            -10.5344
   XY=              1.0858   XZ=             -0.0000   YZ=              0.0000

 Normal termination of Gaussian 09 at Thu Feb  9 15:10:10 2017.
