 Gaussian 09, Revision E.01,
 Gaussian 09:  ES64L-G09RevE.01 30-Nov-2015

 ----------------------------------------------------------------------
 #rhf/gen scf(symm,tight,novaracc,noincfock,fulldiag) stable(crhf) geom
 =nocrowd test
 ----------------------------------------------------------------------

 hf stability analysis of h10 triangular lattice, y= 0.7305457695626856
 9
 ----------------------------------------------------------------------
 Symbolic Z-matrix:
 Charge =  0 Multiplicity = 1

                         Standard orientation:
 ---------------------------------------------------------------------
 Center     Atomic      Atomic             Coordinates (Angstroms)
 Number     Number       Type             X           Y           Z
 ---------------------------------------------------------------------
      1          1           0        0.790300    1.461092    0.000000
      2          1           0        1.580600    0.730546    0.000000
      3          1           0        0.000000    0.730546    0.000000
      4          1           0        0.790300    0.000000    0.000000
      5          1           0       -0.790300    0.000000    0.000000
      6          1           0       -0.000000   -0.730546    0.000000
      7          1           0       -1.580600   -0.730546    0.000000
      8          1           0       -0.790300   -1.461092    0.000000
 ---------------------------------------------------------------------

 SCF Done:  E(RHF) =  -3.97764765230     A.U. after    9 cycles
 E2 =    -0.8266100917D-01 EUMP2 =    -0.40603086614682D+01

 The electronic state is 1-AG.
 Alpha  occ. eigenvalues --   -0.85191  -0.66476  -0.40944  -0.39698
 Alpha virt. eigenvalues --    0.03990   0.25930   0.37379   0.82921

 Mulliken charges:
               1
     1  H    0.044278
     2  H   -0.001940
     3  H   -0.059118
     4  H    0.016781
     5  H    0.016781
     6  H   -0.059118
     7  H   -0.001940
     8  H    0.044278
 Sum of Mulliken charges =   0.00000

 Dipole moment (field-independent basis, Debye):
    X=              0.0000    Y=             -0.0000    Z=              0.0000  Tot=              0.0000
 Quadrupole moment (field-independent basis, Debye-Ang):
   XX=            -11.7102   YY=            -11.3682   ZZ=            -10.4418
   XY=              0.1708   XZ=              0.0000   YZ=              0.0000

 Normal termination of Gaussian 09 at Thu Feb  9 15:01:26 2017.
