 Gaussian 09, Revision E.01,
 Gaussian 09:  ES64L-G09RevE.01 30-Nov-2015

 ----------------------------------------------------------------------
 #rhf/gen scf(symm,tight,novaracc,noincfock,fulldiag) stable(crhf) geom
 =nocrowd test
 ----------------------------------------------------------------------

 hf stability analysis of h10 triangular lattice, y= 0.5111657639941985
 5
 ----------------------------------------------------------------------
 Symbolic Z-matrix:
 Charge =  0 Multiplicity = 1

                         Standard orientation:
 ---------------------------------------------------------------------
 Center     Atomic      Atomic             Coordinates (Angstroms)
 Number     Number       Type             X           Y           Z
 ---------------------------------------------------------------------
      1          1           0        1.129478    1.022332   -0.000000
      2          1           0        2.258955    0.511166   -0.000000
      3          1           0        0.000000    0.511166   -0.000000
      4          1           0        1.129478    0.000000   -0.000000
      5          1           0       -1.129478    0.000000   -0.000000
      6          1           0       -0.000000   -0.511166   -0.000000
      7          1           0       -2.258955   -0.511166   -0.000000
      8          1           0       -1.129478   -1.022332   -0.000000
 ---------------------------------------------------------------------

 SCF Done:  E(RHF) =  -3.88519532711     A.U. after   10 cycles
 E2 =    -0.8887484990D-01 EUMP2 =    -0.39740701770142D+01

 The electronic state is 1-AG.
 Alpha  occ. eigenvalues --   -0.80339  -0.66523  -0.41809  -0.26893
 Alpha virt. eigenvalues --    0.08017   0.12295   0.36134   0.51591

 Mulliken charges:
               1
     1  H    0.056921
     2  H   -0.007798
     3  H   -0.222880
     4  H    0.173757
     5  H    0.173757
     6  H   -0.222880
     7  H   -0.007798
     8  H    0.056921
 Sum of Mulliken charges =   0.00000

 Dipole moment (field-independent basis, Debye):
    X=             -0.0000    Y=              0.0000    Z=             -0.0000  Tot=              0.0000
 Quadrupole moment (field-independent basis, Debye-Ang):
   XX=             -9.0360   YY=            -12.0262   ZZ=            -10.5979
   XY=              1.2012   XZ=             -0.0000   YZ=              0.0000

 Normal termination of Gaussian 09 at Thu Feb  9 15:15:08 2017.
