 Gaussian 09, Revision E.01,
 Gaussian 09:  ES64L-G09RevE.01 30-Nov-2015

 ----------------------------------------------------------------------
 #rhf/gen scf(symm,tight,novaracc,noincfock,fulldiag) stable(crhf) geom
 =nocrowd test
 ----------------------------------------------------------------------

 hf stability analysis of h10 triangular lattice, y= 0.7388998795365205
 9
 ----------------------------------------------------------------------
 Symbolic Z-matrix:
 Charge =  0 Multiplicity = 1

                         Standard orientation:
 ---------------------------------------------------------------------
 Center     Atomic      Atomic             Coordinates (Angstroms)
 Number     Number       Type             X           Y           Z
 ---------------------------------------------------------------------
      1          1           0        0.781365    1.477800    0.000000
      2          1           0        1.562729    0.738900    0.000000
      3          1           0        0.000000    0.738900    0.000000
      4          1           0        0.781365    0.000000    0.000000
      5          1           0       -0.781365    0.000000    0.000000
      6          1           0       -0.000000   -0.738900    0.000000
      7          1           0       -1.562729   -0.738900    0.000000
      8          1           0       -0.781365   -1.477800    0.000000
 ---------------------------------------------------------------------

 SCF Done:  E(RHF) =  -3.97760743585     A.U. after    9 cycles
 E2 =    -0.8279444624D-01 EUMP2 =    -0.40604018820895D+01

 The electronic state is 1-AG.
 Alpha  occ. eigenvalues --   -0.85215  -0.66466  -0.41019  -0.39682
 Alpha virt. eigenvalues --    0.03940   0.26178   0.37164   0.83354

 Mulliken charges:
               1
     1  H    0.037471
     2  H    0.004322
     3  H   -0.048013
     4  H    0.006220
     5  H    0.006220
     6  H   -0.048013
     7  H    0.004322
     8  H    0.037471
 Sum of Mulliken charges =   0.00000

 Dipole moment (field-independent basis, Debye):
    X=              0.0000    Y=             -0.0000    Z=              0.0000  Tot=              0.0000
 Quadrupole moment (field-independent basis, Debye-Ang):
   XX=            -11.6646   YY=            -11.4166   ZZ=            -10.4404
   XY=              0.1539   XZ=              0.0000   YZ=             -0.0000

 Normal termination of Gaussian 09 at Thu Feb  9 15:00:57 2017.
