 Gaussian 09, Revision E.01,
 Gaussian 09:  ES64L-G09RevE.01 30-Nov-2015

 ----------------------------------------------------------------------
 #rhf/gen scf(symm,tight,novaracc,noincfock,fulldiag) stable(crhf) geom
 =nocrowd test
 ----------------------------------------------------------------------

 hf stability analysis of h10 triangular lattice, y= 0.4502787908445872
 2
 ----------------------------------------------------------------------
 Symbolic Z-matrix:
 Charge =  0 Multiplicity = 1

                         Standard orientation:
 ---------------------------------------------------------------------
 Center     Atomic      Atomic             Coordinates (Angstroms)
 Number     Number       Type             X           Y           Z
 ---------------------------------------------------------------------
      1          1           0        1.282206    0.900558    0.000000
      2          1           0        2.564412    0.450279    0.000000
      3          1           0        0.000000    0.450279    0.000000
      4          1           0        1.282206    0.000000   -0.000000
      5          1           0       -1.282206    0.000000   -0.000000
      6          1           0       -0.000000   -0.450279    0.000000
      7          1           0       -2.564412   -0.450279   -0.000000
      8          1           0       -1.282206   -0.900558   -0.000000
 ---------------------------------------------------------------------

 SCF Done:  E(RHF) =  -3.81996816028     A.U. after   12 cycles
 E2 =    -0.1116905990D+00 EUMP2 =    -0.39316587592701D+01

 The electronic state is 1-AG.
 Alpha  occ. eigenvalues --   -0.80420  -0.67503  -0.45509  -0.19233
 Alpha virt. eigenvalues --    0.07456   0.08270   0.28028   0.52098

 Mulliken charges:
               1
     1  H    0.053097
     2  H   -0.133960
     3  H   -0.090824
     4  H    0.171687
     5  H    0.171687
     6  H   -0.090824
     7  H   -0.133960
     8  H    0.053097
 Sum of Mulliken charges =  -0.00000

 Dipole moment (field-independent basis, Debye):
    X=             -0.0000    Y=              0.0000    Z=             -0.0000  Tot=              0.0000
 Quadrupole moment (field-independent basis, Debye-Ang):
   XX=            -17.9981   YY=            -10.5080   ZZ=            -10.5011
   XY=             -0.9956   XZ=             -0.0000   YZ=             -0.0000

 Normal termination of Gaussian 09 at Thu Feb  9 15:18:54 2017.
