 Gaussian 09, Revision E.01,
 Gaussian 09:  ES64L-G09RevE.01 30-Nov-2015

 ----------------------------------------------------------------------
 #rhf/gen scf(symm,tight,novaracc,noincfock,fulldiag) stable(crhf) geom
 =nocrowd test
 ----------------------------------------------------------------------

 hf stability analysis of h10 triangular lattice, y= 0.4683105810735408
 4
 ----------------------------------------------------------------------
 Symbolic Z-matrix:
 Charge =  0 Multiplicity = 1

                         Standard orientation:
 ---------------------------------------------------------------------
 Center     Atomic      Atomic             Coordinates (Angstroms)
 Number     Number       Type             X           Y           Z
 ---------------------------------------------------------------------
      1          1           0        1.232836    0.936621   -0.000000
      2          1           0        2.465673    0.468311   -0.000000
      3          1           0       -0.000000    0.468311   -0.000000
      4          1           0        1.232836    0.000000   -0.000000
      5          1           0       -1.232836    0.000000    0.000000
      6          1           0       -0.000000   -0.468311   -0.000000
      7          1           0       -2.465673   -0.468311    0.000000
      8          1           0       -1.232836   -0.936621    0.000000
 ---------------------------------------------------------------------

 SCF Done:  E(RHF) =  -3.82993523305     A.U. after   11 cycles
 E2 =    -0.1027879951D+00 EUMP2 =    -0.39327232281390D+01

 The electronic state is 1-AG.
 Alpha  occ. eigenvalues --   -0.80003  -0.67017  -0.43709  -0.21590
 Alpha virt. eigenvalues --    0.07090   0.10808   0.28270   0.52401

 Mulliken charges:
               1
     1  H    0.043385
     2  H   -0.079806
     3  H   -0.153970
     4  H    0.190391
     5  H    0.190391
     6  H   -0.153970
     7  H   -0.079806
     8  H    0.043385
 Sum of Mulliken charges =   0.00000

 Dipole moment (field-independent basis, Debye):
    X=              0.0000    Y=             -0.0000    Z=              0.0000  Tot=              0.0000
 Quadrupole moment (field-independent basis, Debye-Ang):
   XX=            -13.5760   YY=            -11.2980   ZZ=            -10.5522
   XY=             -0.1035   XZ=              0.0000   YZ=              0.0000

 Normal termination of Gaussian 09 at Thu Feb  9 15:17:48 2017.
