 Gaussian 09, Revision E.01,
 Gaussian 09:  ES64L-G09RevE.01 30-Nov-2015

 ----------------------------------------------------------------------
 #rhf/gen scf(symm,tight,novaracc,noincfock,fulldiag) stable(crhf) geom
 =nocrowd test
 ----------------------------------------------------------------------

 hf stability analysis of h10 triangular lattice, y= 0.4273077573934040
 4
 ----------------------------------------------------------------------
 Symbolic Z-matrix:
 Charge =  0 Multiplicity = 1

                         Standard orientation:
 ---------------------------------------------------------------------
 Center     Atomic      Atomic             Coordinates (Angstroms)
 Number     Number       Type             X           Y           Z
 ---------------------------------------------------------------------
      1          1           0        1.351135    0.854615    0.000000
      2          1           0        2.702269    0.427308   -0.000000
      3          1           0        0.000000    0.427308    0.000000
      4          1           0        1.351135    0.000000   -0.000000
      5          1           0       -1.351135    0.000000   -0.000000
      6          1           0       -0.000000   -0.427308    0.000000
      7          1           0       -2.702269   -0.427308   -0.000000
      8          1           0       -1.351135   -0.854615    0.000000
 ---------------------------------------------------------------------

 SCF Done:  E(RHF) =  -3.82844517183     A.U. after   11 cycles
 E2 =    -0.1467186454D+00 EUMP2 =    -0.39751638172515D+01

 The electronic state is 1-AG.
 Alpha  occ. eigenvalues --   -0.80762  -0.67975  -0.48505  -0.16852
 Alpha virt. eigenvalues --    0.02632   0.11038   0.29863   0.52270

 Mulliken charges:
               1
     1  H    0.062091
     2  H   -0.179074
     3  H   -0.008912
     4  H    0.125895
     5  H    0.125895
     6  H   -0.008912
     7  H   -0.179074
     8  H    0.062091
 Sum of Mulliken charges =  -0.00000

 Dipole moment (field-independent basis, Debye):
    X=             -0.0000    Y=              0.0000    Z=              0.0000  Tot=              0.0000
 Quadrupole moment (field-independent basis, Debye-Ang):
   XX=            -23.2413   YY=             -9.5693   ZZ=            -10.4398
   XY=             -1.8895   XZ=             -0.0000   YZ=              0.0000

 Normal termination of Gaussian 09 at Thu Feb  9 15:20:15 2017.
