 Gaussian 09, Revision E.01,
 Gaussian 09:  ES64L-G09RevE.01 30-Nov-2015

 ----------------------------------------------------------------------
 #rhf/gen scf(symm,tight,novaracc,noincfock,fulldiag) stable(crhf) geom
 =nocrowd test
 ----------------------------------------------------------------------

 hf stability analysis of h10 triangular lattice, y= 0.7134442881230709
 2
 ----------------------------------------------------------------------
 Symbolic Z-matrix:
 Charge =  0 Multiplicity = 1

                         Standard orientation:
 ---------------------------------------------------------------------
 Center     Atomic      Atomic             Coordinates (Angstroms)
 Number     Number       Type             X           Y           Z
 ---------------------------------------------------------------------
      1          1           0        0.809244    1.426889   -0.000000
      2          1           0        1.618487    0.713444   -0.000000
      3          1           0        0.000000    0.713444   -0.000000
      4          1           0        0.809244   -0.000000   -0.000000
      5          1           0       -0.809244    0.000000   -0.000000
      6          1           0       -0.000000   -0.713444   -0.000000
      7          1           0       -1.618487   -0.713444   -0.000000
      8          1           0       -0.809244   -1.426889   -0.000000
 ---------------------------------------------------------------------

 SCF Done:  E(RHF) =  -3.97772302346     A.U. after    9 cycles
 E2 =    -0.8226481609D-01 EUMP2 =    -0.40599878395455D+01

 The electronic state is 1-AG.
 Alpha  occ. eigenvalues --   -0.85113  -0.66504  -0.40708  -0.39750
 Alpha virt. eigenvalues --    0.04148   0.25202   0.38007   0.81573

 Mulliken charges:
               1
     1  H    0.057990
     2  H   -0.013975
     3  H   -0.081817
     4  H    0.037801
     5  H    0.037801
     6  H   -0.081817
     7  H   -0.013975
     8  H    0.057990
 Sum of Mulliken charges =  -0.00000

 Dipole moment (field-independent basis, Debye):
    X=              0.0000    Y=              0.0000    Z=             -0.0000  Tot=              0.0000
 Quadrupole moment (field-independent basis, Debye-Ang):
   XX=            -11.7909   YY=            -11.2770   ZZ=            -10.4463
   XY=              0.2230   XZ=              0.0000   YZ=             -0.0000

 Normal termination of Gaussian 09 at Thu Feb  9 15:02:26 2017.
