 Gaussian 09, Revision E.01,
 Gaussian 09:  ES64L-G09RevE.01 30-Nov-2015

 ----------------------------------------------------------------------
 #rhf/gen scf(symm,tight,novaracc,noincfock,fulldiag) stable(crhf) geom
 =nocrowd test
 ----------------------------------------------------------------------

 hf stability analysis of h10 triangular lattice, y= 0.5176843446407349
 8
 ----------------------------------------------------------------------
 Symbolic Z-matrix:
 Charge =  0 Multiplicity = 1

                         Standard orientation:
 ---------------------------------------------------------------------
 Center     Atomic      Atomic             Coordinates (Angstroms)
 Number     Number       Type             X           Y           Z
 ---------------------------------------------------------------------
      1          1           0        1.115255    1.035369    0.000000
      2          1           0        2.230511    0.517684    0.000000
      3          1           0        0.000000    0.517684    0.000000
      4          1           0        1.115255    0.000000    0.000000
      5          1           0       -1.115255    0.000000    0.000000
      6          1           0       -0.000000   -0.517684    0.000000
      7          1           0       -2.230511   -0.517684    0.000000
      8          1           0       -1.115255   -1.035369    0.000000
 ---------------------------------------------------------------------

 SCF Done:  E(RHF) =  -3.89399839051     A.U. after   10 cycles
 E2 =    -0.8752137176D-01 EUMP2 =    -0.39815197622713D+01

 The electronic state is 1-AG.
 Alpha  occ. eigenvalues --   -0.80545  -0.66529  -0.41685  -0.27668
 Alpha virt. eigenvalues --    0.08500   0.12016   0.37776   0.51223

 Mulliken charges:
               1
     1  H    0.062265
     2  H   -0.006624
     3  H   -0.224808
     4  H    0.169167
     5  H    0.169167
     6  H   -0.224808
     7  H   -0.006624
     8  H    0.062265
 Sum of Mulliken charges =   0.00000

 Dipole moment (field-independent basis, Debye):
    X=              0.0000    Y=              0.0000    Z=              0.0000  Tot=              0.0000
 Quadrupole moment (field-independent basis, Debye-Ang):
   XX=             -9.0202   YY=            -12.0049   ZZ=            -10.5958
   XY=              1.2655   XZ=             -0.0000   YZ=              0.0000

 Normal termination of Gaussian 09 at Thu Feb  9 15:14:43 2017.
