 Gaussian 09, Revision E.01,
 Gaussian 09:  ES64L-G09RevE.01 30-Nov-2015

 ----------------------------------------------------------------------
 #rhf/gen scf(symm,tight,novaracc,noincfock,fulldiag) stable(crhf) geom
 =nocrowd test
 ----------------------------------------------------------------------

 hf stability analysis of h10 triangular lattice, y= 0.5668765722059677
 7
 ----------------------------------------------------------------------
 Symbolic Z-matrix:
 Charge =  0 Multiplicity = 1

                         Standard orientation:
 ---------------------------------------------------------------------
 Center     Atomic      Atomic             Coordinates (Angstroms)
 Number     Number       Type             X           Y           Z
 ---------------------------------------------------------------------
      1          1           0        1.018476    1.133753    0.000000
      2          1           0        2.036952    0.566877    0.000000
      3          1           0        0.000000    0.566877    0.000000
      4          1           0        1.018476    0.000000    0.000000
      5          1           0       -1.018476    0.000000    0.000000
      6          1           0       -0.000000   -0.566877    0.000000
      7          1           0       -2.036952   -0.566877    0.000000
      8          1           0       -1.018476   -1.133753    0.000000
 ---------------------------------------------------------------------

 SCF Done:  E(RHF) =  -3.94490279970     A.U. after   10 cycles
 E2 =    -0.8148108118D-01 EUMP2 =    -0.40263838808818D+01

 The electronic state is 1-AG.
 Alpha  occ. eigenvalues --   -0.82328  -0.66699  -0.41032  -0.32939
 Alpha virt. eigenvalues --    0.09244   0.13001   0.47738   0.50844

 Mulliken charges:
               1
     1  H    0.095643
     2  H   -0.024825
     3  H   -0.216658
     4  H    0.145840
     5  H    0.145840
     6  H   -0.216658
     7  H   -0.024825
     8  H    0.095643
 Sum of Mulliken charges =   0.00000

 Dipole moment (field-independent basis, Debye):
    X=             -0.0000    Y=             -0.0000    Z=              0.0000  Tot=              0.0000
 Quadrupole moment (field-independent basis, Debye-Ang):
   XX=            -10.2519   YY=            -11.5933   ZZ=            -10.5555
   XY=              1.2282   XZ=             -0.0000   YZ=             -0.0000

 Normal termination of Gaussian 09 at Thu Feb  9 15:11:33 2017.
