 Gaussian 09, Revision E.01,
 Gaussian 09:  ES64L-G09RevE.01 30-Nov-2015

 ----------------------------------------------------------------------
 #rhf/gen scf(symm,tight,novaracc,noincfock,fulldiag) stable(crhf) geom
 =nocrowd test
 ----------------------------------------------------------------------

 hf stability analysis of h10 triangular lattice, y= 0.6488536607531206
 8
 ----------------------------------------------------------------------
 Symbolic Z-matrix:
 Charge =  0 Multiplicity = 1

                         Standard orientation:
 ---------------------------------------------------------------------
 Center     Atomic      Atomic             Coordinates (Angstroms)
 Number     Number       Type             X           Y           Z
 ---------------------------------------------------------------------
      1          1           0        0.889800    1.297707    0.000000
      2          1           0        1.779601    0.648854   -0.000000
      3          1           0        0.000000    0.648854    0.000000
      4          1           0        0.889800    0.000000   -0.000000
      5          1           0       -0.889800    0.000000   -0.000000
      6          1           0       -0.000000   -0.648854   -0.000000
      7          1           0       -1.779601   -0.648854   -0.000000
      8          1           0       -0.889800   -1.297707   -0.000000
 ---------------------------------------------------------------------

 SCF Done:  E(RHF) =  -3.97532802989     A.U. after   10 cycles
 E2 =    -0.8020477621D-01 EUMP2 =    -0.40555328061037D+01

 The electronic state is 1-AG.
 Alpha  occ. eigenvalues --   -0.84416  -0.66674  -0.40163  -0.38673
 Alpha virt. eigenvalues --    0.05522   0.20658   0.41754   0.71323

 Mulliken charges:
               1
     1  H    0.098122
     2  H   -0.042176
     3  H   -0.159027
     4  H    0.103081
     5  H    0.103081
     6  H   -0.159027
     7  H   -0.042176
     8  H    0.098122
 Sum of Mulliken charges =   0.00000

 Dipole moment (field-independent basis, Debye):
    X=             -0.0000    Y=             -0.0000    Z=             -0.0000  Tot=              0.0000
 Quadrupole moment (field-independent basis, Debye-Ang):
   XX=            -11.7540   YY=            -11.1355   ZZ=            -10.4814
   XY=              0.6073   XZ=              0.0000   YZ=             -0.0000

 Normal termination of Gaussian 09 at Thu Feb  9 15:06:18 2017.
