 Gaussian 09, Revision E.01,
 Gaussian 09:  ES64L-G09RevE.01 30-Nov-2015

 ----------------------------------------------------------------------
 #rhf/gen scf(symm,tight,novaracc,noincfock,fulldiag) stable(crhf) geom
 =nocrowd test
 ----------------------------------------------------------------------

 hf stability analysis of h10 triangular lattice, y= 0.6405478082930795
 6
 ----------------------------------------------------------------------
 Symbolic Z-matrix:
 Charge =  0 Multiplicity = 1

                         Standard orientation:
 ---------------------------------------------------------------------
 Center     Atomic      Atomic             Coordinates (Angstroms)
 Number     Number       Type             X           Y           Z
 ---------------------------------------------------------------------
      1          1           0        0.901338    1.281096    0.000000
      2          1           0        1.802677    0.640548    0.000000
      3          1           0        0.000000    0.640548    0.000000
      4          1           0        0.901338    0.000000    0.000000
      5          1           0       -0.901338    0.000000   -0.000000
      6          1           0       -0.000000   -0.640548    0.000000
      7          1           0       -1.802677   -0.640548   -0.000000
      8          1           0       -0.901338   -1.281096    0.000000
 ---------------------------------------------------------------------

 SCF Done:  E(RHF) =  -3.97424087339     A.U. after   10 cycles
 E2 =    -0.8001987942D-01 EUMP2 =    -0.40542607528122D+01

 The electronic state is 1-AG.
 Alpha  occ. eigenvalues --   -0.84272  -0.66695  -0.40239  -0.38264
 Alpha virt. eigenvalues --    0.05797   0.19943   0.42324   0.69512

 Mulliken charges:
               1
     1  H    0.101010
     2  H   -0.043150
     3  H   -0.167186
     4  H    0.109326
     5  H    0.109326
     6  H   -0.167186
     7  H   -0.043150
     8  H    0.101010
 Sum of Mulliken charges =  -0.00000

 Dipole moment (field-independent basis, Debye):
    X=              0.0000    Y=             -0.0000    Z=              0.0000  Tot=              0.0000
 Quadrupole moment (field-independent basis, Debye-Ang):
   XX=            -11.6880   YY=            -11.1493   ZZ=            -10.4877
   XY=              0.6719   XZ=             -0.0000   YZ=              0.0000

 Normal termination of Gaussian 09 at Thu Feb  9 15:06:49 2017.
