 Gaussian 09, Revision E.01,
 Gaussian 09:  ES64L-G09RevE.01 30-Nov-2015

 ----------------------------------------------------------------------
 #rhf/gen scf(symm,tight,novaracc,noincfock,fulldiag) stable(crhf) geom
 =nocrowd test
 ----------------------------------------------------------------------

 hf stability analysis of h10 triangular lattice, y= 0.3960588352140311
 8
 ----------------------------------------------------------------------
 Symbolic Z-matrix:
 Charge =  0 Multiplicity = 1

                         Standard orientation:
 ---------------------------------------------------------------------
 Center     Atomic      Atomic             Coordinates (Angstroms)
 Number     Number       Type             X           Y           Z
 ---------------------------------------------------------------------
      1          1           0        1.457739    0.792118   -0.000000
      2          1           0        2.915477    0.396059   -0.000000
      3          1           0        0.000000    0.396059   -0.000000
      4          1           0        1.457739    0.000000   -0.000000
      5          1           0       -1.457739    0.000000   -0.000000
      6          1           0       -0.000000   -0.396059   -0.000000
      7          1           0       -2.915477   -0.396059   -0.000000
      8          1           0       -1.457739   -0.792118   -0.000000
 ---------------------------------------------------------------------

 SCF Done:  E(RHF) =  -3.86152894626     A.U. after   10 cycles
 E2 =    -0.2377029732D+00 EUMP2 =    -0.40992319195087D+01

 The electronic state is 1-AG.
 Alpha  occ. eigenvalues --   -0.79139  -0.67796  -0.51826  -0.16634
 Alpha virt. eigenvalues --   -0.02810   0.16960   0.34348   0.54996

 Mulliken charges:
               1
     1  H    0.050763
     2  H   -0.147902
     3  H    0.027739
     4  H    0.069400
     5  H    0.069400
     6  H    0.027739
     7  H   -0.147902
     8  H    0.050763
 Sum of Mulliken charges =   0.00000

 Dipole moment (field-independent basis, Debye):
    X=              0.0000    Y=              0.0000    Z=              0.0000  Tot=              0.0000
 Quadrupole moment (field-independent basis, Debye-Ang):
   XX=            -23.9257   YY=             -9.1845   ZZ=            -10.4314
   XY=             -1.8197   XZ=             -0.0000   YZ=             -0.0000

 Normal termination of Gaussian 09 at Thu Feb  9 15:22:00 2017.
