 Gaussian 09, Revision E.01,
 Gaussian 09:  ES64L-G09RevE.01 30-Nov-2015

 ----------------------------------------------------------------------
 #rhf/gen scf(symm,tight,novaracc,noincfock,fulldiag) stable(crhf) geom
 =nocrowd test
 ----------------------------------------------------------------------

 hf stability analysis of h10 triangular lattice, y= 0.4155289977820150
 7
 ----------------------------------------------------------------------
 Symbolic Z-matrix:
 Charge =  0 Multiplicity = 1

                         Standard orientation:
 ---------------------------------------------------------------------
 Center     Atomic      Atomic             Coordinates (Angstroms)
 Number     Number       Type             X           Y           Z
 ---------------------------------------------------------------------
      1          1           0        1.389434    0.831058    0.000000
      2          1           0        2.778869    0.415529   -0.000000
      3          1           0        0.000000    0.415529    0.000000
      4          1           0        1.389434    0.000000   -0.000000
      5          1           0       -1.389434    0.000000   -0.000000
      6          1           0       -0.000000   -0.415529    0.000000
      7          1           0       -2.778869   -0.415529   -0.000000
      8          1           0       -1.389434   -0.831058   -0.000000
 ---------------------------------------------------------------------

 SCF Done:  E(RHF) =  -3.84004104535     A.U. after   11 cycles
 E2 =    -0.1793613656D+00 EUMP2 =    -0.40194024109920D+01

 The electronic state is 1-AG.
 Alpha  occ. eigenvalues --   -0.80439  -0.67996  -0.49916  -0.16385
 Alpha virt. eigenvalues --    0.00441   0.13006   0.31373   0.52999

 Mulliken charges:
               1
     1  H    0.060535
     2  H   -0.177735
     3  H    0.016104
     4  H    0.101096
     5  H    0.101096
     6  H    0.016104
     7  H   -0.177735
     8  H    0.060535
 Sum of Mulliken charges =   0.00000

 Dipole moment (field-independent basis, Debye):
    X=              0.0000    Y=              0.0000    Z=              0.0000  Tot=              0.0000
 Quadrupole moment (field-independent basis, Debye-Ang):
   XX=            -24.4036   YY=             -9.3083   ZZ=            -10.4262
   XY=             -2.0217   XZ=             -0.0000   YZ=             -0.0000

 Normal termination of Gaussian 09 at Thu Feb  9 15:20:55 2017.
