 Gaussian 09, Revision E.01,
 Gaussian 09:  ES64L-G09RevE.01 30-Nov-2015

 ----------------------------------------------------------------------
 #rhf/gen scf(symm,tight,novaracc,noincfock,fulldiag) stable(crhf) geom
 =nocrowd test
 ----------------------------------------------------------------------

 hf stability analysis of h10 triangular lattice, y= 0.6984975479441348
 8
 ----------------------------------------------------------------------
 Symbolic Z-matrix:
 Charge =  0 Multiplicity = 1

                         Standard orientation:
 ---------------------------------------------------------------------
 Center     Atomic      Atomic             Coordinates (Angstroms)
 Number     Number       Type             X           Y           Z
 ---------------------------------------------------------------------
      1          1           0        0.826560    1.396995   -0.000000
      2          1           0        1.653120    0.698498   -0.000000
      3          1           0       -0.000000    0.698498   -0.000000
      4          1           0        0.826560    0.000000   -0.000000
      5          1           0       -0.826560   -0.000000    0.000000
      6          1           0        0.000000   -0.698498   -0.000000
      7          1           0       -1.653120   -0.698498   -0.000000
      8          1           0       -0.826560   -1.396995   -0.000000
 ---------------------------------------------------------------------

 SCF Done:  E(RHF) =  -3.97770604726     A.U. after   10 cycles
 E2 =    -0.8181165909D-01 EUMP2 =    -0.40595177063584D+01

 The electronic state is 1-AG.
 Alpha  occ. eigenvalues --   -0.85012  -0.66538  -0.40404  -0.39816
 Alpha virt. eigenvalues --    0.04352   0.24362   0.38720   0.79895

 Mulliken charges:
               1
     1  H    0.069361
     2  H   -0.023287
     3  H   -0.101276
     4  H    0.055202
     5  H    0.055202
     6  H   -0.101276
     7  H   -0.023287
     8  H    0.069361
 Sum of Mulliken charges =  -0.00000

 Dipole moment (field-independent basis, Debye):
    X=             -0.0000    Y=             -0.0000    Z=             -0.0000  Tot=              0.0000
 Quadrupole moment (field-independent basis, Debye-Ang):
   XX=            -11.8401   YY=            -11.2109   ZZ=            -10.4519
   XY=              0.2877   XZ=              0.0000   YZ=              0.0000

 Normal termination of Gaussian 09 at Thu Feb  9 15:03:14 2017.
