 Gaussian 09, Revision E.01,
 Gaussian 09:  ES64L-G09RevE.01 30-Nov-2015

 ----------------------------------------------------------------------
 #rhf/gen scf(symm,tight,novaracc,noincfock,fulldiag) stable(crhf) geom
 =nocrowd test
 ----------------------------------------------------------------------

 hf stability analysis of h10 triangular lattice, y= 0.6935633555650045
 9
 ----------------------------------------------------------------------
 Symbolic Z-matrix:
 Charge =  0 Multiplicity = 1

                         Standard orientation:
 ---------------------------------------------------------------------
 Center     Atomic      Atomic             Coordinates (Angstroms)
 Number     Number       Type             X           Y           Z
 ---------------------------------------------------------------------
      1          1           0        0.832441    1.387127   -0.000000
      2          1           0        1.664881    0.693563   -0.000000
      3          1           0       -0.000000    0.693563   -0.000000
      4          1           0        0.832441    0.000000   -0.000000
      5          1           0       -0.832441    0.000000   -0.000000
      6          1           0       -0.000000   -0.693563   -0.000000
      7          1           0       -1.664881   -0.693563   -0.000000
      8          1           0       -0.832441   -1.387127   -0.000000
 ---------------------------------------------------------------------

 SCF Done:  E(RHF) =  -3.97766431942     A.U. after   10 cycles
 E2 =    -0.8164737504D-01 EUMP2 =    -0.40593116944618D+01

 The electronic state is 1-AG.
 Alpha  occ. eigenvalues --   -0.84971  -0.66550  -0.40283  -0.39842
 Alpha virt. eigenvalues --    0.04434   0.24050   0.38982   0.79242

 Mulliken charges:
               1
     1  H    0.072919
     2  H   -0.026054
     3  H   -0.107558
     4  H    0.060693
     5  H    0.060693
     6  H   -0.107558
     7  H   -0.026054
     8  H    0.072919
 Sum of Mulliken charges =  -0.00000

 Dipole moment (field-independent basis, Debye):
    X=             -0.0000    Y=             -0.0000    Z=             -0.0000  Tot=              0.0000
 Quadrupole moment (field-independent basis, Debye-Ang):
   XX=            -11.8505   YY=            -11.1927   ZZ=            -10.4541
   XY=              0.3127   XZ=              0.0000   YZ=              0.0000

 Normal termination of Gaussian 09 at Thu Feb  9 15:03:30 2017.
