 Gaussian 09, Revision E.01,
 Gaussian 09:  ES64L-G09RevE.01 30-Nov-2015

 ----------------------------------------------------------------------
 #rhf/gen scf(symm,tight,novaracc,noincfock,fulldiag) stable(crhf) geom
 =nocrowd test
 ----------------------------------------------------------------------

 hf stability analysis of h10 triangular lattice, y= 0.3419629335868121
 8
 ----------------------------------------------------------------------
 Symbolic Z-matrix:
 Charge =  0 Multiplicity = 1

                         Standard orientation:
 ---------------------------------------------------------------------
 Center     Atomic      Atomic             Coordinates (Angstroms)
 Number     Number       Type             X           Y           Z
 ---------------------------------------------------------------------
      1          1           0        1.688342    0.683926   -0.000000
      2          1           0        3.376683    0.341963   -0.000000
      3          1           0        0.000000    0.341963    0.000000
      4          1           0        1.688342    0.000000   -0.000000
      5          1           0       -1.688342    0.000000    0.000000
      6          1           0       -0.000000   -0.341963    0.000000
      7          1           0       -3.376683   -0.341963    0.000000
      8          1           0       -1.688342   -0.683926    0.000000
 ---------------------------------------------------------------------

 SCF Done:  E(RHF) =  -3.88339990961     A.U. after    8 cycles
 E2 =    -0.4208310181D+00 EUMP2 =    -0.43042309277476D+01

 The electronic state is 1-AG.
 Alpha  occ. eigenvalues --   -0.74965  -0.67544  -0.57139  -0.18988
 Alpha virt. eigenvalues --   -0.09909   0.29775   0.43776   0.61268

 Mulliken charges:
               1
     1  H    0.018556
     2  H   -0.048993
     3  H    0.009938
     4  H    0.020500
     5  H    0.020500
     6  H    0.009938
     7  H   -0.048993
     8  H    0.018556
 Sum of Mulliken charges =   0.00000

 Dipole moment (field-independent basis, Debye):
    X=             -0.0000    Y=              0.0000    Z=             -0.0000  Tot=              0.0000
 Quadrupole moment (field-independent basis, Debye-Ang):
   XX=            -18.1562   YY=             -9.4165   ZZ=            -10.5124
   XY=             -0.8022   XZ=              0.0000   YZ=              0.0000

 Normal termination of Gaussian 09 at Thu Feb  9 15:24:47 2017.
