 Gaussian 09, Revision E.01,
 Gaussian 09:  ES64L-G09RevE.01 30-Nov-2015

 ----------------------------------------------------------------------
 #rhf/gen scf(symm,tight,novaracc,noincfock,fulldiag) stable(crhf) geom
 =nocrowd test
 ----------------------------------------------------------------------

 hf stability analysis of h10 triangular lattice, y= 0.4908350816922412
 7
 ----------------------------------------------------------------------
 Symbolic Z-matrix:
 Charge =  0 Multiplicity = 1

                         Standard orientation:
 ---------------------------------------------------------------------
 Center     Atomic      Atomic             Coordinates (Angstroms)
 Number     Number       Type             X           Y           Z
 ---------------------------------------------------------------------
      1          1           0        1.176261    0.981670    0.000000
      2          1           0        2.352522    0.490835   -0.000000
      3          1           0        0.000000    0.490835    0.000000
      4          1           0        1.176261   -0.000000   -0.000000
      5          1           0       -1.176261    0.000000   -0.000000
      6          1           0       -0.000000   -0.490835   -0.000000
      7          1           0       -2.352522   -0.490835   -0.000000
      8          1           0       -1.176261   -0.981670   -0.000000
 ---------------------------------------------------------------------

 SCF Done:  E(RHF) =  -3.85668307816     A.U. after   10 cycles
 E2 =    -0.9446079760D-01 EUMP2 =    -0.39511438757648D+01

 The electronic state is 1-AG.
 Alpha  occ. eigenvalues --   -0.79912  -0.66617  -0.42395  -0.24427
 Alpha virt. eigenvalues --    0.06977   0.12597   0.31463   0.52367

 Mulliken charges:
               1
     1  H    0.043523
     2  H   -0.026580
     3  H   -0.205146
     4  H    0.188204
     5  H    0.188204
     6  H   -0.205146
     7  H   -0.026580
     8  H    0.043523
 Sum of Mulliken charges =   0.00000

 Dipole moment (field-independent basis, Debye):
    X=             -0.0000    Y=              0.0000    Z=             -0.0000  Tot=              0.0000
 Quadrupole moment (field-independent basis, Debye-Ang):
   XX=            -10.0201   YY=            -11.9121   ZZ=            -10.5915
   XY=              0.7858   XZ=              0.0000   YZ=             -0.0000

 Normal termination of Gaussian 09 at Thu Feb  9 15:16:24 2017.
