 Gaussian 09, Revision E.01,
 Gaussian 09:  ES64L-G09RevE.01 30-Nov-2015

 ----------------------------------------------------------------------
 #rhf/gen scf(symm,tight,novaracc,noincfock,fulldiag) stable(crhf) geom
 =nocrowd test
 ----------------------------------------------------------------------

 hf stability analysis of h10 triangular lattice, y= 0.5165010023359164
 5
 ----------------------------------------------------------------------
 Symbolic Z-matrix:
 Charge =  0 Multiplicity = 1

                         Standard orientation:
 ---------------------------------------------------------------------
 Center     Atomic      Atomic             Coordinates (Angstroms)
 Number     Number       Type             X           Y           Z
 ---------------------------------------------------------------------
      1          1           0        1.117811    1.033002   -0.000000
      2          1           0        2.235621    0.516501    0.000000
      3          1           0        0.000000    0.516501   -0.000000
      4          1           0        1.117811    0.000000    0.000000
      5          1           0       -1.117811    0.000000    0.000000
      6          1           0       -0.000000   -0.516501   -0.000000
      7          1           0       -2.235621   -0.516501    0.000000
      8          1           0       -1.117811   -1.033002   -0.000000
 ---------------------------------------------------------------------

 SCF Done:  E(RHF) =  -3.89242701326     A.U. after   10 cycles
 E2 =    -0.8775353680D-01 EUMP2 =    -0.39801805500588D+01

 The electronic state is 1-AG.
 Alpha  occ. eigenvalues --   -0.80506  -0.66527  -0.41706  -0.27528
 Alpha virt. eigenvalues --    0.08409   0.12070   0.37475   0.51293

 Mulliken charges:
               1
     1  H    0.061288
     2  H   -0.006709
     3  H   -0.224551
     4  H    0.169972
     5  H    0.169972
     6  H   -0.224551
     7  H   -0.006709
     8  H    0.061288
 Sum of Mulliken charges =  -0.00000

 Dipole moment (field-independent basis, Debye):
    X=              0.0000    Y=              0.0000    Z=              0.0000  Tot=              0.0000
 Quadrupole moment (field-independent basis, Debye-Ang):
   XX=             -9.0160   YY=            -12.0101   ZZ=            -10.5963
   XY=              1.2558   XZ=              0.0000   YZ=             -0.0000

 Normal termination of Gaussian 09 at Thu Feb  9 15:14:48 2017.
