 Gaussian 09, Revision E.01,
 Gaussian 09:  ES64L-G09RevE.01 30-Nov-2015

 ----------------------------------------------------------------------
 #rhf/gen scf(symm,tight,novaracc,noincfock,fulldiag) stable(crhf) geom
 =nocrowd test
 ----------------------------------------------------------------------

 hf stability analysis of h10 triangular lattice, y= 0.2937440693806230
 9
 ----------------------------------------------------------------------
 Symbolic Z-matrix:
 Charge =  0 Multiplicity = 1

                         Standard orientation:
 ---------------------------------------------------------------------
 Center     Atomic      Atomic             Coordinates (Angstroms)
 Number     Number       Type             X           Y           Z
 ---------------------------------------------------------------------
      1          1           0        1.965487    0.587488   -0.000000
      2          1           0        3.930975    0.293744    0.000000
      3          1           0        0.000000    0.293744   -0.000000
      4          1           0        1.965487    0.000000    0.000000
      5          1           0       -1.965487    0.000000    0.000000
      6          1           0       -0.000000   -0.293744    0.000000
      7          1           0       -3.930975   -0.293744    0.000000
      8          1           0       -1.965487   -0.587488    0.000000
 ---------------------------------------------------------------------

 SCF Done:  E(RHF) =  -3.79958863409     A.U. after    6 cycles
 E2 =    -0.5896639985D+00 EUMP2 =    -0.43892526326307D+01

 The electronic state is 1-AG.
 Alpha  occ. eigenvalues --   -0.73185  -0.68848  -0.63149  -0.20541
 Alpha virt. eigenvalues --   -0.13585   0.41788   0.52546   0.65760

 Mulliken charges:
               1
     1  H    0.003957
     2  H   -0.007789
     3  H    0.001326
     4  H    0.002506
     5  H    0.002506
     6  H    0.001326
     7  H   -0.007789
     8  H    0.003957
 Sum of Mulliken charges =   0.00000

 Dipole moment (field-independent basis, Debye):
    X=              0.0000    Y=             -0.0000    Z=             -0.0000  Tot=              0.0000
 Quadrupole moment (field-independent basis, Debye-Ang):
   XX=            -14.0386   YY=             -9.7644   ZZ=            -10.6350
   XY=             -0.2771   XZ=              0.0000   YZ=             -0.0000

 Normal termination of Gaussian 09 at Thu Feb  9 15:26:59 2017.
