 Gaussian 09, Revision E.01,
 Gaussian 09:  ES64L-G09RevE.01 30-Nov-2015

 ----------------------------------------------------------------------
 #rhf/gen scf(symm,tight,novaracc,noincfock,fulldiag) stable(crhf) geom
 =nocrowd test
 ----------------------------------------------------------------------

 hf stability analysis of h10 triangular lattice, y= 0.6152458342516039
 5
 ----------------------------------------------------------------------
 Symbolic Z-matrix:
 Charge =  0 Multiplicity = 1

                         Standard orientation:
 ---------------------------------------------------------------------
 Center     Atomic      Atomic             Coordinates (Angstroms)
 Number     Number       Type             X           Y           Z
 ---------------------------------------------------------------------
      1          1           0        0.938406    1.230492    0.000000
      2          1           0        1.876812    0.615246   -0.000000
      3          1           0        0.000000    0.615246    0.000000
      4          1           0        0.938406    0.000000   -0.000000
      5          1           0       -0.938406    0.000000    0.000000
      6          1           0       -0.000000   -0.615246    0.000000
      7          1           0       -1.876812   -0.615246    0.000000
      8          1           0       -0.938406   -1.230492    0.000000
 ---------------------------------------------------------------------

 SCF Done:  E(RHF) =  -3.96880549446     A.U. after   10 cycles
 E2 =    -0.7980263810D-01 EUMP2 =    -0.40486081325660D+01

 The electronic state is 1-AG.
 Alpha  occ. eigenvalues --   -0.83741  -0.66739  -0.40491  -0.36789
 Alpha virt. eigenvalues --    0.06784   0.17654   0.44127   0.63516

 Mulliken charges:
               1
     1  H    0.105602
     2  H   -0.041980
     3  H   -0.188829
     4  H    0.125207
     5  H    0.125207
     6  H   -0.188829
     7  H   -0.041980
     8  H    0.105602
 Sum of Mulliken charges =   0.00000

 Dipole moment (field-independent basis, Debye):
    X=              0.0000    Y=             -0.0000    Z=             -0.0000  Tot=              0.0000
 Quadrupole moment (field-independent basis, Debye-Ang):
   XX=            -11.3712   YY=            -11.2406   ZZ=            -10.5092
   XY=              0.8759   XZ=             -0.0000   YZ=              0.0000

 Normal termination of Gaussian 09 at Thu Feb  9 15:08:26 2017.
