 Gaussian 09, Revision E.01,
 Gaussian 09:  ES64L-G09RevE.01 30-Nov-2015

 ----------------------------------------------------------------------
 #rhf/gen scf(symm,tight,novaracc,noincfock,fulldiag) stable(crhf) geom
 =nocrowd test
 ----------------------------------------------------------------------

 hf stability analysis of h10 triangular lattice, y= 0.3066389812720254
 9
 ----------------------------------------------------------------------
 Symbolic Z-matrix:
 Charge =  0 Multiplicity = 1

                         Standard orientation:
 ---------------------------------------------------------------------
 Center     Atomic      Atomic             Coordinates (Angstroms)
 Number     Number       Type             X           Y           Z
 ---------------------------------------------------------------------
      1          1           0        1.882834    0.613278   -0.000000
      2          1           0        3.765668    0.306639   -0.000000
      3          1           0        0.000000    0.306639   -0.000000
      4          1           0        1.882834    0.000000   -0.000000
      5          1           0       -1.882834    0.000000   -0.000000
      6          1           0       -0.000000   -0.306639    0.000000
      7          1           0       -3.765668   -0.306639   -0.000000
      8          1           0       -1.882834   -0.613278   -0.000000
 ---------------------------------------------------------------------

 SCF Done:  E(RHF) =  -3.83536524168     A.U. after    7 cycles
 E2 =    -0.5465933772D+00 EUMP2 =    -0.43819586188350D+01

 The electronic state is 1-AG.
 Alpha  occ. eigenvalues --   -0.73440  -0.68336  -0.61452  -0.20230
 Alpha virt. eigenvalues --   -0.12826   0.38519   0.50171   0.64640

 Mulliken charges:
               1
     1  H    0.006454
     2  H   -0.014416
     3  H    0.002510
     4  H    0.005453
     5  H    0.005453
     6  H    0.002510
     7  H   -0.014416
     8  H    0.006454
 Sum of Mulliken charges =  -0.00000

 Dipole moment (field-independent basis, Debye):
    X=             -0.0000    Y=             -0.0000    Z=              0.0000  Tot=              0.0000
 Quadrupole moment (field-independent basis, Debye-Ang):
   XX=            -14.9036   YY=             -9.6660   ZZ=            -10.5983
   XY=             -0.3770   XZ=              0.0000   YZ=             -0.0000

 Normal termination of Gaussian 09 at Thu Feb  9 15:26:26 2017.
