 Gaussian 09, Revision E.01,
 Gaussian 09:  ES64L-G09RevE.01 30-Nov-2015

 ----------------------------------------------------------------------
 #rhf/gen scf(symm,tight,novaracc,noincfock,fulldiag) stable(crhf) geom
 =nocrowd test
 ----------------------------------------------------------------------

 hf stability analysis of h10 triangular lattice, y= 0.5505594226000682
 9
 ----------------------------------------------------------------------
 Symbolic Z-matrix:
 Charge =  0 Multiplicity = 1

                         Standard orientation:
 ---------------------------------------------------------------------
 Center     Atomic      Atomic             Coordinates (Angstroms)
 Number     Number       Type             X           Y           Z
 ---------------------------------------------------------------------
      1          1           0        1.048661    1.101119    0.000000
      2          1           0        2.097322    0.550559    0.000000
      3          1           0        0.000000    0.550559    0.000000
      4          1           0        1.048661    0.000000    0.000000
      5          1           0       -1.048661    0.000000    0.000000
      6          1           0       -0.000000   -0.550559    0.000000
      7          1           0       -2.097322   -0.550559    0.000000
      8          1           0       -1.048661   -1.101119    0.000000
 ---------------------------------------------------------------------

 SCF Done:  E(RHF) =  -3.93131593777     A.U. after    9 cycles
 E2 =    -0.8286420486D-01 EUMP2 =    -0.40141801426339D+01

 The electronic state is 1-AG.
 Alpha  occ. eigenvalues --   -0.81746  -0.66644  -0.41225  -0.31328
 Alpha virt. eigenvalues --    0.10193   0.11425   0.46448   0.48959

 Mulliken charges:
               1
     1  H    0.086823
     2  H   -0.016700
     3  H   -0.222154
     4  H    0.152031
     5  H    0.152031
     6  H   -0.222154
     7  H   -0.016700
     8  H    0.086823
 Sum of Mulliken charges =   0.00000

 Dipole moment (field-independent basis, Debye):
    X=              0.0000    Y=             -0.0000    Z=              0.0000  Tot=              0.0000
 Quadrupole moment (field-independent basis, Debye-Ang):
   XX=             -9.7612   YY=            -11.7443   ZZ=            -10.5711
   XY=              1.3039   XZ=             -0.0000   YZ=             -0.0000

 Normal termination of Gaussian 09 at Thu Feb  9 15:12:37 2017.
