 Gaussian 09, Revision E.01,
 Gaussian 09:  ES64L-G09RevE.01 30-Nov-2015

 ----------------------------------------------------------------------
 #rhf/gen scf(symm,tight,novaracc,noincfock,fulldiag) stable(crhf) geom
 =nocrowd test
 ----------------------------------------------------------------------

 hf stability analysis of h10 triangular lattice, y= 0.4305425621430090
 7
 ----------------------------------------------------------------------
 Symbolic Z-matrix:
 Charge =  0 Multiplicity = 1

                         Standard orientation:
 ---------------------------------------------------------------------
 Center     Atomic      Atomic             Coordinates (Angstroms)
 Number     Number       Type             X           Y           Z
 ---------------------------------------------------------------------
      1          1           0        1.340983    0.861085   -0.000000
      2          1           0        2.681966    0.430543   -0.000000
      3          1           0        0.000000    0.430543   -0.000000
      4          1           0        1.340983    0.000000   -0.000000
      5          1           0       -1.340983    0.000000   -0.000000
      6          1           0       -0.000000   -0.430543   -0.000000
      7          1           0       -2.681966   -0.430543   -0.000000
      8          1           0       -1.340983   -0.861085   -0.000000
 ---------------------------------------------------------------------

 SCF Done:  E(RHF) =  -3.82590737346     A.U. after   11 cycles
 E2 =    -0.1391018629D+00 EUMP2 =    -0.39650092363167D+01

 The electronic state is 1-AG.
 Alpha  occ. eigenvalues --   -0.80774  -0.67939  -0.48082  -0.17086
 Alpha virt. eigenvalues --    0.03274   0.10564   0.29504   0.52158

 Mulliken charges:
               1
     1  H    0.061693
     2  H   -0.176199
     3  H   -0.018539
     4  H    0.133044
     5  H    0.133044
     6  H   -0.018539
     7  H   -0.176199
     8  H    0.061693
 Sum of Mulliken charges =   0.00000

 Dipole moment (field-independent basis, Debye):
    X=             -0.0000    Y=              0.0000    Z=              0.0000  Tot=              0.0000
 Quadrupole moment (field-independent basis, Debye-Ang):
   XX=            -22.6897   YY=             -9.6728   ZZ=            -10.4462
   XY=             -1.8076   XZ=             -0.0000   YZ=             -0.0000

 Normal termination of Gaussian 09 at Thu Feb  9 15:20:04 2017.
