 Gaussian 09, Revision E.01,
 Gaussian 09:  ES64L-G09RevE.01 30-Nov-2015

 ----------------------------------------------------------------------
 #rhf/gen scf(symm,tight,novaracc,noincfock,fulldiag) stable(crhf) geom
 =nocrowd test
 ----------------------------------------------------------------------

 hf stability analysis of h10 triangular lattice, y= 0.3326525389929410
 0
 ----------------------------------------------------------------------
 Symbolic Z-matrix:
 Charge =  0 Multiplicity = 1

                         Standard orientation:
 ---------------------------------------------------------------------
 Center     Atomic      Atomic             Coordinates (Angstroms)
 Number     Number       Type             X           Y           Z
 ---------------------------------------------------------------------
      1          1           0        1.735596    0.665305    0.000000
      2          1           0        3.471191    0.332653    0.000000
      3          1           0        0.000000    0.332653    0.000000
      4          1           0        1.735596    0.000000    0.000000
      5          1           0       -1.735596    0.000000    0.000000
      6          1           0       -0.000000   -0.332653    0.000000
      7          1           0       -3.471191   -0.332653    0.000000
      8          1           0       -1.735596   -0.665305    0.000000
 ---------------------------------------------------------------------

 SCF Done:  E(RHF) =  -3.87690083482     A.U. after    7 cycles
 E2 =    -0.4547595669D+00 EUMP2 =    -0.43316604017335D+01

 The electronic state is 1-AG.
 Alpha  occ. eigenvalues --   -0.74444  -0.67665  -0.58212  -0.19366
 Alpha virt. eigenvalues --   -0.10809   0.32062   0.45453   0.62220

 Mulliken charges:
               1
     1  H    0.014536
     2  H   -0.037233
     3  H    0.007269
     4  H    0.015428
     5  H    0.015428
     6  H    0.007269
     7  H   -0.037233
     8  H    0.014536
 Sum of Mulliken charges =  -0.00000

 Dipole moment (field-independent basis, Debye):
    X=             -0.0000    Y=             -0.0000    Z=             -0.0000  Tot=              0.0000
 Quadrupole moment (field-independent basis, Debye-Ang):
   XX=            -17.1813   YY=             -9.4784   ZZ=            -10.5326
   XY=             -0.6665   XZ=              0.0000   YZ=             -0.0000

 Normal termination of Gaussian 09 at Thu Feb  9 15:25:14 2017.
