 Gaussian 09, Revision E.01,
 Gaussian 09:  ES64L-G09RevE.01 30-Nov-2015

 ----------------------------------------------------------------------
 #rhf/gen scf(symm,tight,novaracc,noincfock,fulldiag) stable(crhf) geom
 =nocrowd test
 ----------------------------------------------------------------------

 hf stability analysis of h10 triangular lattice, y= 0.6728301825924255
 5
 ----------------------------------------------------------------------
 Symbolic Z-matrix:
 Charge =  0 Multiplicity = 1

                         Standard orientation:
 ---------------------------------------------------------------------
 Center     Atomic      Atomic             Coordinates (Angstroms)
 Number     Number       Type             X           Y           Z
 ---------------------------------------------------------------------
      1          1           0        0.858092    1.345660    0.000000
      2          1           0        1.716184    0.672830    0.000000
      3          1           0        0.000000    0.672830    0.000000
      4          1           0        0.858092   -0.000000    0.000000
      5          1           0       -0.858092    0.000000    0.000000
      6          1           0       -0.000000   -0.672830    0.000000
      7          1           0       -1.716184   -0.672830    0.000000
      8          1           0       -0.858092   -1.345660    0.000000
 ---------------------------------------------------------------------

 SCF Done:  E(RHF) =  -3.97713831654     A.U. after   10 cycles
 E2 =    -0.8093167894D-01 EUMP2 =    -0.40580699954793D+01

 The electronic state is 1-AG.
 Alpha  occ. eigenvalues --   -0.84758  -0.66608  -0.39972  -0.39655
 Alpha virt. eigenvalues --    0.04858   0.22588   0.40192   0.75992

 Mulliken charges:
               1
     1  H    0.086399
     2  H   -0.035683
     3  H   -0.132829
     4  H    0.082114
     5  H    0.082114
     6  H   -0.132829
     7  H   -0.035683
     8  H    0.086399
 Sum of Mulliken charges =   0.00000

 Dipole moment (field-independent basis, Debye):
    X=              0.0000    Y=             -0.0000    Z=              0.0000  Tot=              0.0000
 Quadrupole moment (field-independent basis, Debye-Ang):
   XX=            -11.8538   YY=            -11.1402   ZZ=            -10.4652
   XY=              0.4357   XZ=              0.0000   YZ=             -0.0000

 Normal termination of Gaussian 09 at Thu Feb  9 15:04:48 2017.
