 Gaussian 09, Revision E.01,
 Gaussian 09:  ES64L-G09RevE.01 30-Nov-2015

 ----------------------------------------------------------------------
 #rhf/gen scf(symm,tight,novaracc,noincfock,fulldiag) stable(crhf) geom
 =nocrowd test
 ----------------------------------------------------------------------

 hf stability analysis of h10 triangular lattice, y= 0.7009733325814272
 4
 ----------------------------------------------------------------------
 Symbolic Z-matrix:
 Charge =  0 Multiplicity = 1

                         Standard orientation:
 ---------------------------------------------------------------------
 Center     Atomic      Atomic             Coordinates (Angstroms)
 Number     Number       Type             X           Y           Z
 ---------------------------------------------------------------------
      1          1           0        0.823641    1.401947   -0.000000
      2          1           0        1.647282    0.700973   -0.000000
      3          1           0        0.000000    0.700973   -0.000000
      4          1           0        0.823641    0.000000   -0.000000
      5          1           0       -0.823641    0.000000    0.000000
      6          1           0       -0.000000   -0.700973   -0.000000
      7          1           0       -1.647282   -0.700973    0.000000
      8          1           0       -0.823641   -1.401947   -0.000000
 ---------------------------------------------------------------------

 SCF Done:  E(RHF) =  -3.97771880474     A.U. after   10 cycles
 E2 =    -0.8189186705D-01 EUMP2 =    -0.40596106717924D+01

 The electronic state is 1-AG.
 Alpha  occ. eigenvalues --   -0.85031  -0.66532  -0.40461  -0.39804
 Alpha virt. eigenvalues --    0.04314   0.24512   0.38593   0.80205

 Mulliken charges:
               1
     1  H    0.067535
     2  H   -0.021838
     3  H   -0.098094
     4  H    0.052397
     5  H    0.052397
     6  H   -0.098094
     7  H   -0.021838
     8  H    0.067535
 Sum of Mulliken charges =  -0.00000

 Dipole moment (field-independent basis, Debye):
    X=             -0.0000    Y=             -0.0000    Z=             -0.0000  Tot=              0.0000
 Quadrupole moment (field-independent basis, Debye-Ang):
   XX=            -11.8337   YY=            -11.2207   ZZ=            -10.4509
   XY=              0.2758   XZ=              0.0000   YZ=              0.0000

 Normal termination of Gaussian 09 at Thu Feb  9 15:03:07 2017.
