 Gaussian 09, Revision E.01,
 Gaussian 09:  ES64L-G09RevE.01 30-Nov-2015

 ----------------------------------------------------------------------
 #rhf/gen scf(symm,tight,novaracc,noincfock,fulldiag) stable(crhf) geom
 =nocrowd test
 ----------------------------------------------------------------------

 hf stability analysis of h10 triangular lattice, y= 0.6417319999662348
 7
 ----------------------------------------------------------------------
 Symbolic Z-matrix:
 Charge =  0 Multiplicity = 1

                         Standard orientation:
 ---------------------------------------------------------------------
 Center     Atomic      Atomic             Coordinates (Angstroms)
 Number     Number       Type             X           Y           Z
 ---------------------------------------------------------------------
      1          1           0        0.899675    1.283464   -0.000000
      2          1           0        1.799350    0.641732    0.000000
      3          1           0        0.000000    0.641732   -0.000000
      4          1           0        0.899675    0.000000    0.000000
      5          1           0       -0.899675    0.000000    0.000000
      6          1           0       -0.000000   -0.641732   -0.000000
      7          1           0       -1.799350   -0.641732    0.000000
      8          1           0       -0.899675   -1.283464    0.000000
 ---------------------------------------------------------------------

 SCF Done:  E(RHF) =  -3.97441370929     A.U. after   10 cycles
 E2 =    -0.8004338746D-01 EUMP2 =    -0.40544570967494D+01

 The electronic state is 1-AG.
 Alpha  occ. eigenvalues --   -0.84293  -0.66692  -0.40228  -0.38325
 Alpha virt. eigenvalues --    0.05757   0.20047   0.42242   0.69776

 Mulliken charges:
               1
     1  H    0.100638
     2  H   -0.043053
     3  H   -0.166054
     4  H    0.108468
     5  H    0.108468
     6  H   -0.166054
     7  H   -0.043053
     8  H    0.100638
 Sum of Mulliken charges =   0.00000

 Dipole moment (field-independent basis, Debye):
    X=              0.0000    Y=             -0.0000    Z=              0.0000  Tot=              0.0000
 Quadrupole moment (field-independent basis, Debye-Ang):
   XX=            -11.6985   YY=            -11.1469   ZZ=            -10.4868
   XY=              0.6626   XZ=             -0.0000   YZ=              0.0000

 Normal termination of Gaussian 09 at Thu Feb  9 15:06:45 2017.
