 Gaussian 09, Revision E.01,
 Gaussian 09:  ES64L-G09RevE.01 30-Nov-2015

 ----------------------------------------------------------------------
 #rhf/gen scf(symm,tight,novaracc,noincfock,fulldiag) stable(crhf) geom
 =nocrowd test
 ----------------------------------------------------------------------

 hf stability analysis of h10 triangular lattice, y= 0.4135443701547177
 3
 ----------------------------------------------------------------------
 Symbolic Z-matrix:
 Charge =  0 Multiplicity = 1

                         Standard orientation:
 ---------------------------------------------------------------------
 Center     Atomic      Atomic             Coordinates (Angstroms)
 Number     Number       Type             X           Y           Z
 ---------------------------------------------------------------------
      1          1           0        1.396102    0.827089    0.000000
      2          1           0        2.792205    0.413544    0.000000
      3          1           0        0.000000    0.413544   -0.000000
      4          1           0        1.396102    0.000000    0.000000
      5          1           0       -1.396102    0.000000    0.000000
      6          1           0       -0.000000   -0.413544   -0.000000
      7          1           0       -2.792205   -0.413544    0.000000
      8          1           0       -1.396102   -0.827089    0.000000
 ---------------------------------------------------------------------

 SCF Done:  E(RHF) =  -3.84222152023     A.U. after   11 cycles
 E2 =    -0.1852369291D+00 EUMP2 =    -0.40274584492874D+01

 The electronic state is 1-AG.
 Alpha  occ. eigenvalues --   -0.80342  -0.67985  -0.50130  -0.16363
 Alpha virt. eigenvalues --    0.00092   0.13374   0.31654   0.53166

 Mulliken charges:
               1
     1  H    0.059858
     2  H   -0.175885
     3  H    0.018736
     4  H    0.097291
     5  H    0.097291
     6  H    0.018736
     7  H   -0.175885
     8  H    0.059858
 Sum of Mulliken charges =  -0.00000

 Dipole moment (field-independent basis, Debye):
    X=             -0.0000    Y=              0.0000    Z=             -0.0000  Tot=              0.0000
 Quadrupole moment (field-independent basis, Debye-Ang):
   XX=            -24.4705   YY=             -9.2813   ZZ=            -10.4254
   XY=             -2.0201   XZ=             -0.0000   YZ=              0.0000

 Normal termination of Gaussian 09 at Thu Feb  9 15:21:02 2017.
