 Gaussian 09, Revision E.01,
 Gaussian 09:  ES64L-G09RevE.01 30-Nov-2015

 ----------------------------------------------------------------------
 #rhf/gen scf(symm,tight,novaracc,noincfock,fulldiag) stable(crhf) geom
 =nocrowd test
 ----------------------------------------------------------------------

 hf stability analysis of h10 triangular lattice, y= 0.4750579846904372
 5
 ----------------------------------------------------------------------
 Symbolic Z-matrix:
 Charge =  0 Multiplicity = 1

                         Standard orientation:
 ---------------------------------------------------------------------
 Center     Atomic      Atomic             Coordinates (Angstroms)
 Number     Number       Type             X           Y           Z
 ---------------------------------------------------------------------
      1          1           0        1.215326    0.950116    0.000000
      2          1           0        2.430652    0.475058    0.000000
      3          1           0        0.000000    0.475058    0.000000
      4          1           0        1.215326    0.000000    0.000000
      5          1           0       -1.215326    0.000000   -0.000000
      6          1           0       -0.000000   -0.475058    0.000000
      7          1           0       -2.430652   -0.475058   -0.000000
      8          1           0       -1.215326   -0.950116    0.000000
 ---------------------------------------------------------------------

 SCF Done:  E(RHF) =  -3.83674056225     A.U. after   10 cycles
 E2 =    -0.1001540400D+00 EUMP2 =    -0.39368946022012D+01

 The electronic state is 1-AG.
 Alpha  occ. eigenvalues --   -0.79912  -0.66864  -0.43216  -0.22458
 Alpha virt. eigenvalues --    0.06895   0.11659   0.28898   0.52471

 Mulliken charges:
               1
     1  H    0.041500
     2  H   -0.060860
     3  H   -0.173083
     4  H    0.192443
     5  H    0.192443
     6  H   -0.173083
     7  H   -0.060860
     8  H    0.041500
 Sum of Mulliken charges =   0.00000

 Dipole moment (field-independent basis, Debye):
    X=             -0.0000    Y=             -0.0000    Z=             -0.0000  Tot=              0.0000
 Quadrupole moment (field-independent basis, Debye-Ang):
   XX=            -12.2255   YY=            -11.5380   ZZ=            -10.5675
   XY=              0.2031   XZ=             -0.0000   YZ=              0.0000

 Normal termination of Gaussian 09 at Thu Feb  9 15:17:23 2017.
