 Gaussian 09, Revision E.01,
 Gaussian 09:  ES64L-G09RevE.01 30-Nov-2015

 ----------------------------------------------------------------------
 #rhf/gen scf(symm,tight,novaracc,noincfock,fulldiag) stable(crhf) geom
 =nocrowd test
 ----------------------------------------------------------------------

 hf stability analysis of h10 triangular lattice, y= 0.3247197019227651
 1
 ----------------------------------------------------------------------
 Symbolic Z-matrix:
 Charge =  0 Multiplicity = 1

                         Standard orientation:
 ---------------------------------------------------------------------
 Center     Atomic      Atomic             Coordinates (Angstroms)
 Number     Number       Type             X           Y           Z
 ---------------------------------------------------------------------
      1          1           0        1.777996    0.649439   -0.000000
      2          1           0        3.555992    0.324720   -0.000000
      3          1           0       -0.000000    0.324720    0.000000
      4          1           0        1.777996    0.000000   -0.000000
      5          1           0       -1.777996    0.000000   -0.000000
      6          1           0       -0.000000   -0.324720    0.000000
      7          1           0       -3.555992   -0.324720   -0.000000
      8          1           0       -1.777996   -0.649439   -0.000000
 ---------------------------------------------------------------------

 SCF Done:  E(RHF) =  -3.86812251711     A.U. after    7 cycles
 E2 =    -0.4833858013D+00 EUMP2 =    -0.43515083183786D+01

 The electronic state is 1-AG.
 Alpha  occ. eigenvalues --   -0.74067  -0.67817  -0.59165  -0.19662
 Alpha virt. eigenvalues --   -0.11499   0.34018   0.46886   0.62992

 Mulliken charges:
               1
     1  H    0.011592
     2  H   -0.028762
     3  H    0.005415
     4  H    0.011754
     5  H    0.011754
     6  H    0.005415
     7  H   -0.028762
     8  H    0.011592
 Sum of Mulliken charges =   0.00000

 Dipole moment (field-independent basis, Debye):
    X=             -0.0000    Y=             -0.0000    Z=              0.0000  Tot=              0.0000
 Quadrupole moment (field-independent basis, Debye-Ang):
   XX=            -16.4122   YY=             -9.5336   ZZ=            -10.5512
   XY=             -0.5645   XZ=              0.0000   YZ=             -0.0000

 Normal termination of Gaussian 09 at Thu Feb  9 15:25:37 2017.
