 Gaussian 09, Revision E.01,
 Gaussian 09:  ES64L-G09RevE.01 30-Nov-2015

 ----------------------------------------------------------------------
 #rhf/gen scf(symm,tight,novaracc,noincfock,fulldiag) stable(crhf) geom
 =nocrowd test
 ----------------------------------------------------------------------

 hf stability analysis of h10 triangular lattice, y= 0.6334578950393894
 3
 ----------------------------------------------------------------------
 Symbolic Z-matrix:
 Charge =  0 Multiplicity = 1

                         Standard orientation:
 ---------------------------------------------------------------------
 Center     Atomic      Atomic             Coordinates (Angstroms)
 Number     Number       Type             X           Y           Z
 ---------------------------------------------------------------------
      1          1           0        0.911426    1.266916    0.000000
      2          1           0        1.822853    0.633458    0.000000
      3          1           0        0.000000    0.633458   -0.000000
      4          1           0        0.911426   -0.000000    0.000000
      5          1           0       -0.911426    0.000000    0.000000
      6          1           0       -0.000000   -0.633458    0.000000
      7          1           0       -1.822853   -0.633458    0.000000
      8          1           0       -0.911426   -1.266916    0.000000
 ---------------------------------------------------------------------

 SCF Done:  E(RHF) =  -3.97306938851     A.U. after   10 cycles
 E2 =    -0.7990141215D-01 EUMP2 =    -0.40529708006577D+01

 The electronic state is 1-AG.
 Alpha  occ. eigenvalues --   -0.84137  -0.66710  -0.40306  -0.37887
 Alpha virt. eigenvalues --    0.06052   0.19317   0.42820   0.67899

 Mulliken charges:
               1
     1  H    0.102951
     2  H   -0.043448
     3  H   -0.173746
     4  H    0.114242
     5  H    0.114242
     6  H   -0.173746
     7  H   -0.043448
     8  H    0.102951
 Sum of Mulliken charges =   0.00000

 Dipole moment (field-independent basis, Debye):
    X=              0.0000    Y=             -0.0000    Z=              0.0000  Tot=              0.0000
 Quadrupole moment (field-independent basis, Debye-Ang):
   XX=            -11.6173   YY=            -11.1675   ZZ=            -10.4935
   XY=              0.7284   XZ=             -0.0000   YZ=              0.0000

 Normal termination of Gaussian 09 at Thu Feb  9 15:07:17 2017.
