 Gaussian 09, Revision E.01,
 Gaussian 09:  ES64L-G09RevE.01 30-Nov-2015

 ----------------------------------------------------------------------
 #rhf/gen scf(symm,tight,novaracc,noincfock,fulldiag) stable(crhf) geom
 =nocrowd test
 ----------------------------------------------------------------------

 hf stability analysis of h10 triangular lattice, y= 0.5534768457740431
 0
 ----------------------------------------------------------------------
 Symbolic Z-matrix:
 Charge =  0 Multiplicity = 1

                         Standard orientation:
 ---------------------------------------------------------------------
 Center     Atomic      Atomic             Coordinates (Angstroms)
 Number     Number       Type             X           Y           Z
 ---------------------------------------------------------------------
      1          1           0        1.043134    1.106954    0.000000
      2          1           0        2.086267    0.553477    0.000000
      3          1           0        0.000000    0.553477    0.000000
      4          1           0        1.043134    0.000000    0.000000
      5          1           0       -1.043134    0.000000    0.000000
      6          1           0       -0.000000   -0.553477   -0.000000
      7          1           0       -2.086267   -0.553477   -0.000000
      8          1           0       -1.043134   -1.106954   -0.000000
 ---------------------------------------------------------------------

 SCF Done:  E(RHF) =  -3.93398296711     A.U. after    9 cycles
 E2 =    -0.8258014686D-01 EUMP2 =    -0.40165631139658D+01

 The electronic state is 1-AG.
 Alpha  occ. eigenvalues --   -0.81853  -0.66655  -0.41190  -0.31628
 Alpha virt. eigenvalues --    0.10021   0.11704   0.47233   0.48743

 Mulliken charges:
               1
     1  H    0.088590
     2  H   -0.018138
     3  H   -0.221324
     4  H    0.150872
     5  H    0.150872
     6  H   -0.221324
     7  H   -0.018138
     8  H    0.088590
 Sum of Mulliken charges =   0.00000

 Dipole moment (field-independent basis, Debye):
    X=             -0.0000    Y=             -0.0000    Z=              0.0000  Tot=              0.0000
 Quadrupole moment (field-independent basis, Debye-Ang):
   XX=             -9.8497   YY=            -11.7170   ZZ=            -10.5684
   XY=              1.2933   XZ=              0.0000   YZ=             -0.0000

 Normal termination of Gaussian 09 at Thu Feb  9 15:12:25 2017.
