 Gaussian 09, Revision E.01,
 Gaussian 09:  ES64L-G09RevE.01 30-Nov-2015

 ----------------------------------------------------------------------
 #rhf/gen scf(symm,tight,novaracc,noincfock,fulldiag) stable(crhf) geom
 =nocrowd test
 ----------------------------------------------------------------------

 hf stability analysis of h10 triangular lattice, y= 0.2574707370587232
 0
 ----------------------------------------------------------------------
 Symbolic Z-matrix:
 Charge =  0 Multiplicity = 1

                         Standard orientation:
 ---------------------------------------------------------------------
 Center     Atomic      Atomic             Coordinates (Angstroms)
 Number     Number       Type             X           Y           Z
 ---------------------------------------------------------------------
      1          1           0        2.242392    0.514941   -0.000000
      2          1           0        4.484784    0.257471   -0.000000
      3          1           0        0.000000    0.257471   -0.000000
      4          1           0        2.242392    0.000000   -0.000000
      5          1           0       -2.242392    0.000000   -0.000000
      6          1           0       -0.000000   -0.257471   -0.000000
      7          1           0       -4.484784   -0.257471   -0.000000
      8          1           0       -2.242392   -0.514941   -0.000000
 ---------------------------------------------------------------------

 SCF Done:  E(RHF) =  -3.62984747259     A.U. after    6 cycles
 E2 =    -0.7073156119D+00 EUMP2 =    -0.43371630844985D+01

 The electronic state is 1-AG.
 Alpha  occ. eigenvalues --   -0.73239  -0.70827  -0.67955  -0.21021
 Alpha virt. eigenvalues --   -0.15085   0.51464   0.59552   0.69044

 Mulliken charges:
               1
     1  H    0.000508
     2  H    0.000325
     3  H    0.000129
     4  H   -0.000961
     5  H   -0.000961
     6  H    0.000129
     7  H    0.000325
     8  H    0.000508
 Sum of Mulliken charges =   0.00000

 Dipole moment (field-independent basis, Debye):
    X=             -0.0000    Y=              0.0000    Z=             -0.0000  Tot=              0.0000
 Quadrupole moment (field-independent basis, Debye-Ang):
   XX=            -12.3891   YY=            -10.0443   ZZ=            -10.7409
   XY=             -0.1064   XZ=             -0.0000   YZ=             -0.0000

 Normal termination of Gaussian 09 at Thu Feb  9 15:28:24 2017.
