 Gaussian 09, Revision E.01,
 Gaussian 09:  ES64L-G09RevE.01 30-Nov-2015

 ----------------------------------------------------------------------
 #rhf/gen scf(symm,tight,novaracc,noincfock,fulldiag) stable(crhf) geom
 =nocrowd test
 ----------------------------------------------------------------------

 hf stability analysis of h10 triangular lattice, y= 0.5247684832164858
 4
 ----------------------------------------------------------------------
 Symbolic Z-matrix:
 Charge =  0 Multiplicity = 1

                         Standard orientation:
 ---------------------------------------------------------------------
 Center     Atomic      Atomic             Coordinates (Angstroms)
 Number     Number       Type             X           Y           Z
 ---------------------------------------------------------------------
      1          1           0        1.100200    1.049537    0.000000
      2          1           0        2.200400    0.524768    0.000000
      3          1           0        0.000000    0.524768    0.000000
      4          1           0        1.100200    0.000000    0.000000
      5          1           0       -1.100200    0.000000    0.000000
      6          1           0       -0.000000   -0.524768   -0.000000
      7          1           0       -2.200400   -0.524768    0.000000
      8          1           0       -1.100200   -1.049537    0.000000
 ---------------------------------------------------------------------

 SCF Done:  E(RHF) =  -3.90311503933     A.U. after   10 cycles
 E2 =    -0.8624423447D-01 EUMP2 =    -0.39893592737944D+01

 The electronic state is 1-AG.
 Alpha  occ. eigenvalues --   -0.80791  -0.66547  -0.41568  -0.28495
 Alpha virt. eigenvalues --    0.09076   0.11663   0.39602   0.50780

 Mulliken charges:
               1
     1  H    0.068083
     2  H   -0.007072
     3  H   -0.225651
     4  H    0.164640
     5  H    0.164640
     6  H   -0.225651
     7  H   -0.007072
     8  H    0.068083
 Sum of Mulliken charges =   0.00000

 Dipole moment (field-independent basis, Debye):
    X=             -0.0000    Y=              0.0000    Z=              0.0000  Tot=              0.0000
 Quadrupole moment (field-independent basis, Debye-Ang):
   XX=             -9.0973   YY=            -11.9640   ZZ=            -10.5920
   XY=              1.3077   XZ=              0.0000   YZ=             -0.0000

 Normal termination of Gaussian 09 at Thu Feb  9 15:14:16 2017.
