 Gaussian 09, Revision E.01,
 Gaussian 09:  ES64L-G09RevE.01 30-Nov-2015

 ----------------------------------------------------------------------
 #rhf/gen scf(symm,tight,novaracc,noincfock,fulldiag) stable(crhf) geom
 =nocrowd test
 ----------------------------------------------------------------------

 hf stability analysis of h10 triangular lattice, y= 0.5324152575559145
 7
 ----------------------------------------------------------------------
 Symbolic Z-matrix:
 Charge =  0 Multiplicity = 1

                         Standard orientation:
 ---------------------------------------------------------------------
 Center     Atomic      Atomic             Coordinates (Angstroms)
 Number     Number       Type             X           Y           Z
 ---------------------------------------------------------------------
      1          1           0        1.084398    1.064830    0.000000
      2          1           0        2.168797    0.532415    0.000000
      3          1           0        0.000000    0.532415    0.000000
      4          1           0        1.084398    0.000000    0.000000
      5          1           0       -1.084398    0.000000    0.000000
      6          1           0       -0.000000   -0.532415    0.000000
      7          1           0       -2.168797   -0.532415    0.000000
      8          1           0       -1.084398   -1.064830    0.000000
 ---------------------------------------------------------------------

 SCF Done:  E(RHF) =  -3.91233020814     A.U. after   10 cycles
 E2 =    -0.8505669379D-01 EUMP2 =    -0.39973869019339D+01

 The electronic state is 1-AG.
 Alpha  occ. eigenvalues --   -0.81070  -0.66573  -0.41457  -0.29368
 Alpha virt. eigenvalues --    0.09741   0.11246   0.41607   0.50266

 Mulliken charges:
               1
     1  H    0.074144
     2  H   -0.008982
     3  H   -0.225492
     4  H    0.160329
     5  H    0.160329
     6  H   -0.225492
     7  H   -0.008982
     8  H    0.074144
 Sum of Mulliken charges =   0.00000

 Dipole moment (field-independent basis, Debye):
    X=             -0.0000    Y=             -0.0000    Z=              0.0000  Tot=              0.0000
 Quadrupole moment (field-independent basis, Debye-Ang):
   XX=             -9.2525   YY=            -11.9065   ZZ=            -10.5866
   XY=              1.3280   XZ=             -0.0000   YZ=             -0.0000

 Normal termination of Gaussian 09 at Thu Feb  9 15:13:46 2017.
