 Gaussian 09, Revision E.01,
 Gaussian 09:  ES64L-G09RevE.01 30-Nov-2015

 ----------------------------------------------------------------------
 #rhf/gen scf(symm,tight,novaracc,noincfock,fulldiag) stable(crhf) geom
 =nocrowd test
 ----------------------------------------------------------------------

 hf stability analysis of h10 triangular lattice, y= 0.3801116467745524
 5
 ----------------------------------------------------------------------
 Symbolic Z-matrix:
 Charge =  0 Multiplicity = 1

                         Standard orientation:
 ---------------------------------------------------------------------
 Center     Atomic      Atomic             Coordinates (Angstroms)
 Number     Number       Type             X           Y           Z
 ---------------------------------------------------------------------
      1          1           0        1.518897    0.760223   -0.000000
      2          1           0        3.037793    0.380112   -0.000000
      3          1           0        0.000000    0.380112    0.000000
      4          1           0        1.518897    0.000000   -0.000000
      5          1           0       -1.518897    0.000000    0.000000
      6          1           0       -0.000000   -0.380112    0.000000
      7          1           0       -3.037793   -0.380112    0.000000
      8          1           0       -1.518897   -0.760223    0.000000
 ---------------------------------------------------------------------

 SCF Done:  E(RHF) =  -3.87606583419     A.U. after    9 cycles
 E2 =    -0.2875578229D+00 EUMP2 =    -0.41636236570914D+01

 The electronic state is 1-AG.
 Alpha  occ. eigenvalues --   -0.77811  -0.67604  -0.53276  -0.17260
 Alpha virt. eigenvalues --   -0.05213   0.20583   0.37022   0.56899

 Mulliken charges:
               1
     1  H    0.040487
     2  H   -0.115656
     3  H    0.024416
     4  H    0.050753
     5  H    0.050753
     6  H    0.024416
     7  H   -0.115656
     8  H    0.040487
 Sum of Mulliken charges =  -0.00000

 Dipole moment (field-independent basis, Debye):
    X=              0.0000    Y=             -0.0000    Z=             -0.0000  Tot=              0.0000
 Quadrupole moment (field-independent basis, Debye-Ang):
   XX=            -22.4610   YY=             -9.2135   ZZ=            -10.4486
   XY=             -1.5099   XZ=              0.0000   YZ=              0.0000

 Normal termination of Gaussian 09 at Thu Feb  9 15:22:51 2017.
