 Gaussian 09, Revision E.01,
 Gaussian 09:  ES64L-G09RevE.01 30-Nov-2015

 ----------------------------------------------------------------------
 #rhf/gen scf(symm,tight,novaracc,noincfock,fulldiag) stable(crhf) geom
 =nocrowd test
 ----------------------------------------------------------------------

 hf stability analysis of h10 triangular lattice, y= 0.6661962787628841
 2
 ----------------------------------------------------------------------
 Symbolic Z-matrix:
 Charge =  0 Multiplicity = 1

                         Standard orientation:
 ---------------------------------------------------------------------
 Center     Atomic      Atomic             Coordinates (Angstroms)
 Number     Number       Type             X           Y           Z
 ---------------------------------------------------------------------
      1          1           0        0.866637    1.332393    0.000000
      2          1           0        1.733274    0.666196    0.000000
      3          1           0       -0.000000    0.666196    0.000000
      4          1           0        0.866637    0.000000   -0.000000
      5          1           0       -0.866637    0.000000   -0.000000
      6          1           0       -0.000000   -0.666196    0.000000
      7          1           0       -1.733274   -0.666196   -0.000000
      8          1           0       -0.866637   -1.332393    0.000000
 ---------------------------------------------------------------------

 SCF Done:  E(RHF) =  -3.97679914975     A.U. after   10 cycles
 E2 =    -0.8071047686D-01 EUMP2 =    -0.40575096266109D+01

 The electronic state is 1-AG.
 Alpha  occ. eigenvalues --   -0.84674  -0.66627  -0.40021  -0.39412
 Alpha virt. eigenvalues --    0.05022   0.22077   0.40610   0.74791

 Mulliken charges:
               1
     1  H    0.090107
     2  H   -0.038009
     3  H   -0.140442
     4  H    0.088345
     5  H    0.088345
     6  H   -0.140442
     7  H   -0.038009
     8  H    0.090107
 Sum of Mulliken charges =   0.00000

 Dipole moment (field-independent basis, Debye):
    X=              0.0000    Y=              0.0000    Z=             -0.0000  Tot=              0.0000
 Quadrupole moment (field-independent basis, Debye-Ang):
   XX=            -11.8386   YY=            -11.1325   ZZ=            -10.4693
   XY=              0.4805   XZ=             -0.0000   YZ=              0.0000

 Normal termination of Gaussian 09 at Thu Feb  9 15:05:13 2017.
