 Gaussian 09, Revision E.01,
 Gaussian 09:  ES64L-G09RevE.01 30-Nov-2015

 ----------------------------------------------------------------------
 #rhf/gen scf(symm,tight,novaracc,noincfock,fulldiag) stable(crhf) geom
 =nocrowd test
 ----------------------------------------------------------------------

 hf stability analysis of h10 triangular lattice, y= 0.7229051981764163
 0
 ----------------------------------------------------------------------
 Symbolic Z-matrix:
 Charge =  0 Multiplicity = 1

                         Standard orientation:
 ---------------------------------------------------------------------
 Center     Atomic      Atomic             Coordinates (Angstroms)
 Number     Number       Type             X           Y           Z
 ---------------------------------------------------------------------
      1          1           0        0.798653    1.445810    0.000000
      2          1           0        1.597306    0.722905    0.000000
      3          1           0        0.000000    0.722905    0.000000
      4          1           0        0.798653    0.000000    0.000000
      5          1           0       -0.798653    0.000000    0.000000
      6          1           0       -0.000000   -0.722905    0.000000
      7          1           0       -1.597306   -0.722905    0.000000
      8          1           0       -0.798653   -1.445810    0.000000
 ---------------------------------------------------------------------

 SCF Done:  E(RHF) =  -3.97768613368     A.U. after    9 cycles
 E2 =    -0.8250306387D-01 EUMP2 =    -0.40601891975544D+01

 The electronic state is 1-AG.
 Alpha  occ. eigenvalues --   -0.85161  -0.66487  -0.40853  -0.39719
 Alpha virt. eigenvalues --    0.04051   0.25639   0.37631   0.82395

 Mulliken charges:
               1
     1  H    0.050463
     2  H   -0.007468
     3  H   -0.069286
     4  H    0.026291
     5  H    0.026291
     6  H   -0.069286
     7  H   -0.007468
     8  H    0.050463
 Sum of Mulliken charges =   0.00000

 Dipole moment (field-independent basis, Debye):
    X=              0.0000    Y=              0.0000    Z=              0.0000  Tot=              0.0000
 Quadrupole moment (field-independent basis, Debye-Ang):
   XX=            -11.7488   YY=            -11.3258   ZZ=            -10.4436
   XY=              0.1912   XZ=              0.0000   YZ=              0.0000

 Normal termination of Gaussian 09 at Thu Feb  9 15:01:53 2017.
