 Gaussian 09, Revision E.01,
 Gaussian 09:  ES64L-G09RevE.01 30-Nov-2015

 ----------------------------------------------------------------------
 #rhf/gen scf(symm,tight,novaracc,noincfock,fulldiag) stable(crhf) geom
 =nocrowd test
 ----------------------------------------------------------------------

 hf stability analysis of h10 triangular lattice, y= 0.4509070092210429
 3
 ----------------------------------------------------------------------
 Symbolic Z-matrix:
 Charge =  0 Multiplicity = 1

                         Standard orientation:
 ---------------------------------------------------------------------
 Center     Atomic      Atomic             Coordinates (Angstroms)
 Number     Number       Type             X           Y           Z
 ---------------------------------------------------------------------
      1          1           0        1.280420    0.901814   -0.000000
      2          1           0        2.560840    0.450907   -0.000000
      3          1           0        0.000000    0.450907    0.000000
      4          1           0        1.280420    0.000000   -0.000000
      5          1           0       -1.280420    0.000000   -0.000000
      6          1           0       -0.000000   -0.450907   -0.000000
      7          1           0       -2.560840   -0.450907   -0.000000
      8          1           0       -1.280420   -0.901814   -0.000000
 ---------------------------------------------------------------------

 SCF Done:  E(RHF) =  -3.82007767045     A.U. after   12 cycles
 E2 =    -0.1112530842D+00 EUMP2 =    -0.39313307546069D+01

 The electronic state is 1-AG.
 Alpha  occ. eigenvalues --   -0.80403  -0.67486  -0.45434  -0.19314
 Alpha virt. eigenvalues --    0.07590   0.08213   0.28006   0.52107

 Mulliken charges:
               1
     1  H    0.052722
     2  H   -0.132154
     3  H   -0.093219
     4  H    0.172651
     5  H    0.172651
     6  H   -0.093219
     7  H   -0.132154
     8  H    0.052722
 Sum of Mulliken charges =  -0.00000

 Dipole moment (field-independent basis, Debye):
    X=              0.0000    Y=             -0.0000    Z=              0.0000  Tot=              0.0000
 Quadrupole moment (field-independent basis, Debye-Ang):
   XX=            -17.8335   YY=            -10.5372   ZZ=            -10.5030
   XY=             -0.9646   XZ=              0.0000   YZ=              0.0000

 Normal termination of Gaussian 09 at Thu Feb  9 15:18:51 2017.
