 Gaussian 09, Revision E.01,
 Gaussian 09:  ES64L-G09RevE.01 30-Nov-2015

 ----------------------------------------------------------------------
 #rhf/gen scf(symm,tight,novaracc,noincfock,fulldiag) stable(crhf) geom
 =nocrowd test
 ----------------------------------------------------------------------

 hf stability analysis of h10 triangular lattice, y= 0.5265355250989295
 4
 ----------------------------------------------------------------------
 Symbolic Z-matrix:
 Charge =  0 Multiplicity = 1

                         Standard orientation:
 ---------------------------------------------------------------------
 Center     Atomic      Atomic             Coordinates (Angstroms)
 Number     Number       Type             X           Y           Z
 ---------------------------------------------------------------------
      1          1           0        1.096508    1.053071   -0.000000
      2          1           0        2.193015    0.526536   -0.000000
      3          1           0        0.000000    0.526536   -0.000000
      4          1           0        1.096508    0.000000    0.000000
      5          1           0       -1.096508    0.000000   -0.000000
      6          1           0       -0.000000   -0.526536   -0.000000
      7          1           0       -2.193015   -0.526536   -0.000000
      8          1           0       -1.096508   -1.053071   -0.000000
 ---------------------------------------------------------------------

 SCF Done:  E(RHF) =  -3.90530500377     A.U. after   10 cycles
 E2 =    -0.8595342409D-01 EUMP2 =    -0.39912584278625D+01

 The electronic state is 1-AG.
 Alpha  occ. eigenvalues --   -0.80854  -0.66552  -0.41541  -0.28699
 Alpha virt. eigenvalues --    0.09226   0.11570   0.40063   0.50664

 Mulliken charges:
               1
     1  H    0.069511
     2  H   -0.007402
     3  H   -0.225701
     4  H    0.163592
     5  H    0.163592
     6  H   -0.225701
     7  H   -0.007402
     8  H    0.069511
 Sum of Mulliken charges =  -0.00000

 Dipole moment (field-independent basis, Debye):
    X=             -0.0000    Y=              0.0000    Z=             -0.0000  Tot=              0.0000
 Quadrupole moment (field-independent basis, Debye-Ang):
   XX=             -9.1278   YY=            -11.9517   ZZ=            -10.5908
   XY=              1.3145   XZ=              0.0000   YZ=              0.0000

 Normal termination of Gaussian 09 at Thu Feb  9 15:14:09 2017.
