 Gaussian 09, Revision E.01,
 Gaussian 09:  ES64L-G09RevE.01 30-Nov-2015

 ----------------------------------------------------------------------
 #rhf/gen scf(symm,tight,novaracc,noincfock,fulldiag) stable(crhf) geom
 =nocrowd test
 ----------------------------------------------------------------------

 hf stability analysis of h10 triangular lattice, y= 0.4860043606964989
 9
 ----------------------------------------------------------------------
 Symbolic Z-matrix:
 Charge =  0 Multiplicity = 1

                         Standard orientation:
 ---------------------------------------------------------------------
 Center     Atomic      Atomic             Coordinates (Angstroms)
 Number     Number       Type             X           Y           Z
 ---------------------------------------------------------------------
      1          1           0        1.187953    0.972009    0.000000
      2          1           0        2.375906    0.486004    0.000000
      3          1           0        0.000000    0.486004    0.000000
      4          1           0        1.187953    0.000000    0.000000
      5          1           0       -1.187953    0.000000    0.000000
      6          1           0       -0.000000   -0.486004   -0.000000
      7          1           0       -2.375906   -0.486004    0.000000
      8          1           0       -1.187953   -0.972009    0.000000
 ---------------------------------------------------------------------

 SCF Done:  E(RHF) =  -3.85015232196     A.U. after   10 cycles
 E2 =    -0.9610596690D-01 EUMP2 =    -0.39462582888575D+01

 The electronic state is 1-AG.
 Alpha  occ. eigenvalues --   -0.79878  -0.66675  -0.42603  -0.23831
 Alpha virt. eigenvalues --    0.06874   0.12454   0.30538   0.52446

 Mulliken charges:
               1
     1  H    0.041915
     2  H   -0.035272
     3  H   -0.197253
     4  H    0.190611
     5  H    0.190611
     6  H   -0.197253
     7  H   -0.035272
     8  H    0.041915
 Sum of Mulliken charges =  -0.00000

 Dipole moment (field-independent basis, Debye):
    X=              0.0000    Y=              0.0000    Z=              0.0000  Tot=              0.0000
 Quadrupole moment (field-independent basis, Debye-Ang):
   XX=            -10.5467   YY=            -11.8271   ZZ=            -10.5860
   XY=              0.6308   XZ=              0.0000   YZ=             -0.0000

 Normal termination of Gaussian 09 at Thu Feb  9 15:16:42 2017.
