 Gaussian 09, Revision E.01,
 Gaussian 09:  ES64L-G09RevE.01 30-Nov-2015

 ----------------------------------------------------------------------
 #rhf/gen scf(symm,tight,novaracc,noincfock,fulldiag) stable(crhf) geom
 =nocrowd test
 ----------------------------------------------------------------------

 hf stability analysis of h10 triangular lattice, y= 0.7460347393273599
 7
 ----------------------------------------------------------------------
 Symbolic Z-matrix:
 Charge =  0 Multiplicity = 1

                         Standard orientation:
 ---------------------------------------------------------------------
 Center     Atomic      Atomic             Coordinates (Angstroms)
 Number     Number       Type             X           Y           Z
 ---------------------------------------------------------------------
      1          1           0        0.773892    1.492069    0.000000
      2          1           0        1.547784    0.746035   -0.000000
      3          1           0        0.000000    0.746035    0.000000
      4          1           0        0.773892    0.000000   -0.000000
      5          1           0       -0.773892    0.000000   -0.000000
      6          1           0       -0.000000   -0.746035   -0.000000
      7          1           0       -1.547784   -0.746035   -0.000000
      8          1           0       -0.773892   -1.492069   -0.000000
 ---------------------------------------------------------------------

 SCF Done:  E(RHF) =  -3.97758038080     A.U. after    9 cycles
 E2 =    -0.8287395969D-01 EUMP2 =    -0.40604543404920D+01

 The electronic state is 1-AG.
 Alpha  occ. eigenvalues --   -0.85229  -0.66461  -0.41062  -0.39672
 Alpha virt. eigenvalues --    0.03911   0.26327   0.37034   0.83608

 Mulliken charges:
               1
     1  H    0.031668
     2  H    0.009806
     3  H   -0.038582
     4  H   -0.002892
     5  H   -0.002892
     6  H   -0.038582
     7  H    0.009806
     8  H    0.031668
 Sum of Mulliken charges =   0.00000

 Dipole moment (field-independent basis, Debye):
    X=             -0.0000    Y=             -0.0000    Z=             -0.0000  Tot=              0.0000
 Quadrupole moment (field-independent basis, Debye-Ang):
   XX=            -11.6237   YY=            -11.4591   ZZ=            -10.4396
   XY=              0.1440   XZ=             -0.0000   YZ=             -0.0000

 Normal termination of Gaussian 09 at Thu Feb  9 15:00:32 2017.
