 Gaussian 09, Revision E.01,
 Gaussian 09:  ES64L-G09RevE.01 30-Nov-2015

 ----------------------------------------------------------------------
 #rhf/gen scf(symm,tight,novaracc,noincfock,fulldiag) stable(crhf) geom
 =nocrowd test
 ----------------------------------------------------------------------

 hf stability analysis of h10 triangular lattice, y= 0.5948114929471706
 2
 ----------------------------------------------------------------------
 Symbolic Z-matrix:
 Charge =  0 Multiplicity = 1

                         Standard orientation:
 ---------------------------------------------------------------------
 Center     Atomic      Atomic             Coordinates (Angstroms)
 Number     Number       Type             X           Y           Z
 ---------------------------------------------------------------------
      1          1           0        0.970644    1.189623   -0.000000
      2          1           0        1.941288    0.594811   -0.000000
      3          1           0        0.000000    0.594811    0.000000
      4          1           0        0.970644    0.000000   -0.000000
      5          1           0       -0.970644    0.000000   -0.000000
      6          1           0       -0.000000   -0.594811    0.000000
      7          1           0       -1.941288   -0.594811   -0.000000
      8          1           0       -0.970644   -1.189623   -0.000000
 ---------------------------------------------------------------------

 SCF Done:  E(RHF) =  -3.96130121187     A.U. after    9 cycles
 E2 =    -0.8012461334D-01 EUMP2 =    -0.40414258252078D+01

 The electronic state is 1-AG.
 Alpha  occ. eigenvalues --   -0.83208  -0.66745  -0.40714  -0.35332
 Alpha virt. eigenvalues --    0.07740   0.15715   0.45636   0.58288

 Mulliken charges:
               1
     1  H    0.104421
     2  H   -0.036748
     3  H   -0.202708
     4  H    0.135035
     5  H    0.135035
     6  H   -0.202708
     7  H   -0.036748
     8  H    0.104421
 Sum of Mulliken charges =   0.00000

 Dipole moment (field-independent basis, Debye):
    X=              0.0000    Y=             -0.0000    Z=             -0.0000  Tot=              0.0000
 Quadrupole moment (field-independent basis, Debye-Ang):
   XX=            -10.9786   YY=            -11.3652   ZZ=            -10.5282
   XY=              1.0378   XZ=              0.0000   YZ=             -0.0000

 Normal termination of Gaussian 09 at Thu Feb  9 15:09:45 2017.
