 Gaussian 09, Revision E.01,
 Gaussian 09:  ES64L-G09RevE.01 30-Nov-2015

 ----------------------------------------------------------------------
 #rhf/gen scf(symm,tight,novaracc,noincfock,fulldiag) stable(crhf) geom
 =nocrowd test
 ----------------------------------------------------------------------

 hf stability analysis of h10 triangular lattice, y= 0.4008193093608036
 8
 ----------------------------------------------------------------------
 Symbolic Z-matrix:
 Charge =  0 Multiplicity = 1

                         Standard orientation:
 ---------------------------------------------------------------------
 Center     Atomic      Atomic             Coordinates (Angstroms)
 Number     Number       Type             X           Y           Z
 ---------------------------------------------------------------------
      1          1           0        1.440425    0.801639   -0.000000
      2          1           0        2.880851    0.400819   -0.000000
      3          1           0        0.000000    0.400819    0.000000
      4          1           0        1.440425    0.000000   -0.000000
      5          1           0       -1.440425    0.000000   -0.000000
      6          1           0       -0.000000   -0.400819    0.000000
      7          1           0       -2.880851   -0.400819   -0.000000
      8          1           0       -1.440425   -0.801639    0.000000
 ---------------------------------------------------------------------

 SCF Done:  E(RHF) =  -3.85643781964     A.U. after   10 cycles
 E2 =    -0.2233197845D+00 EUMP2 =    -0.40797576041008D+01

 The electronic state is 1-AG.
 Alpha  occ. eigenvalues --   -0.79511  -0.67856  -0.51387  -0.16497
 Alpha virt. eigenvalues --   -0.02049   0.15932   0.33583   0.54454

 Mulliken charges:
               1
     1  H    0.053627
     2  H   -0.156911
     3  H    0.027221
     4  H    0.076063
     5  H    0.076063
     6  H    0.027221
     7  H   -0.156911
     8  H    0.053627
 Sum of Mulliken charges =   0.00000

 Dipole moment (field-independent basis, Debye):
    X=             -0.0000    Y=             -0.0000    Z=              0.0000  Tot=              0.0000
 Quadrupole moment (field-independent basis, Debye-Ang):
   XX=            -24.2301   YY=             -9.1918   ZZ=            -10.4279
   XY=             -1.8978   XZ=              0.0000   YZ=              0.0000

 Normal termination of Gaussian 09 at Thu Feb  9 15:21:44 2017.
