 Gaussian 09, Revision E.01,
 Gaussian 09:  ES64L-G09RevE.01 30-Nov-2015

 ----------------------------------------------------------------------
 #rhf/gen scf(symm,tight,novaracc,noincfock,fulldiag) stable(crhf) geom
 =nocrowd test
 ----------------------------------------------------------------------

 hf stability analysis of h10 triangular lattice, y= 0.5587236672175868
 2
 ----------------------------------------------------------------------
 Symbolic Z-matrix:
 Charge =  0 Multiplicity = 1

                         Standard orientation:
 ---------------------------------------------------------------------
 Center     Atomic      Atomic             Coordinates (Angstroms)
 Number     Number       Type             X           Y           Z
 ---------------------------------------------------------------------
      1          1           0        1.033338    1.117447   -0.000000
      2          1           0        2.066676    0.558724    0.000000
      3          1           0        0.000000    0.558724   -0.000000
      4          1           0        1.033338    0.000000    0.000000
      5          1           0       -1.033338    0.000000    0.000000
      6          1           0       -0.000000   -0.558724   -0.000000
      7          1           0       -2.066676   -0.558724    0.000000
      8          1           0       -1.033338   -1.117447    0.000000
 ---------------------------------------------------------------------

 SCF Done:  E(RHF) =  -3.93851547811     A.U. after   10 cycles
 E2 =    -0.8211090671D-01 EUMP2 =    -0.40206263848167D+01

 The electronic state is 1-AG.
 Alpha  occ. eigenvalues --   -0.82042  -0.66673  -0.41127  -0.32154
 Alpha virt. eigenvalues --    0.09714   0.12210   0.48351   0.48646

 Mulliken charges:
               1
     1  H    0.091563
     2  H   -0.020763
     3  H   -0.219660
     4  H    0.148860
     5  H    0.148860
     6  H   -0.219660
     7  H   -0.020763
     8  H    0.091563
 Sum of Mulliken charges =  -0.00000

 Dipole moment (field-independent basis, Debye):
    X=             -0.0000    Y=             -0.0000    Z=              0.0000  Tot=              0.0000
 Quadrupole moment (field-independent basis, Debye-Ang):
   XX=            -10.0090   YY=            -11.6681   ZZ=            -10.5634
   XY=              1.2707   XZ=             -0.0000   YZ=              0.0000

 Normal termination of Gaussian 09 at Thu Feb  9 15:12:05 2017.
