 Gaussian 09, Revision E.01,
 Gaussian 09:  ES64L-G09RevE.01 30-Nov-2015

 ----------------------------------------------------------------------
 #rhf/gen scf(symm,tight,novaracc,noincfock,fulldiag) stable(crhf) geom
 =nocrowd test
 ----------------------------------------------------------------------

 hf stability analysis of h10 triangular lattice, y= 0.4401580473573892
 3
 ----------------------------------------------------------------------
 Symbolic Z-matrix:
 Charge =  0 Multiplicity = 1

                         Standard orientation:
 ---------------------------------------------------------------------
 Center     Atomic      Atomic             Coordinates (Angstroms)
 Number     Number       Type             X           Y           Z
 ---------------------------------------------------------------------
      1          1           0        1.311689    0.880316   -0.000000
      2          1           0        2.623377    0.440158   -0.000000
      3          1           0        0.000000    0.440158    0.000000
      4          1           0        1.311689    0.000000   -0.000000
      5          1           0       -1.311689    0.000000   -0.000000
      6          1           0       -0.000000   -0.440158    0.000000
      7          1           0       -2.623377   -0.440158   -0.000000
      8          1           0       -1.311689   -0.880316   -0.000000
 ---------------------------------------------------------------------

 SCF Done:  E(RHF) =  -3.82079063651     A.U. after   12 cycles
 E2 =    -0.1218375374D+00 EUMP2 =    -0.39426281738905D+01

 The electronic state is 1-AG.
 Alpha  occ. eigenvalues --   -0.80664  -0.67763  -0.46793  -0.18011
 Alpha virt. eigenvalues --    0.05279   0.09321   0.28614   0.52020

 Mulliken charges:
               1
     1  H    0.058564
     2  H   -0.159999
     3  H   -0.052095
     4  H    0.153530
     5  H    0.153530
     6  H   -0.052095
     7  H   -0.159999
     8  H    0.058564
 Sum of Mulliken charges =   0.00000

 Dipole moment (field-independent basis, Debye):
    X=             -0.0000    Y=             -0.0000    Z=              0.0000  Tot=              0.0000
 Quadrupole moment (field-independent basis, Debye-Ang):
   XX=            -20.5948   YY=            -10.0484   ZZ=            -10.4707
   XY=             -1.4640   XZ=             -0.0000   YZ=             -0.0000

 Normal termination of Gaussian 09 at Thu Feb  9 15:19:30 2017.
