 Gaussian 09, Revision E.01,
 Gaussian 09:  ES64L-G09RevE.01 30-Nov-2015

 ----------------------------------------------------------------------
 #rhf/gen scf(symm,tight,novaracc,noincfock,fulldiag) stable(crhf) geom
 =nocrowd test
 ----------------------------------------------------------------------

 hf stability analysis of h10 triangular lattice, y= 0.6518298469188095
 2
 ----------------------------------------------------------------------
 Symbolic Z-matrix:
 Charge =  0 Multiplicity = 1

                         Standard orientation:
 ---------------------------------------------------------------------
 Center     Atomic      Atomic             Coordinates (Angstroms)
 Number     Number       Type             X           Y           Z
 ---------------------------------------------------------------------
      1          1           0        0.885738    1.303660   -0.000000
      2          1           0        1.771475    0.651830   -0.000000
      3          1           0       -0.000000    0.651830   -0.000000
      4          1           0        0.885738    0.000000   -0.000000
      5          1           0       -0.885738    0.000000   -0.000000
      6          1           0       -0.000000   -0.651830   -0.000000
      7          1           0       -1.771475   -0.651830   -0.000000
      8          1           0       -0.885738   -1.303660   -0.000000
 ---------------------------------------------------------------------

 SCF Done:  E(RHF) =  -3.97565113383     A.U. after   10 cycles
 E2 =    -0.8028144636D-01 EUMP2 =    -0.40559325801883D+01

 The electronic state is 1-AG.
 Alpha  occ. eigenvalues --   -0.84465  -0.66667  -0.40137  -0.38811
 Alpha virt. eigenvalues --    0.05429   0.20909   0.41553   0.71949

 Mulliken charges:
               1
     1  H    0.096931
     2  H   -0.041664
     3  H   -0.155982
     4  H    0.100715
     5  H    0.100715
     6  H   -0.155982
     7  H   -0.041664
     8  H    0.096931
 Sum of Mulliken charges =   0.00000

 Dipole moment (field-independent basis, Debye):
    X=              0.0000    Y=             -0.0000    Z=             -0.0000  Tot=              0.0000
 Quadrupole moment (field-independent basis, Debye-Ang):
   XX=            -11.7735   YY=            -11.1326   ZZ=            -10.4792
   XY=              0.5847   XZ=              0.0000   YZ=             -0.0000

 Normal termination of Gaussian 09 at Thu Feb  9 15:06:07 2017.
