 Gaussian 09, Revision E.01,
 Gaussian 09:  ES64L-G09RevE.01 30-Nov-2015

 ----------------------------------------------------------------------
 #rhf/gen scf(symm,tight,novaracc,noincfock,fulldiag) stable(crhf) geom
 =nocrowd test
 ----------------------------------------------------------------------

 hf stability analysis of h10 triangular lattice, y= 0.7499531690997017
 8
 ----------------------------------------------------------------------
 Symbolic Z-matrix:
 Charge =  0 Multiplicity = 1

                         Standard orientation:
 ---------------------------------------------------------------------
 Center     Atomic      Atomic             Coordinates (Angstroms)
 Number     Number       Type             X           Y           Z
 ---------------------------------------------------------------------
      1          1           0        0.769848    1.499906    0.000000
      2          1           0        1.539697    0.749953    0.000000
      3          1           0        0.000000    0.749953    0.000000
      4          1           0        0.769848    0.000000    0.000000
      5          1           0       -0.769848    0.000000    0.000000
      6          1           0       -0.000000   -0.749953    0.000000
      7          1           0       -1.539697   -0.749953    0.000000
      8          1           0       -0.769848   -1.499906    0.000000
 ---------------------------------------------------------------------

 SCF Done:  E(RHF) =  -3.97756967746     A.U. after    9 cycles
 E2 =    -0.8290375850D-01 EUMP2 =    -0.40604734359595D+01

 The electronic state is 1-AG.
 Alpha  occ. eigenvalues --   -0.85235  -0.66459  -0.41078  -0.39668
 Alpha virt. eigenvalues --    0.03900   0.26383   0.36985   0.83702

 Mulliken charges:
               1
     1  H    0.028500
     2  H    0.012855
     3  H   -0.033438
     4  H   -0.007918
     5  H   -0.007918
     6  H   -0.033438
     7  H    0.012855
     8  H    0.028500
 Sum of Mulliken charges =  -0.00000

 Dipole moment (field-independent basis, Debye):
    X=              0.0000    Y=              0.0000    Z=              0.0000  Tot=              0.0000
 Quadrupole moment (field-independent basis, Debye-Ang):
   XX=            -11.6007   YY=            -11.4826   ZZ=            -10.4393
   XY=              0.1403   XZ=             -0.0000   YZ=             -0.0000

 Normal termination of Gaussian 09 at Thu Feb  9 15:00:19 2017.
