 Gaussian 09, Revision E.01,
 Gaussian 09:  ES64L-G09RevE.01 30-Nov-2015

 ----------------------------------------------------------------------
 #rhf/gen scf(symm,tight,novaracc,noincfock,fulldiag) stable(crhf) geom
 =nocrowd test
 ----------------------------------------------------------------------

 hf stability analysis of h10 triangular lattice, y= 0.6234541367984389
 7
 ----------------------------------------------------------------------
 Symbolic Z-matrix:
 Charge =  0 Multiplicity = 1

                         Standard orientation:
 ---------------------------------------------------------------------
 Center     Atomic      Atomic             Coordinates (Angstroms)
 Number     Number       Type             X           Y           Z
 ---------------------------------------------------------------------
      1          1           0        0.926051    1.246908   -0.000000
      2          1           0        1.852102    0.623454   -0.000000
      3          1           0        0.000000    0.623454   -0.000000
      4          1           0        0.926051    0.000000   -0.000000
      5          1           0       -0.926051    0.000000   -0.000000
      6          1           0       -0.000000   -0.623454   -0.000000
      7          1           0       -1.852102   -0.623454   -0.000000
      8          1           0       -0.926051   -1.246908   -0.000000
 ---------------------------------------------------------------------

 SCF Done:  E(RHF) =  -3.97097224438     A.U. after   10 cycles
 E2 =    -0.7980717094D-01 EUMP2 =    -0.40507794153211D+01

 The electronic state is 1-AG.
 Alpha  occ. eigenvalues --   -0.83929  -0.66728  -0.40406  -0.37307
 Alpha virt. eigenvalues --    0.06440   0.18413   0.43533   0.65531

 Mulliken charges:
               1
     1  H    0.104832
     2  H   -0.043034
     3  H   -0.182349
     4  H    0.120551
     5  H    0.120551
     6  H   -0.182349
     7  H   -0.043034
     8  H    0.104832
 Sum of Mulliken charges =  -0.00000

 Dipole moment (field-independent basis, Debye):
    X=             -0.0000    Y=              0.0000    Z=             -0.0000  Tot=              0.0000
 Quadrupole moment (field-independent basis, Debye-Ang):
   XX=            -11.4940   YY=            -11.2030   ZZ=            -10.5019
   XY=              0.8093   XZ=             -0.0000   YZ=              0.0000

 Normal termination of Gaussian 09 at Thu Feb  9 15:07:55 2017.
