 Gaussian 09, Revision E.01,
 Gaussian 09:  ES64L-G09RevE.01 30-Nov-2015

 ----------------------------------------------------------------------
 #rhf/gen scf(symm,tight,novaracc,noincfock,fulldiag) stable(crhf) geom
 =nocrowd test
 ----------------------------------------------------------------------

 hf stability analysis of h10 triangular lattice, y= 0.6211063758797595
 9
 ----------------------------------------------------------------------
 Symbolic Z-matrix:
 Charge =  0 Multiplicity = 1

                         Standard orientation:
 ---------------------------------------------------------------------
 Center     Atomic      Atomic             Coordinates (Angstroms)
 Number     Number       Type             X           Y           Z
 ---------------------------------------------------------------------
      1          1           0        0.929551    1.242213   -0.000000
      2          1           0        1.859103    0.621106   -0.000000
      3          1           0        0.000000    0.621106   -0.000000
      4          1           0        0.929551    0.000000   -0.000000
      5          1           0       -0.929551    0.000000   -0.000000
      6          1           0       -0.000000   -0.621106    0.000000
      7          1           0       -1.859103   -0.621106   -0.000000
      8          1           0       -0.929551   -1.242213    0.000000
 ---------------------------------------------------------------------

 SCF Done:  E(RHF) =  -3.97039621669     A.U. after   10 cycles
 E2 =    -0.7979878762D-01 EUMP2 =    -0.40501950043101D+01

 The electronic state is 1-AG.
 Alpha  occ. eigenvalues --   -0.83877  -0.66732  -0.40430  -0.37163
 Alpha virt. eigenvalues --    0.06536   0.18197   0.43702   0.64961

 Mulliken charges:
               1
     1  H    0.105124
     2  H   -0.042797
     3  H   -0.184256
     4  H    0.121929
     5  H    0.121929
     6  H   -0.184256
     7  H   -0.042797
     8  H    0.105124
 Sum of Mulliken charges =   0.00000

 Dipole moment (field-independent basis, Debye):
    X=              0.0000    Y=             -0.0000    Z=             -0.0000  Tot=              0.0000
 Quadrupole moment (field-independent basis, Debye-Ang):
   XX=            -11.4609   YY=            -11.2130   ZZ=            -10.5040
   XY=              0.8283   XZ=             -0.0000   YZ=              0.0000

 Normal termination of Gaussian 09 at Thu Feb  9 15:08:04 2017.
