 Gaussian 09, Revision E.01,
 Gaussian 09:  ES64L-G09RevE.01 30-Nov-2015

 ----------------------------------------------------------------------
 #rhf/gen scf(symm,tight,novaracc,noincfock,fulldiag) stable(crhf) geom
 =nocrowd test
 ----------------------------------------------------------------------

 hf stability analysis of h10 triangular lattice, y= 0.6917188436794438
 1
 ----------------------------------------------------------------------
 Symbolic Z-matrix:
 Charge =  0 Multiplicity = 1

                         Standard orientation:
 ---------------------------------------------------------------------
 Center     Atomic      Atomic             Coordinates (Angstroms)
 Number     Number       Type             X           Y           Z
 ---------------------------------------------------------------------
      1          1           0        0.834660    1.383438    0.000000
      2          1           0        1.669321    0.691719   -0.000000
      3          1           0        0.000000    0.691719    0.000000
      4          1           0        0.834660    0.000000   -0.000000
      5          1           0       -0.834660    0.000000   -0.000000
      6          1           0       -0.000000   -0.691719   -0.000000
      7          1           0       -1.669321   -0.691719   -0.000000
      8          1           0       -0.834660   -1.383438   -0.000000
 ---------------------------------------------------------------------

 SCF Done:  E(RHF) =  -3.97764234262     A.U. after   10 cycles
 E2 =    -0.8158473366D-01 EUMP2 =    -0.40592270762753D+01

 The electronic state is 1-AG.
 Alpha  occ. eigenvalues --   -0.84955  -0.66555  -0.40235  -0.39852
 Alpha virt. eigenvalues --    0.04466   0.23929   0.39083   0.78986

 Mulliken charges:
               1
     1  H    0.074219
     2  H   -0.027044
     3  H   -0.109884
     4  H    0.062710
     5  H    0.062710
     6  H   -0.109884
     7  H   -0.027044
     8  H    0.074219
 Sum of Mulliken charges =  -0.00000

 Dipole moment (field-independent basis, Debye):
    X=              0.0000    Y=              0.0000    Z=             -0.0000  Tot=              0.0000
 Quadrupole moment (field-independent basis, Debye-Ang):
   XX=            -11.8535   YY=            -11.1864   ZZ=            -10.4550
   XY=              0.3225   XZ=              0.0000   YZ=             -0.0000

 Normal termination of Gaussian 09 at Thu Feb  9 15:03:37 2017.
