 Gaussian 09, Revision E.01,
 Gaussian 09:  ES64L-G09RevE.01 30-Nov-2015

 ----------------------------------------------------------------------
 #rhf/gen scf(symm,tight,novaracc,noincfock,fulldiag) stable(crhf) geom
 =nocrowd test
 ----------------------------------------------------------------------

 hf stability analysis of h10 triangular lattice, y= 0.5046204687822182
 2
 ----------------------------------------------------------------------
 Symbolic Z-matrix:
 Charge =  0 Multiplicity = 1

                         Standard orientation:
 ---------------------------------------------------------------------
 Center     Atomic      Atomic             Coordinates (Angstroms)
 Number     Number       Type             X           Y           Z
 ---------------------------------------------------------------------
      1          1           0        1.144128    1.009241    0.000000
      2          1           0        2.288255    0.504620    0.000000
      3          1           0        0.000000    0.504620   -0.000000
      4          1           0        1.144128    0.000000    0.000000
      5          1           0       -1.144128    0.000000    0.000000
      6          1           0       -0.000000   -0.504620   -0.000000
      7          1           0       -2.288255   -0.504620    0.000000
      8          1           0       -1.144128   -1.009241   -0.000000
 ---------------------------------------------------------------------

 SCF Done:  E(RHF) =  -3.87606956667     A.U. after   10 cycles
 E2 =    -0.9043385519D-01 EUMP2 =    -0.39665034218608D+01

 The electronic state is 1-AG.
 Alpha  occ. eigenvalues --   -0.80159  -0.66531  -0.41958  -0.26106
 Alpha virt. eigenvalues --    0.07593   0.12509   0.34536   0.51911

 Mulliken charges:
               1
     1  H    0.051820
     2  H   -0.011009
     3  H   -0.219443
     4  H    0.178631
     5  H    0.178631
     6  H   -0.219443
     7  H   -0.011009
     8  H    0.051820
 Sum of Mulliken charges =  -0.00000

 Dipole moment (field-independent basis, Debye):
    X=              0.0000    Y=              0.0000    Z=              0.0000  Tot=              0.0000
 Quadrupole moment (field-independent basis, Debye-Ang):
   XX=             -9.1706   YY=            -12.0250   ZZ=            -10.5984
   XY=              1.1065   XZ=              0.0000   YZ=              0.0000

 Normal termination of Gaussian 09 at Thu Feb  9 15:15:32 2017.
