 Gaussian 09, Revision E.01,
 Gaussian 09:  ES64L-G09RevE.01 30-Nov-2015

 ----------------------------------------------------------------------
 #rhf/gen scf(symm,tight,novaracc,noincfock,fulldiag) stable(crhf) geom
 =nocrowd test
 ----------------------------------------------------------------------

 hf stability analysis of h10 triangular lattice, y= 0.4095555687169111
 8
 ----------------------------------------------------------------------
 Symbolic Z-matrix:
 Charge =  0 Multiplicity = 1

                         Standard orientation:
 ---------------------------------------------------------------------
 Center     Atomic      Atomic             Coordinates (Angstroms)
 Number     Number       Type             X           Y           Z
 ---------------------------------------------------------------------
      1          1           0        1.409699    0.819111   -0.000000
      2          1           0        2.819399    0.409556   -0.000000
      3          1           0        0.000000    0.409556   -0.000000
      4          1           0        1.409699    0.000000   -0.000000
      5          1           0       -1.409699    0.000000   -0.000000
      6          1           0       -0.000000   -0.409556   -0.000000
      7          1           0       -2.819399   -0.409556   -0.000000
      8          1           0       -1.409699   -0.819111   -0.000000
 ---------------------------------------------------------------------

 SCF Done:  E(RHF) =  -3.84668240104     A.U. after   11 cycles
 E2 =    -0.1971305468D+00 EUMP2 =    -0.40438129477958D+01

 The electronic state is 1-AG.
 Alpha  occ. eigenvalues --   -0.80116  -0.67954  -0.50544  -0.16358
 Alpha virt. eigenvalues --   -0.00597   0.14141   0.32237   0.53535

 Mulliken charges:
               1
     1  H    0.058212
     2  H   -0.171081
     3  H    0.022816
     4  H    0.090053
     5  H    0.090053
     6  H    0.022816
     7  H   -0.171081
     8  H    0.058212
 Sum of Mulliken charges =  -0.00000

 Dipole moment (field-independent basis, Debye):
    X=              0.0000    Y=              0.0000    Z=              0.0000  Tot=              0.0000
 Quadrupole moment (field-independent basis, Debye-Ang):
   XX=            -24.5084   YY=             -9.2392   ZZ=            -10.4249
   XY=             -2.0002   XZ=              0.0000   YZ=             -0.0000

 Normal termination of Gaussian 09 at Thu Feb  9 15:21:15 2017.
