 Gaussian 09, Revision E.01,
 Gaussian 09:  ES64L-G09RevE.01 30-Nov-2015

 ----------------------------------------------------------------------
 #rhf/gen scf(symm,tight,novaracc,noincfock,fulldiag) stable(crhf) geom
 =nocrowd test
 ----------------------------------------------------------------------

 hf stability analysis of h10 triangular lattice, y= 0.5598889440700592
 9
 ----------------------------------------------------------------------
 Symbolic Z-matrix:
 Charge =  0 Multiplicity = 1

                         Standard orientation:
 ---------------------------------------------------------------------
 Center     Atomic      Atomic             Coordinates (Angstroms)
 Number     Number       Type             X           Y           Z
 ---------------------------------------------------------------------
      1          1           0        1.031187    1.119778    0.000000
      2          1           0        2.062374    0.559889    0.000000
      3          1           0        0.000000    0.559889   -0.000000
      4          1           0        1.031187    0.000000    0.000000
      5          1           0       -1.031187    0.000000    0.000000
      6          1           0       -0.000000   -0.559889   -0.000000
      7          1           0       -2.062374   -0.559889    0.000000
      8          1           0       -1.031187   -1.119778    0.000000
 ---------------------------------------------------------------------

 SCF Done:  E(RHF) =  -3.93947669769     A.U. after   10 cycles
 E2 =    -0.8201366830D-01 EUMP2 =    -0.40214903659857D+01

 The electronic state is 1-AG.
 Alpha  occ. eigenvalues --   -0.82084  -0.66677  -0.41114  -0.32268
 Alpha virt. eigenvalues --    0.09646   0.12323   0.48264   0.48960

 Mulliken charges:
               1
     1  H    0.092187
     2  H   -0.021348
     3  H   -0.219261
     4  H    0.148422
     5  H    0.148422
     6  H   -0.219261
     7  H   -0.021348
     8  H    0.092187
 Sum of Mulliken charges =   0.00000

 Dipole moment (field-independent basis, Debye):
    X=              0.0000    Y=             -0.0000    Z=              0.0000  Tot=              0.0000
 Quadrupole moment (field-independent basis, Debye-Ang):
   XX=            -10.0442   YY=            -11.6573   ZZ=            -10.5622
   XY=              1.2652   XZ=              0.0000   YZ=              0.0000

 Normal termination of Gaussian 09 at Thu Feb  9 15:12:00 2017.
