 Gaussian 09, Revision E.01,
 Gaussian 09:  ES64L-G09RevE.01 30-Nov-2015

 ----------------------------------------------------------------------
 #rhf/gen scf(symm,tight,novaracc,noincfock,fulldiag) stable(crhf) geom
 =nocrowd test
 ----------------------------------------------------------------------

 hf stability analysis of h10 triangular lattice, y= 0.7363205913972231
 7
 ----------------------------------------------------------------------
 Symbolic Z-matrix:
 Charge =  0 Multiplicity = 1

                         Standard orientation:
 ---------------------------------------------------------------------
 Center     Atomic      Atomic             Coordinates (Angstroms)
 Number     Number       Type             X           Y           Z
 ---------------------------------------------------------------------
      1          1           0        0.784102    1.472641   -0.000000
      2          1           0        1.568204    0.736321   -0.000000
      3          1           0        0.000000    0.736321   -0.000000
      4          1           0        0.784102    0.000000   -0.000000
      5          1           0       -0.784102    0.000000   -0.000000
      6          1           0       -0.000000   -0.736321    0.000000
      7          1           0       -1.568204   -0.736321   -0.000000
      8          1           0       -0.784102   -1.472641   -0.000000
 ---------------------------------------------------------------------

 SCF Done:  E(RHF) =  -3.97761914334     A.U. after    9 cycles
 E2 =    -0.8275780352D-01 EUMP2 =    -0.40603769468546D+01

 The electronic state is 1-AG.
 Alpha  occ. eigenvalues --   -0.85209  -0.66469  -0.40999  -0.39686
 Alpha virt. eigenvalues --    0.03953   0.26110   0.37223   0.83236

 Mulliken charges:
               1
     1  H    0.039574
     2  H    0.002368
     3  H   -0.051437
     4  H    0.009495
     5  H    0.009495
     6  H   -0.051437
     7  H    0.002368
     8  H    0.039574
 Sum of Mulliken charges =   0.00000

 Dipole moment (field-independent basis, Debye):
    X=              0.0000    Y=              0.0000    Z=             -0.0000  Tot=              0.0000
 Quadrupole moment (field-independent basis, Debye-Ang):
   XX=            -11.6790   YY=            -11.4015   ZZ=            -10.4408
   XY=              0.1585   XZ=             -0.0000   YZ=              0.0000

 Normal termination of Gaussian 09 at Thu Feb  9 15:01:06 2017.
