 Gaussian 09, Revision E.01,
 Gaussian 09:  ES64L-G09RevE.01 30-Nov-2015

 ----------------------------------------------------------------------
 #rhf/gen scf(symm,tight,novaracc,noincfock,fulldiag) stable(crhf) geom
 =nocrowd test
 ----------------------------------------------------------------------

 hf stability analysis of h10 triangular lattice, y= 0.4279559544474910
 2
 ----------------------------------------------------------------------
 Symbolic Z-matrix:
 Charge =  0 Multiplicity = 1

                         Standard orientation:
 ---------------------------------------------------------------------
 Center     Atomic      Atomic             Coordinates (Angstroms)
 Number     Number       Type             X           Y           Z
 ---------------------------------------------------------------------
      1          1           0        1.349088    0.855912   -0.000000
      2          1           0        2.698176    0.427956   -0.000000
      3          1           0        0.000000    0.427956    0.000000
      4          1           0        1.349088    0.000000   -0.000000
      5          1           0       -1.349088    0.000000   -0.000000
      6          1           0       -0.000000   -0.427956    0.000000
      7          1           0       -2.698176   -0.427956   -0.000000
      8          1           0       -1.349088   -0.855912    0.000000
 ---------------------------------------------------------------------

 SCF Done:  E(RHF) =  -3.82790833825     A.U. after   11 cycles
 E2 =    -0.1451281416D+00 EUMP2 =    -0.39730364798486D+01

 The electronic state is 1-AG.
 Alpha  occ. eigenvalues --   -0.80767  -0.67969  -0.48421  -0.16896
 Alpha virt. eigenvalues --    0.02759   0.10941   0.29789   0.52245

 Mulliken charges:
               1
     1  H    0.062040
     2  H   -0.178611
     3  H   -0.010755
     4  H    0.127327
     5  H    0.127327
     6  H   -0.010755
     7  H   -0.178611
     8  H    0.062040
 Sum of Mulliken charges =  -0.00000

 Dipole moment (field-independent basis, Debye):
    X=              0.0000    Y=             -0.0000    Z=              0.0000  Tot=              0.0000
 Quadrupole moment (field-independent basis, Debye-Ang):
   XX=            -23.1383   YY=             -9.5890   ZZ=            -10.4410
   XY=             -1.8747   XZ=              0.0000   YZ=              0.0000

 Normal termination of Gaussian 09 at Thu Feb  9 15:20:13 2017.
