 Gaussian 09, Revision E.01,
 Gaussian 09:  ES64L-G09RevE.01 30-Nov-2015

 ----------------------------------------------------------------------
 #rhf/gen scf(symm,tight,novaracc,noincfock,fulldiag) stable(crhf) geom
 =nocrowd test
 ----------------------------------------------------------------------

 hf stability analysis of h10 triangular lattice, y= 0.5558094310500802
 9
 ----------------------------------------------------------------------
 Symbolic Z-matrix:
 Charge =  0 Multiplicity = 1

                         Standard orientation:
 ---------------------------------------------------------------------
 Center     Atomic      Atomic             Coordinates (Angstroms)
 Number     Number       Type             X           Y           Z
 ---------------------------------------------------------------------
      1          1           0        1.038756    1.111619   -0.000000
      2          1           0        2.077512    0.555809   -0.000000
      3          1           0        0.000000    0.555809    0.000000
      4          1           0        1.038756    0.000000   -0.000000
      5          1           0       -1.038756    0.000000   -0.000000
      6          1           0       -0.000000   -0.555809   -0.000000
      7          1           0       -2.077512   -0.555809   -0.000000
      8          1           0       -1.038756   -1.111619   -0.000000
 ---------------------------------------------------------------------

 SCF Done:  E(RHF) =  -3.93603957840     A.U. after   10 cycles
 E2 =    -0.8236508223D-01 EUMP2 =    -0.40184046606339D+01

 The electronic state is 1-AG.
 Alpha  occ. eigenvalues --   -0.81937  -0.66663  -0.41162  -0.31863
 Alpha virt. eigenvalues --    0.09884   0.11929   0.47861   0.48569

 Mulliken charges:
               1
     1  H    0.089945
     2  H   -0.019302
     3  H   -0.220611
     4  H    0.149968
     5  H    0.149968
     6  H   -0.220611
     7  H   -0.019302
     8  H    0.089945
 Sum of Mulliken charges =  -0.00000

 Dipole moment (field-independent basis, Debye):
    X=             -0.0000    Y=             -0.0000    Z=             -0.0000  Tot=              0.0000
 Quadrupole moment (field-independent basis, Debye-Ang):
   XX=             -9.9207   YY=            -11.6952   ZZ=            -10.5662
   XY=              1.2838   XZ=              0.0000   YZ=              0.0000

 Normal termination of Gaussian 09 at Thu Feb  9 15:12:16 2017.
