 Gaussian 09, Revision E.01,
 Gaussian 09:  ES64L-G09RevE.01 30-Nov-2015

 ----------------------------------------------------------------------
 #rhf/gen scf(symm,tight,novaracc,noincfock,fulldiag) stable(crhf) geom
 =nocrowd test
 ----------------------------------------------------------------------

 hf stability analysis of h10 triangular lattice, y= 0.5523101133098293
 8
 ----------------------------------------------------------------------
 Symbolic Z-matrix:
 Charge =  0 Multiplicity = 1

                         Standard orientation:
 ---------------------------------------------------------------------
 Center     Atomic      Atomic             Coordinates (Angstroms)
 Number     Number       Type             X           Y           Z
 ---------------------------------------------------------------------
      1          1           0        1.045337    1.104620    0.000000
      2          1           0        2.090674    0.552310    0.000000
      3          1           0        0.000000    0.552310    0.000000
      4          1           0        1.045337    0.000000    0.000000
      5          1           0       -1.045337    0.000000   -0.000000
      6          1           0       -0.000000   -0.552310   -0.000000
      7          1           0       -2.090674   -0.552310   -0.000000
      8          1           0       -1.045337   -1.104620   -0.000000
 ---------------------------------------------------------------------

 SCF Done:  E(RHF) =  -3.93292906534     A.U. after    9 cycles
 E2 =    -0.8269170498D-01 EUMP2 =    -0.40156207703190D+01

 The electronic state is 1-AG.
 Alpha  occ. eigenvalues --   -0.81810  -0.66651  -0.41204  -0.31509
 Alpha virt. eigenvalues --    0.10090   0.11592   0.46919   0.48830

 Mulliken charges:
               1
     1  H    0.087893
     2  H   -0.017560
     3  H   -0.221665
     4  H    0.151332
     5  H    0.151332
     6  H   -0.221665
     7  H   -0.017560
     8  H    0.087893
 Sum of Mulliken charges =  -0.00000

 Dipole moment (field-independent basis, Debye):
    X=              0.0000    Y=             -0.0000    Z=              0.0000  Tot=              0.0000
 Quadrupole moment (field-independent basis, Debye-Ang):
   XX=             -9.8143   YY=            -11.7280   ZZ=            -10.5695
   XY=              1.2977   XZ=              0.0000   YZ=             -0.0000

 Normal termination of Gaussian 09 at Thu Feb  9 15:12:30 2017.
