 Gaussian 09, Revision E.01,
 Gaussian 09:  ES64L-G09RevE.01 30-Nov-2015

 ----------------------------------------------------------------------
 #rhf/gen scf(symm,tight,novaracc,noincfock,fulldiag) stable(crhf) geom
 =nocrowd test
 ----------------------------------------------------------------------

 hf stability analysis of h10 triangular lattice, y= 0.5453026111479248
 9
 ----------------------------------------------------------------------
 Symbolic Z-matrix:
 Charge =  0 Multiplicity = 1

                         Standard orientation:
 ---------------------------------------------------------------------
 Center     Atomic      Atomic             Coordinates (Angstroms)
 Number     Number       Type             X           Y           Z
 ---------------------------------------------------------------------
      1          1           0        1.058770    1.090605   -0.000000
      2          1           0        2.117541    0.545303   -0.000000
      3          1           0        0.000000    0.545303   -0.000000
      4          1           0        1.058770    0.000000   -0.000000
      5          1           0       -1.058770    0.000000    0.000000
      6          1           0       -0.000000   -0.545303   -0.000000
      7          1           0       -2.117541   -0.545303   -0.000000
      8          1           0       -1.058770   -1.090605   -0.000000
 ---------------------------------------------------------------------

 SCF Done:  E(RHF) =  -3.92624148691     A.U. after    9 cycles
 E2 =    -0.8342050321D-01 EUMP2 =    -0.40096619901154D+01

 The electronic state is 1-AG.
 Alpha  occ. eigenvalues --   -0.81551  -0.66624  -0.41289  -0.30778
 Alpha virt. eigenvalues --    0.10502   0.10926   0.45037   0.49346

 Mulliken charges:
               1
     1  H    0.083439
     2  H   -0.014190
     3  H   -0.223465
     4  H    0.154216
     5  H    0.154216
     6  H   -0.223465
     7  H   -0.014190
     8  H    0.083439
 Sum of Mulliken charges =   0.00000

 Dipole moment (field-independent basis, Debye):
    X=             -0.0000    Y=             -0.0000    Z=             -0.0000  Tot=              0.0000
 Quadrupole moment (field-independent basis, Debye-Ang):
   XX=             -9.6036   YY=            -11.7932   ZZ=            -10.5759
   XY=              1.3191   XZ=             -0.0000   YZ=              0.0000

 Normal termination of Gaussian 09 at Thu Feb  9 15:12:57 2017.
