 Gaussian 09, Revision E.01,
 Gaussian 09:  ES64L-G09RevE.01 30-Nov-2015

 ----------------------------------------------------------------------
 #rhf/gen scf(symm,tight,novaracc,noincfock,fulldiag) stable(crhf) geom
 =nocrowd test
 ----------------------------------------------------------------------

 hf stability analysis of h10 triangular lattice, y= 0.3974231564426181
 1
 ----------------------------------------------------------------------
 Symbolic Z-matrix:
 Charge =  0 Multiplicity = 1

                         Standard orientation:
 ---------------------------------------------------------------------
 Center     Atomic      Atomic             Coordinates (Angstroms)
 Number     Number       Type             X           Y           Z
 ---------------------------------------------------------------------
      1          1           0        1.452734    0.794846   -0.000000
      2          1           0        2.905469    0.397423   -0.000000
      3          1           0       -0.000000    0.397423    0.000000
      4          1           0        1.452734    0.000000   -0.000000
      5          1           0       -1.452734   -0.000000   -0.000000
      6          1           0        0.000000   -0.397423    0.000000
      7          1           0       -2.905469   -0.397423   -0.000000
      8          1           0       -1.452734   -0.794846   -0.000000
 ---------------------------------------------------------------------

 SCF Done:  E(RHF) =  -3.86009519844     A.U. after   10 cycles
 E2 =    -0.2335666668D+00 EUMP2 =    -0.40936618652106D+01

 The electronic state is 1-AG.
 Alpha  occ. eigenvalues --   -0.79248  -0.67813  -0.51701  -0.16591
 Alpha virt. eigenvalues --   -0.02594   0.16663   0.34127   0.54839

 Mulliken charges:
               1
     1  H    0.051602
     2  H   -0.150543
     3  H    0.027694
     4  H    0.071248
     5  H    0.071248
     6  H    0.027694
     7  H   -0.150543
     8  H    0.051602
 Sum of Mulliken charges =  -0.00000

 Dipole moment (field-independent basis, Debye):
    X=              0.0000    Y=             -0.0000    Z=              0.0000  Tot=              0.0000
 Quadrupole moment (field-independent basis, Debye-Ang):
   XX=            -24.0215   YY=             -9.1855   ZZ=            -10.4303
   XY=             -1.8432   XZ=             -0.0000   YZ=             -0.0000

 Normal termination of Gaussian 09 at Thu Feb  9 15:21:56 2017.
