 Gaussian 09, Revision E.01,
 Gaussian 09:  ES64L-G09RevE.01 30-Nov-2015

 ----------------------------------------------------------------------
 #rhf/gen scf(symm,tight,novaracc,noincfock,fulldiag) stable(crhf) geom
 =nocrowd test
 ----------------------------------------------------------------------

 hf stability analysis of h10 triangular lattice, y= 0.6923333353822218
 6
 ----------------------------------------------------------------------
 Symbolic Z-matrix:
 Charge =  0 Multiplicity = 1

                         Standard orientation:
 ---------------------------------------------------------------------
 Center     Atomic      Atomic             Coordinates (Angstroms)
 Number     Number       Type             X           Y           Z
 ---------------------------------------------------------------------
      1          1           0        0.833920    1.384667   -0.000000
      2          1           0        1.667839    0.692333   -0.000000
      3          1           0        0.000000    0.692333    0.000000
      4          1           0        0.833920    0.000000   -0.000000
      5          1           0       -0.833920    0.000000    0.000000
      6          1           0       -0.000000   -0.692333   -0.000000
      7          1           0       -1.667839   -0.692333    0.000000
      8          1           0       -0.833920   -1.384667   -0.000000
 ---------------------------------------------------------------------

 SCF Done:  E(RHF) =  -3.97765008332     A.U. after   10 cycles
 E2 =    -0.8160566476D-01 EUMP2 =    -0.40592557480830D+01

 The electronic state is 1-AG.
 Alpha  occ. eigenvalues --   -0.84960  -0.66554  -0.40251  -0.39848
 Alpha virt. eigenvalues --    0.04455   0.23970   0.39049   0.79072

 Mulliken charges:
               1
     1  H    0.073788
     2  H   -0.026717
     3  H   -0.109111
     4  H    0.062040
     5  H    0.062040
     6  H   -0.109111
     7  H   -0.026717
     8  H    0.073788
 Sum of Mulliken charges =  -0.00000

 Dipole moment (field-independent basis, Debye):
    X=             -0.0000    Y=             -0.0000    Z=             -0.0000  Tot=              0.0000
 Quadrupole moment (field-independent basis, Debye-Ang):
   XX=            -11.8526   YY=            -11.1884   ZZ=            -10.4547
   XY=              0.3192   XZ=              0.0000   YZ=             -0.0000

 Normal termination of Gaussian 09 at Thu Feb  9 15:03:35 2017.
