 Gaussian 09, Revision E.01,
 Gaussian 09:  ES64L-G09RevE.01 30-Nov-2015

 ----------------------------------------------------------------------
 #rhf/gen scf(symm,tight,novaracc,noincfock,fulldiag) stable(crhf) geom
 =nocrowd test
 ----------------------------------------------------------------------

 hf stability analysis of h10 triangular lattice, y= 0.5563924050096883
 4
 ----------------------------------------------------------------------
 Symbolic Z-matrix:
 Charge =  0 Multiplicity = 1

                         Standard orientation:
 ---------------------------------------------------------------------
 Center     Atomic      Atomic             Coordinates (Angstroms)
 Number     Number       Type             X           Y           Z
 ---------------------------------------------------------------------
      1          1           0        1.037667    1.112785   -0.000000
      2          1           0        2.075335    0.556392   -0.000000
      3          1           0        0.000000    0.556392    0.000000
      4          1           0        1.037667    0.000000   -0.000000
      5          1           0       -1.037667    0.000000   -0.000000
      6          1           0       -0.000000   -0.556392    0.000000
      7          1           0       -2.075335   -0.556392   -0.000000
      8          1           0       -1.037667   -1.112785   -0.000000
 ---------------------------------------------------------------------

 SCF Done:  E(RHF) =  -3.93654314366     A.U. after   10 cycles
 E2 =    -0.8231296157D-01 EUMP2 =    -0.40188561052303D+01

 The electronic state is 1-AG.
 Alpha  occ. eigenvalues --   -0.81959  -0.66665  -0.41155  -0.31922
 Alpha virt. eigenvalues --    0.09850   0.11985   0.48018   0.48525

 Mulliken charges:
               1
     1  H    0.090275
     2  H   -0.019594
     3  H   -0.220426
     4  H    0.149744
     5  H    0.149744
     6  H   -0.220426
     7  H   -0.019594
     8  H    0.090275
 Sum of Mulliken charges =   0.00000

 Dipole moment (field-independent basis, Debye):
    X=              0.0000    Y=              0.0000    Z=             -0.0000  Tot=              0.0000
 Quadrupole moment (field-independent basis, Debye-Ang):
   XX=             -9.9384   YY=            -11.6898   ZZ=            -10.5656
   XY=              1.2813   XZ=             -0.0000   YZ=              0.0000

 Normal termination of Gaussian 09 at Thu Feb  9 15:12:14 2017.
