 Gaussian 09, Revision E.01,
 Gaussian 09:  ES64L-G09RevE.01 30-Nov-2015

 ----------------------------------------------------------------------
 #rhf/gen scf(symm,tight,novaracc,noincfock,fulldiag) stable(crhf) geom
 =nocrowd test
 ----------------------------------------------------------------------

 hf stability analysis of h10 triangular lattice, y= 0.7046982294899564
 2
 ----------------------------------------------------------------------
 Symbolic Z-matrix:
 Charge =  0 Multiplicity = 1

                         Standard orientation:
 ---------------------------------------------------------------------
 Center     Atomic      Atomic             Coordinates (Angstroms)
 Number     Number       Type             X           Y           Z
 ---------------------------------------------------------------------
      1          1           0        0.819287    1.409396   -0.000000
      2          1           0        1.638575    0.704698   -0.000000
      3          1           0       -0.000000    0.704698   -0.000000
      4          1           0        0.819287    0.000000   -0.000000
      5          1           0       -0.819287    0.000000   -0.000000
      6          1           0       -0.000000   -0.704698   -0.000000
      7          1           0       -1.638575   -0.704698   -0.000000
      8          1           0       -0.819287   -1.409396   -0.000000
 ---------------------------------------------------------------------

 SCF Done:  E(RHF) =  -3.97772937466     A.U. after   10 cycles
 E2 =    -0.8200913366D-01 EUMP2 =    -0.40597385083205D+01

 The electronic state is 1-AG.
 Alpha  occ. eigenvalues --   -0.85058  -0.66523  -0.40542  -0.39786
 Alpha virt. eigenvalues --    0.04260   0.24730   0.38408   0.80647

 Mulliken charges:
               1
     1  H    0.064741
     2  H   -0.019584
     3  H   -0.093271
     4  H    0.048115
     5  H    0.048115
     6  H   -0.093271
     7  H   -0.019584
     8  H    0.064741
 Sum of Mulliken charges =   0.00000

 Dipole moment (field-independent basis, Debye):
    X=             -0.0000    Y=              0.0000    Z=             -0.0000  Tot=              0.0000
 Quadrupole moment (field-independent basis, Debye-Ang):
   XX=            -11.8226   YY=            -11.2364   ZZ=            -10.4494
   XY=              0.2588   XZ=              0.0000   YZ=             -0.0000

 Normal termination of Gaussian 09 at Thu Feb  9 15:02:58 2017.
