 Gaussian 09, Revision E.01,
 Gaussian 09:  ES64L-G09RevE.01 30-Nov-2015

 ----------------------------------------------------------------------
 #rhf/gen scf(symm,tight,novaracc,noincfock,fulldiag) stable(crhf) geom
 =nocrowd test
 ----------------------------------------------------------------------

 hf stability analysis of h10 triangular lattice, y= 0.3263196202293471
 3
 ----------------------------------------------------------------------
 Symbolic Z-matrix:
 Charge =  0 Multiplicity = 1

                         Standard orientation:
 ---------------------------------------------------------------------
 Center     Atomic      Atomic             Coordinates (Angstroms)
 Number     Number       Type             X           Y           Z
 ---------------------------------------------------------------------
      1          1           0        1.769278    0.652639    0.000000
      2          1           0        3.538557    0.326320    0.000000
      3          1           0        0.000000    0.326320   -0.000000
      4          1           0        1.769278    0.000000    0.000000
      5          1           0       -1.769278    0.000000   -0.000000
      6          1           0       -0.000000   -0.326320   -0.000000
      7          1           0       -3.538557   -0.326320   -0.000000
      8          1           0       -1.769278   -0.652639   -0.000000
 ---------------------------------------------------------------------

 SCF Done:  E(RHF) =  -3.87014798790     A.U. after    7 cycles
 E2 =    -0.4776462064D+00 EUMP2 =    -0.43477941942699D+01

 The electronic state is 1-AG.
 Alpha  occ. eigenvalues --   -0.74138  -0.67782  -0.58970  -0.19604
 Alpha virt. eigenvalues --   -0.11365   0.33623   0.46597   0.62839

 Mulliken charges:
               1
     1  H    0.012151
     2  H   -0.030358
     3  H    0.005759
     4  H    0.012448
     5  H    0.012448
     6  H    0.005759
     7  H   -0.030358
     8  H    0.012151
 Sum of Mulliken charges =  -0.00000

 Dipole moment (field-independent basis, Debye):
    X=             -0.0000    Y=              0.0000    Z=              0.0000  Tot=              0.0000
 Quadrupole moment (field-independent basis, Debye-Ang):
   XX=            -16.5624   YY=             -9.5223   ZZ=            -10.5473
   XY=             -0.5841   XZ=             -0.0000   YZ=             -0.0000

 Normal termination of Gaussian 09 at Thu Feb  9 15:25:32 2017.
