 Gaussian 09, Revision E.01,
 Gaussian 09:  ES64L-G09RevE.01 30-Nov-2015

 ----------------------------------------------------------------------
 #rhf/gen scf(symm,tight,novaracc,noincfock,fulldiag) stable(crhf) geom
 =nocrowd test
 ----------------------------------------------------------------------

 hf stability analysis of h10 triangular lattice, y= 0.5135390923077319
 8
 ----------------------------------------------------------------------
 Symbolic Z-matrix:
 Charge =  0 Multiplicity = 1

                         Standard orientation:
 ---------------------------------------------------------------------
 Center     Atomic      Atomic             Coordinates (Angstroms)
 Number     Number       Type             X           Y           Z
 ---------------------------------------------------------------------
      1          1           0        1.124258    1.027078    0.000000
      2          1           0        2.248515    0.513539    0.000000
      3          1           0        0.000000    0.513539   -0.000000
      4          1           0        1.124258    0.000000    0.000000
      5          1           0       -1.124258    0.000000   -0.000000
      6          1           0       -0.000000   -0.513539   -0.000000
      7          1           0       -2.248515   -0.513539   -0.000000
      8          1           0       -1.124258   -1.027078   -0.000000
 ---------------------------------------------------------------------

 SCF Done:  E(RHF) =  -3.88844010202     A.U. after   10 cycles
 E2 =    -0.8836048717D-01 EUMP2 =    -0.39768005891937D+01

 The electronic state is 1-AG.
 Alpha  occ. eigenvalues --   -0.80411  -0.66524  -0.41761  -0.27177
 Alpha virt. eigenvalues --    0.08187   0.12199   0.36727   0.51462

 Mulliken charges:
               1
     1  H    0.058851
     2  H   -0.007163
     3  H   -0.223733
     4  H    0.172045
     5  H    0.172045
     6  H   -0.223733
     7  H   -0.007163
     8  H    0.058851
 Sum of Mulliken charges =   0.00000

 Dipole moment (field-independent basis, Debye):
    X=              0.0000    Y=              0.0000    Z=              0.0000  Tot=              0.0000
 Quadrupole moment (field-independent basis, Debye-Ang):
   XX=             -9.0186   YY=            -12.0207   ZZ=            -10.5973
   XY=              1.2278   XZ=              0.0000   YZ=              0.0000

 Normal termination of Gaussian 09 at Thu Feb  9 15:14:59 2017.
