 Gaussian 09, Revision E.01,
 Gaussian 09:  ES64L-G09RevE.01 30-Nov-2015

 ----------------------------------------------------------------------
 #rhf/gen scf(symm,tight,novaracc,noincfock,fulldiag) stable(crhf) geom
 =nocrowd test
 ----------------------------------------------------------------------

 hf stability analysis of h10 triangular lattice, y= 0.5697865341258980
 8
 ----------------------------------------------------------------------
 Symbolic Z-matrix:
 Charge =  0 Multiplicity = 1

                         Standard orientation:
 ---------------------------------------------------------------------
 Center     Atomic      Atomic             Coordinates (Angstroms)
 Number     Number       Type             X           Y           Z
 ---------------------------------------------------------------------
      1          1           0        1.013275    1.139573   -0.000000
      2          1           0        2.026549    0.569787   -0.000000
      3          1           0        0.000000    0.569787   -0.000000
      4          1           0        1.013275    0.000000   -0.000000
      5          1           0       -1.013275    0.000000   -0.000000
      6          1           0       -0.000000   -0.569787   -0.000000
      7          1           0       -2.026549   -0.569787   -0.000000
      8          1           0       -1.013275   -1.139573   -0.000000
 ---------------------------------------------------------------------

 SCF Done:  E(RHF) =  -3.94699563111     A.U. after    9 cycles
 E2 =    -0.8128384790D-01 EUMP2 =    -0.40282794790115D+01

 The electronic state is 1-AG.
 Alpha  occ. eigenvalues --   -0.82428  -0.66706  -0.40998  -0.33210
 Alpha virt. eigenvalues --    0.09078   0.13284   0.47518   0.51627

 Mulliken charges:
               1
     1  H    0.096936
     2  H   -0.026242
     3  H   -0.215468
     4  H    0.144774
     5  H    0.144774
     6  H   -0.215468
     7  H   -0.026242
     8  H    0.096936
 Sum of Mulliken charges =  -0.00000

 Dipole moment (field-independent basis, Debye):
    X=             -0.0000    Y=             -0.0000    Z=             -0.0000  Tot=              0.0000
 Quadrupole moment (field-independent basis, Debye-Ang):
   XX=            -10.3361   YY=            -11.5672   ZZ=            -10.5526
   XY=              1.2112   XZ=             -0.0000   YZ=              0.0000

 Normal termination of Gaussian 09 at Thu Feb  9 15:11:21 2017.
