 Gaussian 09, Revision E.01,
 Gaussian 09:  ES64L-G09RevE.01 30-Nov-2015

 ----------------------------------------------------------------------
 #rhf/gen scf(symm,tight,novaracc,noincfock,fulldiag) stable(crhf) geom
 =nocrowd test
 ----------------------------------------------------------------------

 hf stability analysis of h10 triangular lattice, y= 0.9939902605958700
 3
 ----------------------------------------------------------------------
 Symbolic Z-matrix:
 Charge =  0 Multiplicity = 1

                         Standard orientation:
 ---------------------------------------------------------------------
 Center     Atomic      Atomic             Coordinates (Angstroms)
 Number     Number       Type             X           Y           Z
 ---------------------------------------------------------------------
      1          1           0        2.005982    1.705941   -0.000000
      2          1           0        2.005982    0.554684   -0.000000
      3          1           0        1.002991    1.140785   -0.000000
      4          1           0        1.002991   -0.010472   -0.000000
      5          1           0        0.000000    0.575629    0.000000
      6          1           0       -0.000000   -0.575629    0.000000
      7          1           0       -1.002991    0.010472   -0.000000
      8          1           0       -1.002991   -1.140785   -0.000000
      9          1           0       -2.005982   -0.554684   -0.000000
     10          1           0       -2.005982   -1.705941   -0.000000
 ---------------------------------------------------------------------

 SCF Done:  E(RHF) =  -4.86805983580     A.U. after   10 cycles
 E2 =    -0.1129791731D+00 EUMP2 =    -0.49810390088998D+01

 The electronic state is 1-AG.
 Alpha  occ. eigenvalues --   -0.84303  -0.74032  -0.55099  -0.34257  -0.30781
 Alpha virt. eigenvalues --   -0.00271   0.22376   0.23704   0.55839   0.59253

 Mulliken charges:
               1
     1  H   -0.092331
     2  H    0.145820
     3  H    0.106953
     4  H   -0.120659
     5  H   -0.039783
     6  H   -0.039783
     7  H   -0.120659
     8  H    0.106953
     9  H    0.145820
    10  H   -0.092331
 Sum of Mulliken charges =  -0.00000

 Dipole moment (field-independent basis, Debye):
    X=             -0.0000    Y=              0.0000    Z=             -0.0000  Tot=              0.0000
 Quadrupole moment (field-independent basis, Debye-Ang):
   XX=            -13.6670   YY=            -15.4900   ZZ=            -12.9818
   XY=             -1.1096   XZ=              0.0000   YZ=              0.0000

 Normal termination of Gaussian 09 at Thu Feb  9 15:35:54 2017.
