 Gaussian 09, Revision E.01,
 Gaussian 09:  ES64L-G09RevE.01 30-Nov-2015

 ----------------------------------------------------------------------
 #rhf/gen scf(symm,tight,novaracc,noincfock,fulldiag) stable(crhf) geom
 =nocrowd test
 ----------------------------------------------------------------------

 ----------------------------------------------------------------------
 hf stability analysis of h10 triangular lattice, y= 1.0725825255210610
 ----------------------------------------------------------------------
 Symbolic Z-matrix:
 Charge =  0 Multiplicity = 1

                         Standard orientation:
 ---------------------------------------------------------------------
 Center     Atomic      Atomic             Coordinates (Angstroms)
 Number     Number       Type             X           Y           Z
 ---------------------------------------------------------------------
      1          1           0        1.924381    2.034427    0.000000
      2          1           0        1.924381    0.834352    0.000000
      3          1           0        0.962191    1.317232    0.000000
      4          1           0        0.962191    0.117157    0.000000
      5          1           0       -0.000000    0.600037    0.000000
      6          1           0       -0.000000   -0.600037    0.000000
      7          1           0       -0.962191   -0.117157    0.000000
      8          1           0       -0.962191   -1.317232    0.000000
      9          1           0       -1.924381   -0.834352    0.000000
     10          1           0       -1.924381   -2.034427    0.000000
 ---------------------------------------------------------------------

 SCF Done:  E(RHF) =  -4.85468281799     A.U. after   10 cycles
 E2 =    -0.1163292790D+00 EUMP2 =    -0.49710120970101D+01

 The electronic state is 1-AG.
 Alpha  occ. eigenvalues --   -0.82628  -0.73720  -0.55297  -0.32364  -0.29245
 Alpha virt. eigenvalues --    0.01731   0.17560   0.24442   0.47836   0.58155

 Mulliken charges:
               1
     1  H   -0.063029
     2  H    0.135143
     3  H    0.113143
     4  H   -0.120267
     5  H   -0.064991
     6  H   -0.064991
     7  H   -0.120267
     8  H    0.113143
     9  H    0.135143
    10  H   -0.063029
 Sum of Mulliken charges =  -0.00000

 Dipole moment (field-independent basis, Debye):
    X=             -0.0000    Y=              0.0000    Z=              0.0000  Tot=              0.0000
 Quadrupole moment (field-independent basis, Debye-Ang):
   XX=            -12.6574   YY=            -14.7511   ZZ=            -13.0637
   XY=              0.4359   XZ=             -0.0000   YZ=              0.0000

 Normal termination of Gaussian 09 at Thu Feb  9 15:39:25 2017.
