 Gaussian 09, Revision E.01,
 Gaussian 09:  ES64L-G09RevE.01 30-Nov-2015

 ----------------------------------------------------------------------
 #rhf/gen scf(symm,tight,novaracc,noincfock,fulldiag) stable(crhf) geom
 =nocrowd test
 ----------------------------------------------------------------------

 hf stability analysis of h10 triangular lattice, y= 0.9483224782500665
 5
 ----------------------------------------------------------------------
 Symbolic Z-matrix:
 Charge =  0 Multiplicity = 1

                         Standard orientation:
 ---------------------------------------------------------------------
 Center     Atomic      Atomic             Coordinates (Angstroms)
 Number     Number       Type             X           Y           Z
 ---------------------------------------------------------------------
      1          1           0        2.049288    1.501702   -0.000000
      2          1           0        2.049288    0.374773   -0.000000
      3          1           0        1.024644    1.032583   -0.000000
      4          1           0        1.024644   -0.094346   -0.000000
      5          1           0       -0.000000    0.563464    0.000000
      6          1           0       -0.000000   -0.563464   -0.000000
      7          1           0       -1.024644    0.094346    0.000000
      8          1           0       -1.024644   -1.032583    0.000000
      9          1           0       -2.049288   -0.374773    0.000000
     10          1           0       -2.049288   -1.501702    0.000000
 ---------------------------------------------------------------------

 SCF Done:  E(RHF) =  -4.86659897647     A.U. after   10 cycles
 E2 =    -0.1124646421D+00 EUMP2 =    -0.49790636185624D+01

 The electronic state is 1-AG.
 Alpha  occ. eigenvalues --   -0.85070  -0.74048  -0.54925  -0.36370  -0.30245
 Alpha virt. eigenvalues --   -0.01342   0.22925   0.25459   0.54617   0.67208

 Mulliken charges:
               1
     1  H   -0.097252
     2  H    0.142069
     3  H    0.096425
     4  H   -0.116114
     5  H   -0.025128
     6  H   -0.025128
     7  H   -0.116114
     8  H    0.096425
     9  H    0.142069
    10  H   -0.097252
 Sum of Mulliken charges =  -0.00000

 Dipole moment (field-independent basis, Debye):
    X=             -0.0000    Y=             -0.0000    Z=              0.0000  Tot=              0.0000
 Quadrupole moment (field-independent basis, Debye-Ang):
   XX=            -14.3309   YY=            -15.3228   ZZ=            -12.9318
   XY=             -1.6448   XZ=              0.0000   YZ=              0.0000

 Normal termination of Gaussian 09 at Thu Feb  9 15:33:41 2017.
