 Gaussian 09, Revision E.01,
 Gaussian 09:  ES64L-G09RevE.01 30-Nov-2015

 ----------------------------------------------------------------------
 #rhf/gen scf(symm,tight,novaracc,noincfock,fulldiag) stable(crhf) geom
 =nocrowd test
 ----------------------------------------------------------------------

 ----------------------------------------------------------------------
 hf stability analysis of h10 triangular lattice, y= 1.3097945671951174
 ----------------------------------------------------------------------
 Symbolic Z-matrix:
 Charge =  0 Multiplicity = 1

                         Standard orientation:
 ---------------------------------------------------------------------
 Center     Atomic      Atomic             Coordinates (Angstroms)
 Number     Number       Type             X           Y           Z
 ---------------------------------------------------------------------
      1          1           0        1.671085    2.892561   -0.000000
      2          1           0        1.671085    1.510584   -0.000000
      3          1           0        0.835542    1.791775   -0.000000
      4          1           0        0.835542    0.409798   -0.000000
      5          1           0        0.000000    0.690989   -0.000000
      6          1           0       -0.000000   -0.690989   -0.000000
      7          1           0       -0.835542   -0.409798   -0.000000
      8          1           0       -0.835542   -1.791775   -0.000000
      9          1           0       -1.671085   -1.510584   -0.000000
     10          1           0       -1.671085   -2.892561   -0.000000
 ---------------------------------------------------------------------

 SCF Done:  E(RHF) =  -4.74248005726     A.U. after   12 cycles
 E2 =    -0.2103989877D+00 EUMP2 =    -0.49528790449679D+01

 The electronic state is 1-AG.
 Alpha  occ. eigenvalues --   -0.83214  -0.73835  -0.59607  -0.41617  -0.11146
 Alpha virt. eigenvalues --    0.01805   0.08694   0.20388   0.38944   0.55515

 Mulliken charges:
               1
     1  H   -0.248426
     2  H    0.049154
     3  H    0.122420
     4  H    0.034501
     5  H    0.042352
     6  H    0.042352
     7  H    0.034501
     8  H    0.122420
     9  H    0.049154
    10  H   -0.248426
 Sum of Mulliken charges =   0.00000

 Dipole moment (field-independent basis, Debye):
    X=             -0.0000    Y=             -0.0000    Z=              0.0000  Tot=              0.0000
 Quadrupole moment (field-independent basis, Debye-Ang):
   XX=            -17.3991   YY=            -31.9013   ZZ=            -12.7923
   XY=            -11.8020   XZ=              0.0000   YZ=              0.0000

 Normal termination of Gaussian 09 at Thu Feb  9 15:47:16 2017.
