 Gaussian 09, Revision E.01,
 Gaussian 09:  ES64L-G09RevE.01 30-Nov-2015

 ----------------------------------------------------------------------
 #rhf/gen scf(symm,tight,novaracc,noincfock,fulldiag) stable(crhf) geom
 =nocrowd test
 ----------------------------------------------------------------------

 hf stability analysis of h10 triangular lattice, y= 0.8849287528247804
 5
 ----------------------------------------------------------------------
 Symbolic Z-matrix:
 Charge =  0 Multiplicity = 1

                         Standard orientation:
 ---------------------------------------------------------------------
 Center     Atomic      Atomic             Coordinates (Angstroms)
 Number     Number       Type             X           Y           Z
 ---------------------------------------------------------------------
      1          1           0        2.100534    1.199941    0.000000
      2          1           0        2.100534    0.100506    0.000000
      3          1           0        1.050267    0.874830    0.000000
      4          1           0        1.050267   -0.224606    0.000000
      5          1           0        0.000000    0.549718   -0.000000
      6          1           0       -0.000000   -0.549718   -0.000000
      7          1           0       -1.050267    0.224606    0.000000
      8          1           0       -1.050267   -0.874830    0.000000
      9          1           0       -2.100534   -0.100506    0.000000
     10          1           0       -2.100534   -1.199941    0.000000
 ---------------------------------------------------------------------

 SCF Done:  E(RHF) =  -4.85689688631     A.U. after   10 cycles
 E2 =    -0.1134055083D+00 EUMP2 =    -0.49703023945703D+01

 The electronic state is 1-AG.
 Alpha  occ. eigenvalues --   -0.85838  -0.73898  -0.54656  -0.38789  -0.29427
 Alpha virt. eigenvalues --   -0.02484   0.21843   0.29581   0.53162   0.78687

 Mulliken charges:
               1
     1  H   -0.083933
     2  H    0.120896
     3  H    0.069418
     4  H   -0.101157
     5  H   -0.005224
     6  H   -0.005224
     7  H   -0.101157
     8  H    0.069418
     9  H    0.120896
    10  H   -0.083933
 Sum of Mulliken charges =  -0.00000

 Dipole moment (field-independent basis, Debye):
    X=              0.0000    Y=             -0.0000    Z=              0.0000  Tot=              0.0000
 Quadrupole moment (field-independent basis, Debye-Ang):
   XX=            -15.2276   YY=            -14.6004   ZZ=            -12.8657
   XY=             -1.7915   XZ=             -0.0000   YZ=             -0.0000

 Normal termination of Gaussian 09 at Thu Feb  9 15:30:27 2017.
