 Gaussian 09, Revision E.01,
 Gaussian 09:  ES64L-G09RevE.01 30-Nov-2015

 ----------------------------------------------------------------------
 #rhf/gen scf(symm,tight,novaracc,noincfock,fulldiag) stable(crhf) geom
 =nocrowd test
 ----------------------------------------------------------------------

 ----------------------------------------------------------------------
 hf stability analysis of h10 triangular lattice, y= 1.6624140235022404
 ----------------------------------------------------------------------
 Symbolic Z-matrix:
 Charge =  0 Multiplicity = 1

                         Standard orientation:
 ---------------------------------------------------------------------
 Center     Atomic      Atomic             Coordinates (Angstroms)
 Number     Number       Type             X           Y           Z
 ---------------------------------------------------------------------
      1          1           0        1.359828    3.961676   -0.000000
      2          1           0        1.359828    2.263372   -0.000000
      3          1           0        0.679914    2.405414   -0.000000
      4          1           0        0.679914    0.707110   -0.000000
      5          1           0        0.000000    0.849152   -0.000000
      6          1           0       -0.000000   -0.849152    0.000000
      7          1           0       -0.679914   -0.707110    0.000000
      8          1           0       -0.679914   -2.405414    0.000000
      9          1           0       -1.359828   -2.263372    0.000000
     10          1           0       -1.359828   -3.961676    0.000000
 ---------------------------------------------------------------------

 SCF Done:  E(RHF) =  -4.92183453884     A.U. after    7 cycles
 E2 =    -0.5815710373D+00 EUMP2 =    -0.55034055761870D+01

 The electronic state is 1-AG.
 Alpha  occ. eigenvalues --   -0.75181  -0.70404  -0.62692  -0.53446  -0.17429
 Alpha virt. eigenvalues --   -0.10496   0.27750   0.37093   0.51162   0.65036

 Mulliken charges:
               1
     1  H   -0.048045
     2  H    0.015370
     3  H    0.021273
     4  H    0.003440
     5  H    0.007963
     6  H    0.007963
     7  H    0.003440
     8  H    0.021273
     9  H    0.015370
    10  H   -0.048045
 Sum of Mulliken charges =   0.00000

 Dipole moment (field-independent basis, Debye):
    X=              0.0000    Y=             -0.0000    Z=             -0.0000  Tot=              0.0000
 Quadrupole moment (field-independent basis, Debye-Ang):
   XX=            -12.6338   YY=            -22.5330   ZZ=            -13.0296
   XY=             -3.6189   XZ=              0.0000   YZ=              0.0000

 Normal termination of Gaussian 09 at Thu Feb  9 15:53:49 2017.
