 Gaussian 09, Revision E.01,
 Gaussian 09:  ES64L-G09RevE.01 30-Nov-2015

 ----------------------------------------------------------------------
 #rhf/gen scf(symm,tight,novaracc,noincfock,fulldiag) stable(crhf) geom
 =nocrowd test
 ----------------------------------------------------------------------

 ----------------------------------------------------------------------
 hf stability analysis of h10 triangular lattice, y= 1.6445705118746621
 ----------------------------------------------------------------------
 Symbolic Z-matrix:
 Charge =  0 Multiplicity = 1

                         Standard orientation:
 ---------------------------------------------------------------------
 Center     Atomic      Atomic             Coordinates (Angstroms)
 Number     Number       Type             X           Y           Z
 ---------------------------------------------------------------------
      1          1           0        1.373316    3.910899    0.000000
      2          1           0        1.373316    2.229275    0.000000
      3          1           0        0.686658    2.375856    0.000000
      4          1           0        0.686658    0.694232    0.000000
      5          1           0        0.000000    0.840812    0.000000
      6          1           0       -0.000000   -0.840812    0.000000
      7          1           0       -0.686658   -0.694232    0.000000
      8          1           0       -0.686658   -2.375856    0.000000
      9          1           0       -1.373316   -2.229275    0.000000
     10          1           0       -1.373316   -3.910899    0.000000
 ---------------------------------------------------------------------

 SCF Done:  E(RHF) =  -4.92118812563     A.U. after    8 cycles
 E2 =    -0.5650109472D+00 EUMP2 =    -0.54861990728158D+01

 The electronic state is 1-AG.
 Alpha  occ. eigenvalues --   -0.75401  -0.70463  -0.62494  -0.52885  -0.17193
 Alpha virt. eigenvalues --   -0.10112   0.26861   0.36360   0.50656   0.64750

 Mulliken charges:
               1
     1  H   -0.053371
     2  H    0.016741
     3  H    0.023552
     4  H    0.004122
     5  H    0.008956
     6  H    0.008956
     7  H    0.004122
     8  H    0.023552
     9  H    0.016741
    10  H   -0.053371
 Sum of Mulliken charges =  -0.00000

 Dipole moment (field-independent basis, Debye):
    X=              0.0000    Y=              0.0000    Z=             -0.0000  Tot=              0.0000
 Quadrupole moment (field-independent basis, Debye-Ang):
   XX=            -12.7065   YY=            -23.0186   ZZ=            -13.0154
   XY=             -3.8825   XZ=             -0.0000   YZ=              0.0000

 Normal termination of Gaussian 09 at Thu Feb  9 15:53:35 2017.
