 Gaussian 09, Revision E.01,
 Gaussian 09:  ES64L-G09RevE.01 30-Nov-2015

 ----------------------------------------------------------------------
 #rhf/gen scf(symm,tight,novaracc,noincfock,fulldiag) stable(crhf) geom
 =nocrowd test
 ----------------------------------------------------------------------

 hf stability analysis of h10 triangular lattice, y= 0.8511933354580156
 8
 ----------------------------------------------------------------------
 Symbolic Z-matrix:
 Charge =  0 Multiplicity = 1

                         Standard orientation:
 ---------------------------------------------------------------------
 Center     Atomic      Atomic             Coordinates (Angstroms)
 Number     Number       Type             X           Y           Z
 ---------------------------------------------------------------------
      1          1           0        2.121846    1.030164   -0.000000
      2          1           0        2.121846   -0.058229    0.000000
      3          1           0        1.060923    0.787180   -0.000000
      4          1           0        1.060923   -0.301213    0.000000
      5          1           0       -0.000000    0.544196   -0.000000
      6          1           0       -0.000000   -0.544196   -0.000000
      7          1           0       -1.060923    0.301213    0.000000
      8          1           0       -1.060923   -0.787180   -0.000000
      9          1           0       -2.121846    0.058229   -0.000000
     10          1           0       -2.121846   -1.030164   -0.000000
 ---------------------------------------------------------------------

 SCF Done:  E(RHF) =  -4.85022019635     A.U. after   10 cycles
 E2 =    -0.1144300485D+00 EUMP2 =    -0.49646502449009D+01

 The electronic state is 1-AG.
 Alpha  occ. eigenvalues --   -0.86101  -0.73769  -0.54524  -0.39742  -0.29036
 Alpha virt. eigenvalues --   -0.02892   0.21359   0.31469   0.52545   0.84283

 Mulliken charges:
               1
     1  H   -0.065854
     2  H    0.100834
     3  H    0.048320
     4  H   -0.087633
     5  H    0.004333
     6  H    0.004333
     7  H   -0.087633
     8  H    0.048320
     9  H    0.100834
    10  H   -0.065854
 Sum of Mulliken charges =  -0.00000

 Dipole moment (field-independent basis, Debye):
    X=              0.0000    Y=              0.0000    Z=              0.0000  Tot=              0.0000
 Quadrupole moment (field-independent basis, Debye-Ang):
   XX=            -15.6299   YY=            -14.1235   ZZ=            -12.8355
   XY=             -1.5560   XZ=             -0.0000   YZ=             -0.0000

 Normal termination of Gaussian 09 at Thu Feb  9 15:28:35 2017.
