 Gaussian 09, Revision E.01,
 Gaussian 09:  ES64L-G09RevE.01 30-Nov-2015

 ----------------------------------------------------------------------
 #rhf/gen scf(symm,tight,novaracc,noincfock,fulldiag) stable(crhf) geom
 =nocrowd test
 ----------------------------------------------------------------------

 ----------------------------------------------------------------------
 hf stability analysis of h10 triangular lattice, y= 1.2279988011079066
 ----------------------------------------------------------------------
 Symbolic Z-matrix:
 Charge =  0 Multiplicity = 1

                         Standard orientation:
 ---------------------------------------------------------------------
 Center     Atomic      Atomic             Coordinates (Angstroms)
 Number     Number       Type             X           Y           Z
 ---------------------------------------------------------------------
      1          1           0        1.756299    2.614890    0.000000
      2          1           0        1.756299    1.299965    0.000000
      3          1           0        0.878150    1.636176    0.000000
      4          1           0        0.878150    0.321251    0.000000
      5          1           0        0.000000    0.657462    0.000000
      6          1           0       -0.000000   -0.657462    0.000000
      7          1           0       -0.878150   -0.321251    0.000000
      8          1           0       -0.878150   -1.636176    0.000000
      9          1           0       -1.756299   -1.299965    0.000000
     10          1           0       -1.756299   -2.614890    0.000000
 ---------------------------------------------------------------------

 SCF Done:  E(RHF) =  -4.76390488624     A.U. after   11 cycles
 E2 =    -0.1303522060D+00 EUMP2 =    -0.48942570922816D+01

 The electronic state is 1-AG.
 Alpha  occ. eigenvalues --   -0.78494  -0.72195  -0.55177  -0.34088  -0.19004
 Alpha virt. eigenvalues --    0.01876   0.14716   0.18127   0.39813   0.63002

 Mulliken charges:
               1
     1  H    0.038091
     2  H    0.063290
     3  H    0.113550
     4  H   -0.086204
     5  H   -0.128728
     6  H   -0.128728
     7  H   -0.086204
     8  H    0.113550
     9  H    0.063290
    10  H    0.038091
 Sum of Mulliken charges =  -0.00000

 Dipole moment (field-independent basis, Debye):
    X=              0.0000    Y=              0.0000    Z=              0.0000  Tot=              0.0000
 Quadrupole moment (field-independent basis, Debye-Ang):
   XX=            -11.5651   YY=             -8.8921   ZZ=            -13.1824
   XY=              4.5502   XZ=             -0.0000   YZ=             -0.0000

 Normal termination of Gaussian 09 at Thu Feb  9 15:44:58 2017.
