 Gaussian 09, Revision E.01,
 Gaussian 09:  ES64L-G09RevE.01 30-Nov-2015

 ----------------------------------------------------------------------
 #rhf/gen scf(symm,tight,novaracc,noincfock,fulldiag) stable(crhf) geom
 =nocrowd test
 ----------------------------------------------------------------------

 ----------------------------------------------------------------------
 hf stability analysis of h10 triangular lattice, y= 1.0916279099847972
 ----------------------------------------------------------------------
 Symbolic Z-matrix:
 Charge =  0 Multiplicity = 1

                         Standard orientation:
 ---------------------------------------------------------------------
 Center     Atomic      Atomic             Coordinates (Angstroms)
 Number     Number       Type             X           Y           Z
 ---------------------------------------------------------------------
      1          1           0        1.903872    2.110088    0.000000
      2          1           0        1.903872    0.897086    0.000000
      3          1           0        0.951936    1.358295    0.000000
      4          1           0        0.951936    0.145292    0.000000
      5          1           0       -0.000000    0.606501   -0.000000
      6          1           0       -0.000000   -0.606501   -0.000000
      7          1           0       -0.951936   -0.145292    0.000000
      8          1           0       -0.951936   -1.358295    0.000000
      9          1           0       -1.903872   -0.897086    0.000000
     10          1           0       -1.903872   -2.110088    0.000000
 ---------------------------------------------------------------------

 SCF Done:  E(RHF) =  -4.84808197031     A.U. after   10 cycles
 E2 =    -0.1175662039D+00 EUMP2 =    -0.49656481741753D+01

 The electronic state is 1-AG.
 Alpha  occ. eigenvalues --   -0.82168  -0.73593  -0.55320  -0.32523  -0.28141
 Alpha virt. eigenvalues --    0.02161   0.16595   0.24352   0.45698   0.58741

 Mulliken charges:
               1
     1  H   -0.052982
     2  H    0.129930
     3  H    0.113181
     4  H   -0.118892
     5  H   -0.071238
     6  H   -0.071238
     7  H   -0.118892
     8  H    0.113181
     9  H    0.129930
    10  H   -0.052982
 Sum of Mulliken charges =  -0.00000

 Dipole moment (field-independent basis, Debye):
    X=              0.0000    Y=             -0.0000    Z=              0.0000  Tot=              0.0000
 Quadrupole moment (field-independent basis, Debye-Ang):
   XX=            -12.4513   YY=            -14.3512   ZZ=            -13.0819
   XY=              0.8958   XZ=              0.0000   YZ=              0.0000

 Normal termination of Gaussian 09 at Thu Feb  9 15:40:11 2017.
