 Gaussian 09, Revision E.01,
 Gaussian 09:  ES64L-G09RevE.01 30-Nov-2015

 ----------------------------------------------------------------------
 #rhf/gen scf(symm,tight,novaracc,noincfock,fulldiag) stable(crhf) geom
 =nocrowd test
 ----------------------------------------------------------------------

 ----------------------------------------------------------------------
 hf stability analysis of h10 triangular lattice, y= 1.0322613290879032
 ----------------------------------------------------------------------
 Symbolic Z-matrix:
 Charge =  0 Multiplicity = 1

                         Standard orientation:
 ---------------------------------------------------------------------
 Center     Atomic      Atomic             Coordinates (Angstroms)
 Number     Number       Type             X           Y           Z
 ---------------------------------------------------------------------
      1          1           0        1.967043    1.869323   -0.000000
      2          1           0        1.967043    0.695275   -0.000000
      3          1           0        0.983521    1.228173   -0.000000
      4          1           0        0.983521    0.054126    0.000000
      5          1           0       -0.000000    0.587024   -0.000000
      6          1           0       -0.000000   -0.587024   -0.000000
      7          1           0       -0.983521   -0.054126    0.000000
      8          1           0       -0.983521   -1.228173   -0.000000
      9          1           0       -1.967043   -0.695275    0.000000
     10          1           0       -1.967043   -1.869323    0.000000
 ---------------------------------------------------------------------

 SCF Done:  E(RHF) =  -4.86426814464     A.U. after   10 cycles
 E2 =    -0.1142381076D+00 EUMP2 =    -0.49785062522354D+01

 The electronic state is 1-AG.
 Alpha  occ. eigenvalues --   -0.83538  -0.73925  -0.55215  -0.32636  -0.30835
 Alpha virt. eigenvalues --    0.00713   0.19905   0.24221   0.53241   0.56941

 Mulliken charges:
               1
     1  H   -0.080830
     2  H    0.142984
     3  H    0.111448
     4  H   -0.121583
     5  H   -0.052019
     6  H   -0.052019
     7  H   -0.121583
     8  H    0.111448
     9  H    0.142984
    10  H   -0.080830
 Sum of Mulliken charges =  -0.00000

 Dipole moment (field-independent basis, Debye):
    X=             -0.0000    Y=             -0.0000    Z=              0.0000  Tot=              0.0000
 Quadrupole moment (field-independent basis, Debye-Ang):
   XX=            -13.1467   YY=            -15.3073   ZZ=            -13.0228
   XY=             -0.4391   XZ=              0.0000   YZ=              0.0000

 Normal termination of Gaussian 09 at Thu Feb  9 15:37:42 2017.
