 Gaussian 09, Revision E.01,
 Gaussian 09:  ES64L-G09RevE.01 30-Nov-2015

 ----------------------------------------------------------------------
 #rhf/gen scf(symm,tight,novaracc,noincfock,fulldiag) stable(crhf) geom
 =nocrowd test
 ----------------------------------------------------------------------

 hf stability analysis of h10 triangular lattice, y= 0.8496712252064737
 6
 ----------------------------------------------------------------------
 Symbolic Z-matrix:
 Charge =  0 Multiplicity = 1

                         Standard orientation:
 ---------------------------------------------------------------------
 Center     Atomic      Atomic             Coordinates (Angstroms)
 Number     Number       Type             X           Y           Z
 ---------------------------------------------------------------------
      1          1           0        2.122687    1.022349    0.000000
      2          1           0        2.122687   -0.065612    0.000000
      3          1           0        1.061344    0.783165    0.000000
      4          1           0        1.061344   -0.304796    0.000000
      5          1           0        0.000000    0.543981    0.000000
      6          1           0       -0.000000   -0.543981    0.000000
      7          1           0       -1.061344    0.304796    0.000000
      8          1           0       -1.061344   -0.783165    0.000000
      9          1           0       -2.122687    0.065612    0.000000
     10          1           0       -2.122687   -1.022349    0.000000
 ---------------------------------------------------------------------

 SCF Done:  E(RHF) =  -4.84992373015     A.U. after   10 cycles
 E2 =    -0.1144795520D+00 EUMP2 =    -0.49644032821658D+01

 The electronic state is 1-AG.
 Alpha  occ. eigenvalues --   -0.86111  -0.73763  -0.54519  -0.39778  -0.29020
 Alpha virt. eigenvalues --   -0.02908   0.21340   0.31546   0.52520   0.84516

 Mulliken charges:
               1
     1  H   -0.064854
     2  H    0.099777
     3  H    0.047260
     4  H   -0.086914
     5  H    0.004731
     6  H    0.004731
     7  H   -0.086914
     8  H    0.047260
     9  H    0.099777
    10  H   -0.064854
 Sum of Mulliken charges =  -0.00000

 Dipole moment (field-independent basis, Debye):
    X=             -0.0000    Y=              0.0000    Z=              0.0000  Tot=              0.0000
 Quadrupole moment (field-independent basis, Debye-Ang):
   XX=            -15.6461   YY=            -14.1025   ZZ=            -12.8343
   XY=             -1.5403   XZ=              0.0000   YZ=              0.0000

 Normal termination of Gaussian 09 at Thu Feb  9 15:28:29 2017.
