 Gaussian 09, Revision E.01,
 Gaussian 09:  ES64L-G09RevE.01 30-Nov-2015

 ----------------------------------------------------------------------
 #rhf/gen scf(symm,tight,novaracc,noincfock,fulldiag) stable(crhf) geom
 =nocrowd test
 ----------------------------------------------------------------------

 ----------------------------------------------------------------------
 hf stability analysis of h10 triangular lattice, y= 2.3147672662825332
 ----------------------------------------------------------------------
 Symbolic Z-matrix:
 Charge =  0 Multiplicity = 1

                         Standard orientation:
 ---------------------------------------------------------------------
 Center     Atomic      Atomic             Coordinates (Angstroms)
 Number     Number       Type             X           Y           Z
 ---------------------------------------------------------------------
      1          1           0        0.991940    5.713532   -0.000000
      2          1           0        0.991940    3.385366   -0.000000
      3          1           0        0.495970    3.438808   -0.000000
      4          1           0        0.495970    1.110641   -0.000000
      5          1           0        0.000000    1.164083   -0.000000
      6          1           0       -0.000000   -1.164083   -0.000000
      7          1           0       -0.495970   -1.110641   -0.000000
      8          1           0       -0.495970   -3.438808   -0.000000
      9          1           0       -0.991940   -3.385366   -0.000000
     10          1           0       -0.991940   -5.713532   -0.000000
 ---------------------------------------------------------------------

 SCF Done:  E(RHF) =  -4.52537517481     A.U. after    5 cycles
 E2 =    -0.9603758710D+00 EUMP2 =    -0.54857510458413D+01

 The electronic state is 1-AG.
 Alpha  occ. eigenvalues --   -0.73592  -0.72232  -0.70325  -0.68549  -0.20468
 Alpha virt. eigenvalues --   -0.15900   0.52836   0.57900   0.64933   0.71334

 Mulliken charges:
               1
     1  H    0.001014
     2  H    0.000110
     3  H   -0.001160
     4  H   -0.000124
     5  H    0.000159
     6  H    0.000159
     7  H   -0.000124
     8  H   -0.001160
     9  H    0.000110
    10  H    0.001014
 Sum of Mulliken charges =   0.00000

 Dipole moment (field-independent basis, Debye):
    X=             -0.0000    Y=             -0.0000    Z=             -0.0000  Tot=              0.0000
 Quadrupole moment (field-independent basis, Debye-Ang):
   XX=            -12.6301   YY=            -15.2075   ZZ=            -13.4490
   XY=             -0.4102   XZ=              0.0000   YZ=              0.0000

 Normal termination of Gaussian 09 at Thu Feb  9 15:59:10 2017.
