 Gaussian 09, Revision E.01,
 Gaussian 09:  ES64L-G09RevE.01 30-Nov-2015

 ----------------------------------------------------------------------
 #rhf/gen scf(symm,tight,novaracc,noincfock,fulldiag) stable(crhf) geom
 =nocrowd test
 ----------------------------------------------------------------------

 ----------------------------------------------------------------------
 hf stability analysis of h10 triangular lattice, y= 1.4307794800386300
 ----------------------------------------------------------------------
 Symbolic Z-matrix:
 Charge =  0 Multiplicity = 1

                         Standard orientation:
 ---------------------------------------------------------------------
 Center     Atomic      Atomic             Coordinates (Angstroms)
 Number     Number       Type             X           Y           Z
 ---------------------------------------------------------------------
      1          1           0        1.553486    3.278355    0.000000
      2          1           0        1.553486    1.791762    0.000000
      3          1           0        0.776743    2.010826    0.000000
      4          1           0        0.776743    0.524232    0.000000
      5          1           0        0.000000    0.743297    0.000000
      6          1           0       -0.000000   -0.743297    0.000000
      7          1           0       -0.776743   -0.524232    0.000000
      8          1           0       -0.776743   -2.010826    0.000000
      9          1           0       -1.553486   -1.791762    0.000000
     10          1           0       -1.553486   -3.278355    0.000000
 ---------------------------------------------------------------------

 SCF Done:  E(RHF) =  -4.84275731073     A.U. after    9 cycles
 E2 =    -0.3377048381D+00 EUMP2 =    -0.51804621488689D+01

 The electronic state is 1-AG.
 Alpha  occ. eigenvalues --   -0.79730  -0.72182  -0.60563  -0.45940  -0.13305
 Alpha virt. eigenvalues --   -0.03055   0.14644   0.26476   0.43520   0.59639

 Mulliken charges:
               1
     1  H   -0.162470
     2  H    0.040186
     3  H    0.069371
     4  H    0.022608
     5  H    0.030305
     6  H    0.030305
     7  H    0.022608
     8  H    0.069371
     9  H    0.040186
    10  H   -0.162470
 Sum of Mulliken charges =  -0.00000

 Dipole moment (field-independent basis, Debye):
    X=              0.0000    Y=             -0.0000    Z=             -0.0000  Tot=              0.0000
 Quadrupole moment (field-independent basis, Debye-Ang):
   XX=            -14.8168   YY=            -30.0365   ZZ=            -12.8570
   XY=             -8.7272   XZ=             -0.0000   YZ=             -0.0000

 Normal termination of Gaussian 09 at Thu Feb  9 15:50:02 2017.
