 Gaussian 09, Revision E.01,
 Gaussian 09:  ES64L-G09RevE.01 30-Nov-2015

 ----------------------------------------------------------------------
 #rhf/gen scf(symm,tight,novaracc,noincfock,fulldiag) stable(crhf) geom
 =nocrowd test
 ----------------------------------------------------------------------

 ----------------------------------------------------------------------
 hf stability analysis of h10 triangular lattice, y= 1.0153487862282633
 ----------------------------------------------------------------------
 Symbolic Z-matrix:
 Charge =  0 Multiplicity = 1

                         Standard orientation:
 ---------------------------------------------------------------------
 Center     Atomic      Atomic             Coordinates (Angstroms)
 Number     Number       Type             X           Y           Z
 ---------------------------------------------------------------------
      1          1           0        1.984484    1.797958    0.000000
      2          1           0        1.984484    0.634229    0.000000
      3          1           0        0.992242    1.189911    0.000000
      4          1           0        0.992242    0.026182    0.000000
      5          1           0       -0.000000    0.581864    0.000000
      6          1           0       -0.000000   -0.581864    0.000000
      7          1           0       -0.992242   -0.026182   -0.000000
      8          1           0       -0.992242   -1.189911   -0.000000
      9          1           0       -1.984484   -0.634229   -0.000000
     10          1           0       -1.984484   -1.797958   -0.000000
 ---------------------------------------------------------------------

 SCF Done:  E(RHF) =  -4.86655687223     A.U. after   10 cycles
 E2 =    -0.1135907456D+00 EUMP2 =    -0.49801476178142D+01

 The electronic state is 1-AG.
 Alpha  occ. eigenvalues --   -0.83889  -0.73983  -0.55168  -0.33268  -0.30921
 Alpha virt. eigenvalues --    0.00274   0.20975   0.24017   0.55807   0.56447

 Mulliken charges:
               1
     1  H   -0.086640
     2  H    0.144840
     3  H    0.109871
     4  H   -0.121457
     5  H   -0.046614
     6  H   -0.046614
     7  H   -0.121457
     8  H    0.109871
     9  H    0.144840
    10  H   -0.086640
 Sum of Mulliken charges =  -0.00000

 Dipole moment (field-independent basis, Debye):
    X=              0.0000    Y=             -0.0000    Z=              0.0000  Tot=              0.0000
 Quadrupole moment (field-independent basis, Debye-Ang):
   XX=            -13.3709   YY=            -15.4277   ZZ=            -13.0049
   XY=             -0.7572   XZ=             -0.0000   YZ=             -0.0000

 Normal termination of Gaussian 09 at Thu Feb  9 15:36:56 2017.
