 Gaussian 09, Revision E.01,
 Gaussian 09:  ES64L-G09RevE.01 30-Nov-2015

 ----------------------------------------------------------------------
 #rhf/gen scf(symm,tight,novaracc,noincfock,fulldiag) stable(crhf) geom
 =nocrowd test
 ----------------------------------------------------------------------

 ----------------------------------------------------------------------
 hf stability analysis of h10 triangular lattice, y= 1.0486611910524275
 ----------------------------------------------------------------------
 Symbolic Z-matrix:
 Charge =  0 Multiplicity = 1

                         Standard orientation:
 ---------------------------------------------------------------------
 Center     Atomic      Atomic             Coordinates (Angstroms)
 Number     Number       Type             X           Y           Z
 ---------------------------------------------------------------------
      1          1           0        1.949847    1.937310   -0.000000
      2          1           0        1.949847    0.752909   -0.000000
      3          1           0        0.974924    1.264755   -0.000000
      4          1           0        0.974924    0.080354    0.000000
      5          1           0        0.000000    0.592201   -0.000000
      6          1           0       -0.000000   -0.592201   -0.000000
      7          1           0       -0.974924   -0.080354    0.000000
      8          1           0       -0.974924   -1.264755   -0.000000
      9          1           0       -1.949847   -0.752909   -0.000000
     10          1           0       -1.949847   -1.937310   -0.000000
 ---------------------------------------------------------------------

 SCF Done:  E(RHF) =  -4.86108216888     A.U. after   10 cycles
 E2 =    -0.1149983024D+00 EUMP2 =    -0.49760804713059D+01

 The electronic state is 1-AG.
 Alpha  occ. eigenvalues --   -0.83180  -0.73853  -0.55254  -0.32339  -0.30399
 Alpha virt. eigenvalues --    0.01137   0.18910   0.24365   0.50912   0.57429

 Mulliken charges:
               1
     1  H   -0.074214
     2  H    0.140348
     3  H    0.112450
     4  H   -0.121313
     5  H   -0.057271
     6  H   -0.057271
     7  H   -0.121313
     8  H    0.112450
     9  H    0.140348
    10  H   -0.074214
 Sum of Mulliken charges =  -0.00000

 Dipole moment (field-independent basis, Debye):
    X=              0.0000    Y=             -0.0000    Z=             -0.0000  Tot=              0.0000
 Quadrupole moment (field-independent basis, Debye-Ang):
   XX=            -12.9395   YY=            -15.1279   ZZ=            -13.0397
   XY=             -0.1014   XZ=             -0.0000   YZ=             -0.0000

 Normal termination of Gaussian 09 at Thu Feb  9 15:38:26 2017.
