 Gaussian 09, Revision E.01,
 Gaussian 09:  ES64L-G09RevE.01 30-Nov-2015

 ----------------------------------------------------------------------
 #rhf/gen scf(symm,tight,novaracc,noincfock,fulldiag) stable(crhf) geom
 =nocrowd test
 ----------------------------------------------------------------------

 ----------------------------------------------------------------------
 hf stability analysis of h10 triangular lattice, y= 1.1178106135665402
 ----------------------------------------------------------------------
 Symbolic Z-matrix:
 Charge =  0 Multiplicity = 1

                         Standard orientation:
 ---------------------------------------------------------------------
 Center     Atomic      Atomic             Coordinates (Angstroms)
 Number     Number       Type             X           Y           Z
 ---------------------------------------------------------------------
      1          1           0        1.875472    2.211837    0.000000
      2          1           0        1.875472    0.980466    0.000000
      3          1           0        0.937736    1.413761    0.000000
      4          1           0        0.937736    0.182391    0.000000
      5          1           0        0.000000    0.615685    0.000000
      6          1           0       -0.000000   -0.615685   -0.000000
      7          1           0       -0.937736   -0.182391   -0.000000
      8          1           0       -0.937736   -1.413761   -0.000000
      9          1           0       -1.875472   -0.980466   -0.000000
     10          1           0       -1.875472   -2.211837   -0.000000
 ---------------------------------------------------------------------

 SCF Done:  E(RHF) =  -4.83683084936     A.U. after   10 cycles
 E2 =    -0.1195040410D+00 EUMP2 =    -0.49563348903073D+01

 The electronic state is 1-AG.
 Alpha  occ. eigenvalues --   -0.81507  -0.73387  -0.55334  -0.32795  -0.26512
 Alpha virt. eigenvalues --    0.02640   0.15474   0.23939   0.43274   0.59557

 Mulliken charges:
               1
     1  H   -0.037763
     2  H    0.121306
     3  H    0.112723
     4  H   -0.116177
     5  H   -0.080089
     6  H   -0.080089
     7  H   -0.116177
     8  H    0.112723
     9  H    0.121306
    10  H   -0.037763
 Sum of Mulliken charges =  -0.00000

 Dipole moment (field-independent basis, Debye):
    X=              0.0000    Y=             -0.0000    Z=             -0.0000  Tot=              0.0000
 Quadrupole moment (field-independent basis, Debye-Ang):
   XX=            -12.1965   YY=            -13.6541   ZZ=            -13.1057
   XY=              1.5653   XZ=              0.0000   YZ=              0.0000

 Normal termination of Gaussian 09 at Thu Feb  9 15:41:13 2017.
