 Gaussian 09, Revision E.01,
 Gaussian 09:  ES64L-G09RevE.01 30-Nov-2015

 ----------------------------------------------------------------------
 #rhf/gen scf(symm,tight,novaracc,noincfock,fulldiag) stable(crhf) geom
 =nocrowd test
 ----------------------------------------------------------------------

 hf stability analysis of h10 triangular lattice, y= 0.9696943766108500
 1
 ----------------------------------------------------------------------
 Symbolic Z-matrix:
 Charge =  0 Multiplicity = 1

                         Standard orientation:
 ---------------------------------------------------------------------
 Center     Atomic      Atomic             Coordinates (Angstroms)
 Number     Number       Type             X           Y           Z
 ---------------------------------------------------------------------
      1          1           0        2.029541    1.598592    0.000000
      2          1           0        2.029541    0.460698   -0.000000
      3          1           0        1.014770    1.083769    0.000000
      4          1           0        1.014770   -0.054124   -0.000000
      5          1           0       -0.000000    0.568947    0.000000
      6          1           0       -0.000000   -0.568947    0.000000
      7          1           0       -1.014770    0.054124   -0.000000
      8          1           0       -1.014770   -1.083769   -0.000000
      9          1           0       -2.029541   -0.460698   -0.000000
     10          1           0       -2.029541   -1.598592   -0.000000
 ---------------------------------------------------------------------

 SCF Done:  E(RHF) =  -4.86801627348     A.U. after   10 cycles
 E2 =    -0.1125706587D+00 EUMP2 =    -0.49805869321704D+01

 The electronic state is 1-AG.
 Alpha  occ. eigenvalues --   -0.84732  -0.74055  -0.55010  -0.35406  -0.30514
 Alpha virt. eigenvalues --   -0.00861   0.23300   0.24010   0.55174   0.63404

 Mulliken charges:
               1
     1  H   -0.096281
     2  H    0.144888
     3  H    0.102156
     4  H   -0.118771
     5  H   -0.031991
     6  H   -0.031991
     7  H   -0.118771
     8  H    0.102156
     9  H    0.144888
    10  H   -0.096281
 Sum of Mulliken charges =  -0.00000

 Dipole moment (field-independent basis, Debye):
    X=              0.0000    Y=              0.0000    Z=             -0.0000  Tot=              0.0000
 Quadrupole moment (field-independent basis, Debye-Ang):
   XX=            -14.0170   YY=            -15.4481   ZZ=            -12.9552
   XY=             -1.4344   XZ=             -0.0000   YZ=             -0.0000

 Normal termination of Gaussian 09 at Thu Feb  9 15:34:40 2017.
