 Gaussian 09, Revision E.01,
 Gaussian 09:  ES64L-G09RevE.01 30-Nov-2015

 ----------------------------------------------------------------------
 #rhf/gen scf(symm,tight,novaracc,noincfock,fulldiag) stable(crhf) geom
 =nocrowd test
 ----------------------------------------------------------------------

 hf stability analysis of h10 triangular lattice, y= 0.9547333480667761
 2
 ----------------------------------------------------------------------
 Symbolic Z-matrix:
 Charge =  0 Multiplicity = 1

                         Standard orientation:
 ---------------------------------------------------------------------
 Center     Atomic      Atomic             Coordinates (Angstroms)
 Number     Number       Type             X           Y           Z
 ---------------------------------------------------------------------
      1          1           0        2.043472    1.531013    0.000000
      2          1           0        2.043472    0.400877    0.000000
      3          1           0        1.021736    1.048040    0.000000
      4          1           0        1.021736   -0.082095    0.000000
      5          1           0       -0.000000    0.565068    0.000000
      6          1           0       -0.000000   -0.565068    0.000000
      7          1           0       -1.021736    0.082095   -0.000000
      8          1           0       -1.021736   -1.048040   -0.000000
      9          1           0       -2.043472   -0.400877   -0.000000
     10          1           0       -2.043472   -1.531013   -0.000000
 ---------------------------------------------------------------------

 SCF Done:  E(RHF) =  -4.86714838223     A.U. after   10 cycles
 E2 =    -0.1124718634D+00 EUMP2 =    -0.49796202456190D+01

 The electronic state is 1-AG.
 Alpha  occ. eigenvalues --   -0.84973  -0.74053  -0.54951  -0.36087  -0.30328
 Alpha virt. eigenvalues --   -0.01202   0.23038   0.25024   0.54781   0.66056

 Mulliken charges:
               1
     1  H   -0.097223
     2  H    0.143123
     3  H    0.098304
     4  H   -0.117018
     5  H   -0.027186
     6  H   -0.027186
     7  H   -0.117018
     8  H    0.098304
     9  H    0.143123
    10  H   -0.097223
 Sum of Mulliken charges =  -0.00000

 Dipole moment (field-independent basis, Debye):
    X=              0.0000    Y=             -0.0000    Z=             -0.0000  Tot=              0.0000
 Quadrupole moment (field-independent basis, Debye-Ang):
   XX=            -14.2365   YY=            -15.3683   ZZ=            -12.9388
   XY=             -1.5895   XZ=             -0.0000   YZ=             -0.0000

 Normal termination of Gaussian 09 at Thu Feb  9 15:33:59 2017.
