 Gaussian 09, Revision E.01,
 Gaussian 09:  ES64L-G09RevE.01 30-Nov-2015

 ----------------------------------------------------------------------
 #rhf/gen scf(symm,tight,novaracc,noincfock,fulldiag) stable(crhf) geom
 =nocrowd test
 ----------------------------------------------------------------------

 ----------------------------------------------------------------------
 hf stability analysis of h10 triangular lattice, y= 2.2777318499949293
 ----------------------------------------------------------------------
 Symbolic Z-matrix:
 Charge =  0 Multiplicity = 1

                         Standard orientation:
 ---------------------------------------------------------------------
 Center     Atomic      Atomic             Coordinates (Angstroms)
 Number     Number       Type             X           Y           Z
 ---------------------------------------------------------------------
      1          1           0        1.007684    5.617342    0.000000
      2          1           0        1.007684    3.325549    0.000000
      3          1           0        0.503842    3.381619    0.000000
      4          1           0        0.503842    1.089826    0.000000
      5          1           0       -0.000000    1.145896    0.000000
      6          1           0       -0.000000   -1.145896   -0.000000
      7          1           0       -0.503842   -1.089826    0.000000
      8          1           0       -0.503842   -3.381619    0.000000
      9          1           0       -1.007684   -3.325549    0.000000
     10          1           0       -1.007684   -5.617342    0.000000
 ---------------------------------------------------------------------

 SCF Done:  E(RHF) =  -4.56279057939     A.U. after    5 cycles
 E2 =    -0.9438588454D+00 EUMP2 =    -0.55066494248094D+01

 The electronic state is 1-AG.
 Alpha  occ. eigenvalues --   -0.73519  -0.72043  -0.69951  -0.67979  -0.20439
 Alpha virt. eigenvalues --   -0.15795   0.51659   0.56925   0.64274   0.70996

 Mulliken charges:
               1
     1  H    0.000833
     2  H    0.000225
     3  H   -0.001110
     4  H   -0.000138
     5  H    0.000191
     6  H    0.000191
     7  H   -0.000138
     8  H   -0.001110
     9  H    0.000225
    10  H    0.000833
 Sum of Mulliken charges =  -0.00000

 Dipole moment (field-independent basis, Debye):
    X=              0.0000    Y=              0.0000    Z=              0.0000  Tot=              0.0000
 Quadrupole moment (field-independent basis, Debye-Ang):
   XX=            -12.5984   YY=            -15.3526   ZZ=            -13.4337
   XY=             -0.4560   XZ=             -0.0000   YZ=              0.0000

 Normal termination of Gaussian 09 at Thu Feb  9 15:58:59 2017.
