 Gaussian 09, Revision E.01,
 Gaussian 09:  ES64L-G09RevE.01 30-Nov-2015

 ----------------------------------------------------------------------
 #rhf/gen scf(symm,tight,novaracc,noincfock,fulldiag) stable(crhf) geom
 =nocrowd test
 ----------------------------------------------------------------------

 hf stability analysis of h10 triangular lattice, y= 0.7691767212620449
 5
 ----------------------------------------------------------------------
 Symbolic Z-matrix:
 Charge =  0 Multiplicity = 1

                         Standard orientation:
 ---------------------------------------------------------------------
 Center     Atomic      Atomic             Coordinates (Angstroms)
 Number     Number       Type             X           Y           Z
 ---------------------------------------------------------------------
      1          1           0        2.148819    0.589881    0.000000
      2          1           0        2.148819   -0.484849    0.000000
      3          1           0        1.074410    0.563623    0.000000
      4          1           0        1.074410   -0.511107    0.000000
      5          1           0        0.000000    0.537365    0.000000
      6          1           0       -0.000000   -0.537365    0.000000
      7          1           0       -1.074410    0.511107    0.000000
      8          1           0       -1.074410   -0.563623    0.000000
      9          1           0       -2.148819    0.484849    0.000000
     10          1           0       -2.148819   -0.589881    0.000000
 ---------------------------------------------------------------------

 SCF Done:  E(RHF) =  -4.88639414052     A.U. after   10 cycles
 E2 =    -0.1049865926D+00 EUMP2 =    -0.49913807331421D+01

 The electronic state is 1-AG.
 Alpha  occ. eigenvalues --   -0.87764  -0.74527  -0.52641  -0.46860  -0.31208
 Alpha virt. eigenvalues --   -0.01311   0.15345   0.36792   0.51302   0.90278

 Mulliken charges:
               1
     1  H    0.048100
     2  H    0.032821
     3  H   -0.033183
     4  H   -0.033596
     5  H   -0.014142
     6  H   -0.014142
     7  H   -0.033596
     8  H   -0.033183
     9  H    0.032821
    10  H    0.048100
 Sum of Mulliken charges =  -0.00000

 Dipole moment (field-independent basis, Debye):
    X=             -0.0000    Y=             -0.0000    Z=              0.0000  Tot=              0.0000
 Quadrupole moment (field-independent basis, Debye-Ang):
   XX=            -10.0687   YY=            -17.3963   ZZ=            -12.9544
   XY=              0.3607   XZ=              0.0000   YZ=              0.0000

 Normal termination of Gaussian 09 at Thu Feb  9 15:23:37 2017.
