 Gaussian 09, Revision E.01,
 Gaussian 09:  ES64L-G09RevE.01 30-Nov-2015

 ----------------------------------------------------------------------
 #rhf/gen scf(symm,tight,novaracc,noincfock,fulldiag) stable(crhf) geom
 =nocrowd test
 ----------------------------------------------------------------------

 hf stability analysis of h10 triangular lattice, y= 0.8156821057826055
 8
 ----------------------------------------------------------------------
 Symbolic Z-matrix:
 Charge =  0 Multiplicity = 1

                         Standard orientation:
 ---------------------------------------------------------------------
 Center     Atomic      Atomic             Coordinates (Angstroms)
 Number     Number       Type             X           Y           Z
 ---------------------------------------------------------------------
      1          1           0        2.138393    0.844324   -0.000000
      2          1           0        2.138393   -0.235647   -0.000000
      3          1           0        1.069196    0.692154   -0.000000
      4          1           0        1.069196   -0.387816   -0.000000
      5          1           0        0.000000    0.539985    0.000000
      6          1           0       -0.000000   -0.539985    0.000000
      7          1           0       -1.069196    0.387816   -0.000000
      8          1           0       -1.069196   -0.692154   -0.000000
      9          1           0       -2.138393    0.235647   -0.000000
     10          1           0       -2.138393   -0.844324   -0.000000
 ---------------------------------------------------------------------

 SCF Done:  E(RHF) =  -4.87747714061     A.U. after   10 cycles
 E2 =    -0.1055581026D+00 EUMP2 =    -0.49830352432084D+01

 The electronic state is 1-AG.
 Alpha  occ. eigenvalues --   -0.87534  -0.74392  -0.52731  -0.46340  -0.30689
 Alpha virt. eigenvalues --   -0.01885   0.16030   0.35470   0.51940   0.87241

 Mulliken charges:
               1
     1  H    0.083479
     2  H   -0.004118
     3  H   -0.031551
     4  H   -0.035161
     5  H   -0.012648
     6  H   -0.012648
     7  H   -0.035161
     8  H   -0.031551
     9  H   -0.004118
    10  H    0.083479
 Sum of Mulliken charges =   0.00000

 Dipole moment (field-independent basis, Debye):
    X=             -0.0000    Y=              0.0000    Z=             -0.0000  Tot=              0.0000
 Quadrupole moment (field-independent basis, Debye-Ang):
   XX=            -10.2192   YY=            -16.9889   ZZ=            -12.9576
   XY=              2.0710   XZ=             -0.0000   YZ=             -0.0000

 Normal termination of Gaussian 09 at Thu Feb  9 15:26:31 2017.
