 Gaussian 09, Revision E.01,
 Gaussian 09:  ES64L-G09RevE.01 30-Nov-2015

 ----------------------------------------------------------------------
 #rhf/gen scf(symm,tight,novaracc,noincfock,fulldiag) stable(crhf) geom
 =nocrowd test
 ----------------------------------------------------------------------

 hf stability analysis of h10 triangular lattice, y= 0.8258291078557595
 8
 ----------------------------------------------------------------------
 Symbolic Z-matrix:
 Charge =  0 Multiplicity = 1

                         Standard orientation:
 ---------------------------------------------------------------------
 Center     Atomic      Atomic             Coordinates (Angstroms)
 Number     Number       Type             X           Y           Z
 ---------------------------------------------------------------------
      1          1           0        2.134352    0.898176    0.000000
      2          1           0        2.134352   -0.183840    0.000000
      3          1           0        1.067176    0.719592    0.000000
      4          1           0        1.067176   -0.362424    0.000000
      5          1           0        0.000000    0.541008    0.000000
      6          1           0       -0.000000   -0.541008   -0.000000
      7          1           0       -1.067176    0.362424    0.000000
      8          1           0       -1.067176   -0.719592   -0.000000
      9          1           0       -2.134352    0.183840    0.000000
     10          1           0       -2.134352   -0.898176   -0.000000
 ---------------------------------------------------------------------

 SCF Done:  E(RHF) =  -4.87396323618     A.U. after   10 cycles
 E2 =    -0.1057866813D+00 EUMP2 =    -0.49797499174280D+01

 The electronic state is 1-AG.
 Alpha  occ. eigenvalues --   -0.87446  -0.74340  -0.52765  -0.46139  -0.30490
 Alpha virt. eigenvalues --   -0.02095   0.16283   0.34989   0.52161   0.86104

 Mulliken charges:
               1
     1  H    0.090542
     2  H   -0.011815
     3  H   -0.030947
     4  H   -0.035756
     5  H   -0.012025
     6  H   -0.012025
     7  H   -0.035756
     8  H   -0.030947
     9  H   -0.011815
    10  H    0.090542
 Sum of Mulliken charges =   0.00000

 Dipole moment (field-independent basis, Debye):
    X=              0.0000    Y=             -0.0000    Z=             -0.0000  Tot=              0.0000
 Quadrupole moment (field-independent basis, Debye-Ang):
   XX=            -10.2788   YY=            -16.8311   ZZ=            -12.9588
   XY=              2.4212   XZ=              0.0000   YZ=             -0.0000

 Normal termination of Gaussian 09 at Thu Feb  9 15:27:08 2017.
