 Gaussian 09, Revision E.01,
 Gaussian 09:  ES64L-G09RevE.01 30-Nov-2015

 ----------------------------------------------------------------------
 #rhf/gen scf(symm,tight,novaracc,noincfock,fulldiag) stable(crhf) geom
 =nocrowd test
 ----------------------------------------------------------------------

 hf stability analysis of h10 triangular lattice, y= 0.8398715525598882
 1
 ----------------------------------------------------------------------
 Symbolic Z-matrix:
 Charge =  0 Multiplicity = 1

                         Standard orientation:
 ---------------------------------------------------------------------
 Center     Atomic      Atomic             Coordinates (Angstroms)
 Number     Number       Type             X           Y           Z
 ---------------------------------------------------------------------
      1          1           0        2.127834    0.971711    0.000000
      2          1           0        2.127834   -0.113618    0.000000
      3          1           0        1.063917    0.757188    0.000000
      4          1           0        1.063917   -0.328141    0.000000
      5          1           0        0.000000    0.542665    0.000000
      6          1           0       -0.000000   -0.542665   -0.000000
      7          1           0       -1.063917    0.328141    0.000000
      8          1           0       -1.063917   -0.757188    0.000000
      9          1           0       -2.127834    0.113618    0.000000
     10          1           0       -2.127834   -0.971711    0.000000
 ---------------------------------------------------------------------

 SCF Done:  E(RHF) =  -4.84805548081     A.U. after   10 cycles
 E2 =    -0.1147983512D+00 EUMP2 =    -0.49628538320420D+01

 The electronic state is 1-AG.
 Alpha  occ. eigenvalues --   -0.86169  -0.73724  -0.54485  -0.40002  -0.28921
 Alpha virt. eigenvalues --   -0.02998   0.21220   0.32021   0.52368   0.85960

 Mulliken charges:
               1
     1  H   -0.058046
     2  H    0.092662
     3  H    0.040227
     4  H   -0.082045
     5  H    0.007202
     6  H    0.007202
     7  H   -0.082045
     8  H    0.040227
     9  H    0.092662
    10  H   -0.058046
 Sum of Mulliken charges =  -0.00000

 Dipole moment (field-independent basis, Debye):
    X=             -0.0000    Y=             -0.0000    Z=              0.0000  Tot=              0.0000
 Quadrupole moment (field-independent basis, Debye-Ang):
   XX=            -15.7451   YY=            -13.9700   ZZ=            -12.8267
   XY=             -1.4290   XZ=             -0.0000   YZ=             -0.0000

 Normal termination of Gaussian 09 at Thu Feb  9 15:27:56 2017.
