 Gaussian 09, Revision E.01,
 Gaussian 09:  ES64L-G09RevE.01 30-Nov-2015

 ----------------------------------------------------------------------
 #rhf/gen scf(symm,tight,novaracc,noincfock,fulldiag) stable(crhf) geom
 =nocrowd test
 ----------------------------------------------------------------------

 ----------------------------------------------------------------------
 hf stability analysis of h10 triangular lattice, y= 2.0941375407372735
 ----------------------------------------------------------------------
 Symbolic Z-matrix:
 Charge =  0 Multiplicity = 1

                         Standard orientation:
 ---------------------------------------------------------------------
 Center     Atomic      Atomic             Coordinates (Angstroms)
 Number     Number       Type             X           Y           Z
 ---------------------------------------------------------------------
      1          1           0        1.093359    5.136576    0.000000
      2          1           0        1.093359    3.024368    0.000000
      3          1           0        0.546680    3.096340    0.000000
      4          1           0        0.546680    0.984132    0.000000
      5          1           0       -0.000000    1.056104    0.000000
      6          1           0       -0.000000   -1.056104    0.000000
      7          1           0       -0.546680   -0.984132    0.000000
      8          1           0       -0.546680   -3.096340    0.000000
      9          1           0       -1.093359   -3.024368    0.000000
     10          1           0       -1.093359   -5.136576    0.000000
 ---------------------------------------------------------------------

 SCF Done:  E(RHF) =  -4.72882251739     A.U. after    6 cycles
 E2 =    -0.8588594058D+00 EUMP2 =    -0.55876819232284D+01

 The electronic state is 1-AG.
 Alpha  occ. eigenvalues --   -0.73326  -0.71163  -0.67945  -0.64698  -0.20162
 Alpha virt. eigenvalues --   -0.15095   0.45471   0.51804   0.60880   0.69402

 Mulliken charges:
               1
     1  H   -0.001511
     2  H    0.001331
     3  H   -0.000120
     4  H   -0.000208
     5  H    0.000508
     6  H    0.000508
     7  H   -0.000208
     8  H   -0.000120
     9  H    0.001331
    10  H   -0.001511
 Sum of Mulliken charges =   0.00000

 Dipole moment (field-independent basis, Debye):
    X=              0.0000    Y=             -0.0000    Z=             -0.0000  Tot=              0.0000
 Quadrupole moment (field-independent basis, Debye-Ang):
   XX=            -12.4397   YY=            -16.3255   ZZ=            -13.3417
   XY=             -0.7901   XZ=             -0.0000   YZ=             -0.0000

 Normal termination of Gaussian 09 at Thu Feb  9 15:57:55 2017.
