 Gaussian 09, Revision E.01,
 Gaussian 09:  ES64L-G09RevE.01 30-Nov-2015

 ----------------------------------------------------------------------
 #rhf/gen scf(symm,tight,novaracc,noincfock,fulldiag) stable(crhf) geom
 =nocrowd test
 ----------------------------------------------------------------------

 ----------------------------------------------------------------------
 hf stability analysis of h10 triangular lattice, y= 1.1360822167095599
 ----------------------------------------------------------------------
 Symbolic Z-matrix:
 Charge =  0 Multiplicity = 1

                         Standard orientation:
 ---------------------------------------------------------------------
 Center     Atomic      Atomic             Coordinates (Angstroms)
 Number     Number       Type             X           Y           Z
 ---------------------------------------------------------------------
      1          1           0        1.855588    2.281370    0.000000
      2          1           0        1.855588    1.036804    0.000000
      3          1           0        0.927794    1.451826    0.000000
      4          1           0        0.927794    0.207261    0.000000
      5          1           0        0.000000    0.622283    0.000000
      6          1           0       -0.000000   -0.622283    0.000000
      7          1           0       -0.927794   -0.207261   -0.000000
      8          1           0       -0.927794   -1.451826   -0.000000
      9          1           0       -1.855588   -1.036804   -0.000000
     10          1           0       -1.855588   -2.281370   -0.000000
 ---------------------------------------------------------------------

 SCF Done:  E(RHF) =  -4.82750857276     A.U. after   10 cycles
 E2 =    -0.1210079193D+00 EUMP2 =    -0.49485164920336D+01

 The electronic state is 1-AG.
 Alpha  occ. eigenvalues --   -0.81029  -0.73224  -0.55332  -0.32998  -0.25327
 Alpha virt. eigenvalues --    0.02861   0.14871   0.23415   0.41971   0.60131

 Mulliken charges:
               1
     1  H   -0.026317
     2  H    0.114304
     3  H    0.112208
     4  H   -0.113645
     5  H   -0.086550
     6  H   -0.086550
     7  H   -0.113645
     8  H    0.112208
     9  H    0.114304
    10  H   -0.026317
 Sum of Mulliken charges =  -0.00000

 Dipole moment (field-independent basis, Debye):
    X=              0.0000    Y=             -0.0000    Z=              0.0000  Tot=              0.0000
 Quadrupole moment (field-independent basis, Debye-Ang):
   XX=            -12.0393   YY=            -13.0659   ZZ=            -13.1213
   XY=              2.0523   XZ=              0.0000   YZ=              0.0000

 Normal termination of Gaussian 09 at Thu Feb  9 15:41:55 2017.
