 Gaussian 09, Revision E.01,
 Gaussian 09:  ES64L-G09RevE.01 30-Nov-2015

 ----------------------------------------------------------------------
 #rhf/gen scf(symm,tight,novaracc,noincfock,fulldiag) stable(crhf) geom
 =nocrowd test
 ----------------------------------------------------------------------

 ----------------------------------------------------------------------
 hf stability analysis of h10 triangular lattice, y= 1.5132970893756394
 ----------------------------------------------------------------------
 Symbolic Z-matrix:
 Charge =  0 Multiplicity = 1

                         Standard orientation:
 ---------------------------------------------------------------------
 Center     Atomic      Atomic             Coordinates (Angstroms)
 Number     Number       Type             X           Y           Z
 ---------------------------------------------------------------------
      1          1           0        1.479770    3.528556    0.000000
      2          1           0        1.479770    1.967907    0.000000
      3          1           0        0.739885    2.154440    0.000000
      4          1           0        0.739885    0.593791    0.000000
      5          1           0        0.000000    0.780324    0.000000
      6          1           0       -0.000000   -0.780324    0.000000
      7          1           0       -0.739885   -0.593791   -0.000000
      8          1           0       -0.739885   -2.154440   -0.000000
      9          1           0       -1.479770   -1.967907   -0.000000
     10          1           0       -1.479770   -3.528556   -0.000000
 ---------------------------------------------------------------------

 SCF Done:  E(RHF) =  -4.88900280963     A.U. after    9 cycles
 E2 =    -0.4290949019D+00 EUMP2 =    -0.53180977115192D+01

 The electronic state is 1-AG.
 Alpha  occ. eigenvalues --   -0.77666  -0.71284  -0.61213  -0.48658  -0.15017
 Alpha virt. eigenvalues --   -0.06375   0.19696   0.30528   0.46508   0.62019

 Mulliken charges:
               1
     1  H   -0.109749
     2  H    0.029879
     3  H    0.046848
     4  H    0.012953
     5  H    0.020069
     6  H    0.020069
     7  H    0.012953
     8  H    0.046848
     9  H    0.029879
    10  H   -0.109749
 Sum of Mulliken charges =   0.00000

 Dipole moment (field-independent basis, Debye):
    X=             -0.0000    Y=             -0.0000    Z=              0.0000  Tot=              0.0000
 Quadrupole moment (field-independent basis, Debye-Ang):
   XX=            -13.6697   YY=            -27.2328   ZZ=            -12.9150
   XY=             -6.4895   XZ=             -0.0000   YZ=             -0.0000

 Normal termination of Gaussian 09 at Thu Feb  9 15:51:34 2017.
