 Gaussian 09, Revision E.01,
 Gaussian 09:  ES64L-G09RevE.01 30-Nov-2015

 ----------------------------------------------------------------------
 #rhf/gen scf(symm,tight,novaracc,noincfock,fulldiag) stable(crhf) geom
 =nocrowd test
 ----------------------------------------------------------------------

 hf stability analysis of h10 triangular lattice, y= 0.8021642104134582
 0
 ----------------------------------------------------------------------
 Symbolic Z-matrix:
 Charge =  0 Multiplicity = 1

                         Standard orientation:
 ---------------------------------------------------------------------
 Center     Atomic      Atomic             Coordinates (Angstroms)
 Number     Number       Type             X           Y           Z
 ---------------------------------------------------------------------
      1          1           0        2.142845    0.771651   -0.000000
      2          1           0        2.142845   -0.306076    0.000000
      3          1           0        1.071423    0.655257   -0.000000
      4          1           0        1.071423   -0.422469    0.000000
      5          1           0        0.000000    0.538863   -0.000000
      6          1           0       -0.000000   -0.538863    0.000000
      7          1           0       -1.071423    0.422469   -0.000000
      8          1           0       -1.071423   -0.655257    0.000000
      9          1           0       -2.142845    0.306076    0.000000
     10          1           0       -2.142845   -0.771651    0.000000
 ---------------------------------------------------------------------

 SCF Done:  E(RHF) =  -4.88131183383     A.U. after   10 cycles
 E2 =    -0.1053108539D+00 EUMP2 =    -0.49866226877071D+01

 The electronic state is 1-AG.
 Alpha  occ. eigenvalues --   -0.87632  -0.74450  -0.52694  -0.46562  -0.30910
 Alpha virt. eigenvalues --   -0.01646   0.15744   0.36020   0.51681   0.88519

 Mulliken charges:
               1
     1  H    0.073678
     2  H    0.006362
     3  H   -0.032188
     4  H   -0.034546
     5  H   -0.013306
     6  H   -0.013306
     7  H   -0.034546
     8  H   -0.032188
     9  H    0.006362
    10  H    0.073678
 Sum of Mulliken charges =   0.00000

 Dipole moment (field-independent basis, Debye):
    X=              0.0000    Y=              0.0000    Z=              0.0000  Tot=              0.0000
 Quadrupole moment (field-independent basis, Debye-Ang):
   XX=            -10.1543   YY=            -17.1629   ZZ=            -12.9563
   XY=              1.5906   XZ=             -0.0000   YZ=              0.0000

 Normal termination of Gaussian 09 at Thu Feb  9 15:25:41 2017.
