 Gaussian 09, Revision E.01,
 Gaussian 09:  ES64L-G09RevE.01 30-Nov-2015

 ----------------------------------------------------------------------
 #rhf/gen scf(symm,tight,novaracc,noincfock,fulldiag) stable(crhf) geom
 =nocrowd test
 ----------------------------------------------------------------------

 ----------------------------------------------------------------------
 hf stability analysis of h10 triangular lattice, y= 1.1255574828824770
 ----------------------------------------------------------------------
 Symbolic Z-matrix:
 Charge =  0 Multiplicity = 1

                         Standard orientation:
 ---------------------------------------------------------------------
 Center     Atomic      Atomic             Coordinates (Angstroms)
 Number     Number       Type             X           Y           Z
 ---------------------------------------------------------------------
      1          1           0        1.867044    2.241461   -0.000000
      2          1           0        1.867044    1.004532   -0.000000
      3          1           0        0.933522    1.429963   -0.000000
      4          1           0        0.933522    0.193034   -0.000000
      5          1           0        0.000000    0.618464   -0.000000
      6          1           0       -0.000000   -0.618464   -0.000000
      7          1           0       -0.933522   -0.193034    0.000000
      8          1           0       -0.933522   -1.429963   -0.000000
      9          1           0       -1.867044   -1.004532    0.000000
     10          1           0       -1.867044   -2.241461   -0.000000
 ---------------------------------------------------------------------

 SCF Done:  E(RHF) =  -4.83302414557     A.U. after   10 cycles
 E2 =    -0.1201270015D+00 EUMP2 =    -0.49531511470699D+01

 The electronic state is 1-AG.
 Alpha  occ. eigenvalues --   -0.81306  -0.73320  -0.55334  -0.32880  -0.26013
 Alpha virt. eigenvalues --    0.02747   0.15199   0.23742   0.42682   0.59800

 Mulliken charges:
               1
     1  H   -0.032986
     2  H    0.118437
     3  H    0.112515
     4  H   -0.115173
     5  H   -0.082793
     6  H   -0.082793
     7  H   -0.115173
     8  H    0.112515
     9  H    0.118437
    10  H   -0.032986
 Sum of Mulliken charges =  -0.00000

 Dipole moment (field-independent basis, Debye):
    X=             -0.0000    Y=              0.0000    Z=             -0.0000  Tot=              0.0000
 Quadrupole moment (field-independent basis, Debye-Ang):
   XX=            -12.1277   YY=            -13.4149   ZZ=            -13.1124
   XY=              1.7701   XZ=              0.0000   YZ=             -0.0000

 Normal termination of Gaussian 09 at Thu Feb  9 15:41:31 2017.
