 Gaussian 09, Revision E.01,
 Gaussian 09:  ES64L-G09RevE.01 30-Nov-2015

 ----------------------------------------------------------------------
 #rhf/gen scf(symm,tight,novaracc,noincfock,fulldiag) stable(crhf) geom
 =nocrowd test
 ----------------------------------------------------------------------

 hf stability analysis of h10 triangular lattice, y= 0.9821822982986273
 5
 ----------------------------------------------------------------------
 Symbolic Z-matrix:
 Charge =  0 Multiplicity = 1

                         Standard orientation:
 ---------------------------------------------------------------------
 Center     Atomic      Atomic             Coordinates (Angstroms)
 Number     Number       Type             X           Y           Z
 ---------------------------------------------------------------------
      1          1           0        2.017564    1.654133   -0.000000
      2          1           0        2.017564    0.509485   -0.000000
      3          1           0        1.008782    1.113228   -0.000000
      4          1           0        1.008782   -0.031420   -0.000000
      5          1           0       -0.000000    0.572324    0.000000
      6          1           0       -0.000000   -0.572324   -0.000000
      7          1           0       -1.008782    0.031420   -0.000000
      8          1           0       -1.008782   -1.113228   -0.000000
      9          1           0       -2.017564   -0.509485   -0.000000
     10          1           0       -2.017564   -1.654133   -0.000000
 ---------------------------------------------------------------------

 SCF Done:  E(RHF) =  -4.86826080069     A.U. after   10 cycles
 E2 =    -0.1127421740D+00 EUMP2 =    -0.49810029747089D+01

 The electronic state is 1-AG.
 Alpha  occ. eigenvalues --   -0.84517  -0.74048  -0.55057  -0.34819  -0.30659
 Alpha virt. eigenvalues --   -0.00562   0.23166   0.23512   0.55512   0.61243

 Mulliken charges:
               1
     1  H   -0.094607
     2  H    0.145654
     3  H    0.104833
     4  H   -0.119881
     5  H   -0.035999
     6  H   -0.035999
     7  H   -0.119881
     8  H    0.104833
     9  H    0.145654
    10  H   -0.094607
 Sum of Mulliken charges =   0.00000

 Dipole moment (field-independent basis, Debye):
    X=              0.0000    Y=              0.0000    Z=             -0.0000  Tot=              0.0000
 Quadrupole moment (field-independent basis, Debye-Ang):
   XX=            -13.8358   YY=            -15.4839   ZZ=            -12.9689
   XY=             -1.2782   XZ=              0.0000   YZ=              0.0000

 Normal termination of Gaussian 09 at Thu Feb  9 15:35:18 2017.
