 Gaussian 09, Revision E.01,
 Gaussian 09:  ES64L-G09RevE.01 30-Nov-2015

 ----------------------------------------------------------------------
 #rhf/gen scf(symm,tight,novaracc,noincfock,fulldiag) stable(crhf) geom
 =nocrowd test
 ----------------------------------------------------------------------

 ----------------------------------------------------------------------
 hf stability analysis of h10 triangular lattice, y= 1.3763498228147655
 ----------------------------------------------------------------------
 Symbolic Z-matrix:
 Charge =  0 Multiplicity = 1

                         Standard orientation:
 ---------------------------------------------------------------------
 Center     Atomic      Atomic             Coordinates (Angstroms)
 Number     Number       Type             X           Y           Z
 ---------------------------------------------------------------------
      1          1           0        1.605028    3.107961   -0.000000
      2          1           0        1.605028    1.669106   -0.000000
      3          1           0        0.802514    1.913694   -0.000000
      4          1           0        0.802514    0.474840   -0.000000
      5          1           0        0.000000    0.719427   -0.000000
      6          1           0       -0.000000   -0.719427   -0.000000
      7          1           0       -0.802514   -0.474840   -0.000000
      8          1           0       -0.802514   -1.913694   -0.000000
      9          1           0       -1.605028   -1.669106   -0.000000
     10          1           0       -1.605028   -3.107961   -0.000000
 ---------------------------------------------------------------------

 SCF Done:  E(RHF) =  -4.80153545235     A.U. after   10 cycles
 E2 =    -0.2788643766D+00 EUMP2 =    -0.50803998289453D+01

 The electronic state is 1-AG.
 Alpha  occ. eigenvalues --   -0.81309  -0.72912  -0.60166  -0.44086  -0.12157
 Alpha virt. eigenvalues --   -0.00502   0.11287   0.23703   0.41441   0.57814

 Mulliken charges:
               1
     1  H   -0.202889
     2  H    0.046430
     3  H    0.089477
     4  H    0.029884
     5  H    0.037099
     6  H    0.037099
     7  H    0.029884
     8  H    0.089477
     9  H    0.046430
    10  H   -0.202889
 Sum of Mulliken charges =   0.00000

 Dipole moment (field-independent basis, Debye):
    X=              0.0000    Y=              0.0000    Z=              0.0000  Tot=              0.0000
 Quadrupole moment (field-independent basis, Debye-Ang):
   XX=            -15.8638   YY=            -31.4878   ZZ=            -12.8228
   XY=            -10.3083   XZ=             -0.0000   YZ=             -0.0000

 Normal termination of Gaussian 09 at Thu Feb  9 15:48:52 2017.
