 Gaussian 09, Revision E.01,
 Gaussian 09:  ES64L-G09RevE.01 30-Nov-2015

 ----------------------------------------------------------------------
 #rhf/gen scf(symm,tight,novaracc,noincfock,fulldiag) stable(crhf) geom
 =nocrowd test
 ----------------------------------------------------------------------

 hf stability analysis of h10 triangular lattice, y= 0.7786382577089875
 4
 ----------------------------------------------------------------------
 Symbolic Z-matrix:
 Charge =  0 Multiplicity = 1

                         Standard orientation:
 ---------------------------------------------------------------------
 Center     Atomic      Atomic             Coordinates (Angstroms)
 Number     Number       Type             X           Y           Z
 ---------------------------------------------------------------------
      1          1           0        2.147857    0.642654    0.000000
      2          1           0        2.147857   -0.432558    0.000000
      3          1           0        1.073928    0.590130    0.000000
      4          1           0        1.073928   -0.485082    0.000000
      5          1           0        0.000000    0.537606    0.000000
      6          1           0       -0.000000   -0.537606    0.000000
      7          1           0       -1.073928    0.485082   -0.000000
      8          1           0       -1.073928   -0.590130    0.000000
      9          1           0       -2.147857    0.432558   -0.000000
     10          1           0       -2.147857   -0.642654    0.000000
 ---------------------------------------------------------------------

 SCF Done:  E(RHF) =  -4.88558011326     A.U. after   10 cycles
 E2 =    -0.1050382714D+00 EUMP2 =    -0.49906183846289D+01

 The electronic state is 1-AG.
 Alpha  occ. eigenvalues --   -0.87742  -0.74515  -0.52650  -0.46812  -0.31160
 Alpha virt. eigenvalues --   -0.01366   0.15410   0.36664   0.51365   0.89991

 Mulliken charges:
               1
     1  H    0.055657
     2  H    0.025125
     3  H   -0.032954
     4  H   -0.033817
     5  H   -0.014011
     6  H   -0.014011
     7  H   -0.033817
     8  H   -0.032954
     9  H    0.025125
    10  H    0.055657
 Sum of Mulliken charges =   0.00000

 Dipole moment (field-independent basis, Debye):
    X=             -0.0000    Y=             -0.0000    Z=              0.0000  Tot=              0.0000
 Quadrupole moment (field-independent basis, Debye-Ang):
   XX=            -10.0824   YY=            -17.3587   ZZ=            -12.9547
   XY=              0.7209   XZ=             -0.0000   YZ=              0.0000

 Normal termination of Gaussian 09 at Thu Feb  9 15:24:12 2017.
