 Gaussian 09, Revision E.01,
 Gaussian 09:  ES64L-G09RevE.01 30-Nov-2015

 ----------------------------------------------------------------------
 #rhf/gen scf(symm,tight,novaracc,noincfock,fulldiag) stable(crhf) geom
 =nocrowd test
 ----------------------------------------------------------------------

 hf stability analysis of h10 triangular lattice, y= 0.8611847163515433
 7
 ----------------------------------------------------------------------
 Symbolic Z-matrix:
 Charge =  0 Multiplicity = 1

                         Standard orientation:
 ---------------------------------------------------------------------
 Center     Atomic      Atomic             Coordinates (Angstroms)
 Number     Number       Type             X           Y           Z
 ---------------------------------------------------------------------
      1          1           0        2.116052    1.081130    0.000000
      2          1           0        2.116052   -0.010243    0.000000
      3          1           0        1.058026    0.813408    0.000000
      4          1           0        1.058026   -0.277965    0.000000
      5          1           0        0.000000    0.545686    0.000000
      6          1           0       -0.000000   -0.545686    0.000000
      7          1           0       -1.058026    0.277965    0.000000
      8          1           0       -1.058026   -0.813408    0.000000
      9          1           0       -2.116052    0.010243    0.000000
     10          1           0       -2.116052   -1.081130    0.000000
 ---------------------------------------------------------------------

 SCF Done:  E(RHF) =  -4.85219304544     A.U. after   10 cycles
 E2 =    -0.1141086271D+00 EUMP2 =    -0.49663016724956D+01

 The electronic state is 1-AG.
 Alpha  occ. eigenvalues --   -0.86034  -0.73808  -0.54561  -0.39486  -0.29146
 Alpha virt. eigenvalues --   -0.02786   0.21492   0.30945   0.52714   0.82707

 Mulliken charges:
               1
     1  H   -0.072027
     2  H    0.107445
     3  H    0.055053
     4  H   -0.092111
     5  H    0.001640
     6  H    0.001640
     7  H   -0.092111
     8  H    0.055053
     9  H    0.107445
    10  H   -0.072027
 Sum of Mulliken charges =   0.00000

 Dipole moment (field-independent basis, Debye):
    X=             -0.0000    Y=             -0.0000    Z=              0.0000  Tot=              0.0000
 Quadrupole moment (field-independent basis, Debye-Ang):
   XX=            -15.5192   YY=            -14.2638   ZZ=            -12.8439
   XY=             -1.6485   XZ=             -0.0000   YZ=             -0.0000

 Normal termination of Gaussian 09 at Thu Feb  9 15:29:08 2017.
