 Gaussian 09, Revision E.01,
 Gaussian 09:  ES64L-G09RevE.01 30-Nov-2015

 ----------------------------------------------------------------------
 #rhf/gen scf(symm,tight,novaracc,noincfock,fulldiag) stable(crhf) geom
 =nocrowd test
 ----------------------------------------------------------------------

 hf stability analysis of h10 triangular lattice, y= 0.8428697306548583
 7
 ----------------------------------------------------------------------
 Symbolic Z-matrix:
 Charge =  0 Multiplicity = 1

                         Standard orientation:
 ---------------------------------------------------------------------
 Center     Atomic      Atomic             Coordinates (Angstroms)
 Number     Number       Type             X           Y           Z
 ---------------------------------------------------------------------
      1          1           0        2.126310    0.987263    0.000000
      2          1           0        2.126310   -0.098844    0.000000
      3          1           0        1.063155    0.765158    0.000000
      4          1           0        1.063155   -0.320949    0.000000
      5          1           0        0.000000    0.543054    0.000000
      6          1           0       -0.000000   -0.543054    0.000000
      7          1           0       -1.063155    0.320949    0.000000
      8          1           0       -1.063155   -0.765158    0.000000
      9          1           0       -2.126310    0.098844    0.000000
     10          1           0       -2.126310   -0.987263    0.000000
 ---------------------------------------------------------------------

 SCF Done:  E(RHF) =  -4.84861857529     A.U. after   10 cycles
 E2 =    -0.1147010452D+00 EUMP2 =    -0.49633196204685D+01

 The electronic state is 1-AG.
 Alpha  occ. eigenvalues --   -0.86152  -0.73736  -0.54495  -0.39936  -0.28951
 Alpha virt. eigenvalues --   -0.02972   0.21256   0.31880   0.52413   0.85528

 Mulliken charges:
               1
     1  H   -0.060196
     2  H    0.094896
     3  H    0.042416
     4  H   -0.083579
     5  H    0.006463
     6  H    0.006463
     7  H   -0.083579
     8  H    0.042416
     9  H    0.094896
    10  H   -0.060196
 Sum of Mulliken charges =  -0.00000

 Dipole moment (field-independent basis, Debye):
    X=              0.0000    Y=              0.0000    Z=              0.0000  Tot=              0.0000
 Quadrupole moment (field-independent basis, Debye-Ang):
   XX=            -15.7157   YY=            -14.0099   ZZ=            -12.8290
   XY=             -1.4649   XZ=              0.0000   YZ=              0.0000

 Normal termination of Gaussian 09 at Thu Feb  9 15:28:06 2017.
