 Gaussian 09, Revision E.01,
 Gaussian 09:  ES64L-G09RevE.01 30-Nov-2015

 ----------------------------------------------------------------------
 #rhf/gen scf(symm,tight,novaracc,noincfock,fulldiag) stable(crhf) geom
 =nocrowd test
 ----------------------------------------------------------------------

 ----------------------------------------------------------------------
 hf stability analysis of h10 triangular lattice, y= 1.9654877006520655
 ----------------------------------------------------------------------
 Symbolic Z-matrix:
 Charge =  0 Multiplicity = 1

                         Standard orientation:
 ---------------------------------------------------------------------
 Center     Atomic      Atomic             Coordinates (Angstroms)
 Number     Number       Type             X           Y           Z
 ---------------------------------------------------------------------
      1          1           0        1.162070    4.794619    0.000000
      2          1           0        1.162070    2.807302    0.000000
      3          1           0        0.581035    2.894139    0.000000
      4          1           0        0.581035    0.906822    0.000000
      5          1           0        0.000000    0.993658    0.000000
      6          1           0       -0.000000   -0.993658    0.000000
      7          1           0       -0.581035   -0.906822    0.000000
      8          1           0       -0.581035   -2.894139    0.000000
      9          1           0       -1.162070   -2.807302    0.000000
     10          1           0       -1.162070   -4.794619    0.000000
 ---------------------------------------------------------------------

 SCF Done:  E(RHF) =  -4.82106324491     A.U. after    6 cycles
 E2 =    -0.7931436949D+00 EUMP2 =    -0.56142069398284D+01

 The electronic state is 1-AG.
 Alpha  occ. eigenvalues --   -0.73421  -0.70658  -0.66404  -0.61885  -0.19768
 Alpha virt. eigenvalues --   -0.14332   0.40747   0.47889   0.58329   0.68320

 Mulliken charges:
               1
     1  H   -0.006021
     2  H    0.003050
     3  H    0.002043
     4  H   -0.000162
     5  H    0.001090
     6  H    0.001090
     7  H   -0.000162
     8  H    0.002043
     9  H    0.003050
    10  H   -0.006021
 Sum of Mulliken charges =   0.00000

 Dipole moment (field-independent basis, Debye):
    X=             -0.0000    Y=              0.0000    Z=             -0.0000  Tot=              0.0000
 Quadrupole moment (field-independent basis, Debye-Ang):
   XX=            -12.3493   YY=            -17.3842   ZZ=            -13.2606
   XY=             -1.1967   XZ=              0.0000   YZ=             -0.0000

 Normal termination of Gaussian 09 at Thu Feb  9 15:56:59 2017.
