 Gaussian 09, Revision E.01,
 Gaussian 09:  ES64L-G09RevE.01 30-Nov-2015

 ----------------------------------------------------------------------
 #rhf/gen scf(symm,tight,novaracc,noincfock,fulldiag) stable(crhf) geom
 =nocrowd test
 ----------------------------------------------------------------------

 ----------------------------------------------------------------------
 hf stability analysis of h10 triangular lattice, y= 1.9773238080476301
 ----------------------------------------------------------------------
 Symbolic Z-matrix:
 Charge =  0 Multiplicity = 1

                         Standard orientation:
 ---------------------------------------------------------------------
 Center     Atomic      Atomic             Coordinates (Angstroms)
 Number     Number       Type             X           Y           Z
 ---------------------------------------------------------------------
      1          1           0        1.155414    4.826298    0.000000
      2          1           0        1.155414    2.827532    0.000000
      3          1           0        0.577707    2.912841    0.000000
      4          1           0        0.577707    0.914075    0.000000
      5          1           0        0.000000    0.999383    0.000000
      6          1           0       -0.000000   -0.999383    0.000000
      7          1           0       -0.577707   -0.914075    0.000000
      8          1           0       -0.577707   -2.912841    0.000000
      9          1           0       -1.155414   -2.827532    0.000000
     10          1           0       -1.155414   -4.826298    0.000000
 ---------------------------------------------------------------------

 SCF Done:  E(RHF) =  -4.81357665551     A.U. after    6 cycles
 E2 =    -0.7995353011D+00 EUMP2 =    -0.56131119565873D+01

 The electronic state is 1-AG.
 Alpha  occ. eigenvalues --   -0.73402  -0.70699  -0.66549  -0.62164  -0.19814
 Alpha virt. eigenvalues --   -0.14415   0.41196   0.48262   0.58571   0.68421

 Mulliken charges:
               1
     1  H   -0.005440
     2  H    0.002841
     3  H    0.001761
     4  H   -0.000175
     5  H    0.001013
     6  H    0.001013
     7  H   -0.000175
     8  H    0.001761
     9  H    0.002841
    10  H   -0.005440
 Sum of Mulliken charges =  -0.00000

 Dipole moment (field-independent basis, Debye):
    X=             -0.0000    Y=              0.0000    Z=              0.0000  Tot=              0.0000
 Quadrupole moment (field-independent basis, Debye-Ang):
   XX=            -12.3558   YY=            -17.2686   ZZ=            -13.2686
   XY=             -1.1505   XZ=              0.0000   YZ=              0.0000

 Normal termination of Gaussian 09 at Thu Feb  9 15:57:04 2017.
