 Gaussian 09, Revision E.01,
 Gaussian 09:  ES64L-G09RevE.01 30-Nov-2015

 ----------------------------------------------------------------------
 #rhf/gen scf(symm,tight,novaracc,noincfock,fulldiag) stable(crhf) geom
 =nocrowd test
 ----------------------------------------------------------------------

 ----------------------------------------------------------------------
 hf stability analysis of h10 triangular lattice, y= 2.3840951758941467
 ----------------------------------------------------------------------
 Symbolic Z-matrix:
 Charge =  0 Multiplicity = 1

                         Standard orientation:
 ---------------------------------------------------------------------
 Center     Atomic      Atomic             Coordinates (Angstroms)
 Number     Number       Type             X           Y           Z
 ---------------------------------------------------------------------
      1          1           0        0.963711    5.893017    0.000000
      2          1           0        0.963711    3.496654    0.000000
      3          1           0        0.481856    3.545599    0.000000
      4          1           0        0.481856    1.149236    0.000000
      5          1           0       -0.000000    1.198181    0.000000
      6          1           0       -0.000000   -1.198181   -0.000000
      7          1           0       -0.481856   -1.149236   -0.000000
      8          1           0       -0.481856   -3.545599   -0.000000
      9          1           0       -0.963711   -3.496654   -0.000000
     10          1           0       -0.963711   -5.893017   -0.000000
 ---------------------------------------------------------------------

 SCF Done:  E(RHF) =  -4.45237411887     A.U. after    5 cycles
 E2 =    -0.9910011351D+00 EUMP2 =    -0.54433752539435D+01

 The electronic state is 1-AG.
 Alpha  occ. eigenvalues --   -0.73751  -0.72594  -0.70998  -0.69546  -0.20508
 Alpha virt. eigenvalues --   -0.16074   0.54979   0.59678   0.66148   0.71984

 Mulliken charges:
               1
     1  H    0.001209
     2  H   -0.000045
     3  H   -0.001180
     4  H   -0.000098
     5  H    0.000114
     6  H    0.000114
     7  H   -0.000098
     8  H   -0.001180
     9  H   -0.000045
    10  H    0.001209
 Sum of Mulliken charges =   0.00000

 Dipole moment (field-independent basis, Debye):
    X=              0.0000    Y=              0.0000    Z=              0.0000  Tot=              0.0000
 Quadrupole moment (field-independent basis, Debye-Ang):
   XX=            -12.6874   YY=            -14.9699   ZZ=            -13.4748
   XY=             -0.3378   XZ=             -0.0000   YZ=             -0.0000

 Normal termination of Gaussian 09 at Thu Feb  9 15:59:30 2017.
