 Gaussian 09, Revision E.01,
 Gaussian 09:  ES64L-G09RevE.01 30-Nov-2015

 ----------------------------------------------------------------------
 #rhf/gen scf(symm,tight,novaracc,noincfock,fulldiag) stable(crhf) geom
 =nocrowd test
 ----------------------------------------------------------------------

 ----------------------------------------------------------------------
 hf stability analysis of h10 triangular lattice, y= 1.5597688259559499
 ----------------------------------------------------------------------
 Symbolic Z-matrix:
 Charge =  0 Multiplicity = 1

                         Standard orientation:
 ---------------------------------------------------------------------
 Center     Atomic      Atomic             Coordinates (Angstroms)
 Number     Number       Type             X           Y           Z
 ---------------------------------------------------------------------
      1          1           0        1.440596    3.665850    0.000000
      2          1           0        1.440596    2.062762   -0.000000
      3          1           0        0.720298    2.233697    0.000000
      4          1           0        0.720298    0.630609   -0.000000
      5          1           0       -0.000000    0.801544    0.000000
      6          1           0       -0.000000   -0.801544    0.000000
      7          1           0       -0.720298   -0.630609    0.000000
      8          1           0       -0.720298   -2.233697    0.000000
      9          1           0       -1.440596   -2.062762    0.000000
     10          1           0       -1.440596   -3.665850    0.000000
 ---------------------------------------------------------------------

 SCF Done:  E(RHF) =  -4.90609421262     A.U. after    8 cycles
 E2 =    -0.4795456421D+00 EUMP2 =    -0.53856398547333D+01

 The electronic state is 1-AG.
 Alpha  occ. eigenvalues --   -0.76724  -0.70909  -0.61630  -0.50169  -0.15876
 Alpha virt. eigenvalues --   -0.07899   0.22364   0.32683   0.48065   0.63126

 Mulliken charges:
               1
     1  H   -0.086027
     2  H    0.024627
     3  H    0.037134
     4  H    0.008948
     5  H    0.015318
     6  H    0.015318
     7  H    0.008948
     8  H    0.037134
     9  H    0.024627
    10  H   -0.086027
 Sum of Mulliken charges =  -0.00000

 Dipole moment (field-independent basis, Debye):
    X=              0.0000    Y=             -0.0000    Z=             -0.0000  Tot=              0.0000
 Quadrupole moment (field-independent basis, Debye-Ang):
   XX=            -13.2273   YY=            -25.6360   ZZ=            -12.9496
   XY=             -5.4248   XZ=              0.0000   YZ=              0.0000

 Normal termination of Gaussian 09 at Thu Feb  9 15:52:20 2017.
