 Gaussian 09, Revision E.01,
 Gaussian 09:  ES64L-G09RevE.01 30-Nov-2015

 ----------------------------------------------------------------------
 #rhf/gen scf(symm,tight,novaracc,noincfock,fulldiag) stable(crhf) geom
 =nocrowd test
 ----------------------------------------------------------------------

 hf stability analysis of h10 triangular lattice, y= 0.9401948785324996
 1
 ----------------------------------------------------------------------
 Symbolic Z-matrix:
 Charge =  0 Multiplicity = 1

                         Standard orientation:
 ---------------------------------------------------------------------
 Center     Atomic      Atomic             Coordinates (Angstroms)
 Number     Number       Type             X           Y           Z
 ---------------------------------------------------------------------
      1          1           0        2.056518    1.464232    0.000000
      2          1           0        2.056518    0.341265    0.000000
      3          1           0        1.028259    1.012857    0.000000
      4          1           0        1.028259   -0.110109    0.000000
      5          1           0        0.000000    0.561483    0.000000
      6          1           0       -0.000000   -0.561483    0.000000
      7          1           0       -1.028259    0.110109    0.000000
      8          1           0       -1.028259   -1.012857    0.000000
      9          1           0       -2.056518   -0.341265    0.000000
     10          1           0       -2.056518   -1.464232    0.000000
 ---------------------------------------------------------------------

 SCF Done:  E(RHF) =  -4.86576133612     A.U. after   10 cycles
 E2 =    -0.1124851174D+00 EUMP2 =    -0.49782464534823D+01

 The electronic state is 1-AG.
 Alpha  occ. eigenvalues --   -0.85188  -0.74039  -0.54891  -0.36720  -0.30140
 Alpha virt. eigenvalues --   -0.01513   0.22781   0.26008   0.54413   0.68681

 Mulliken charges:
               1
     1  H   -0.096949
     2  H    0.140465
     3  H    0.093833
     4  H   -0.114826
     5  H   -0.022523
     6  H   -0.022523
     7  H   -0.114826
     8  H    0.093833
     9  H    0.140465
    10  H   -0.096949
 Sum of Mulliken charges =  -0.00000

 Dipole moment (field-independent basis, Debye):
    X=              0.0000    Y=              0.0000    Z=              0.0000  Tot=              0.0000
 Quadrupole moment (field-independent basis, Debye-Ang):
   XX=            -14.4504   YY=            -15.2560   ZZ=            -12.9230
   XY=             -1.7048   XZ=              0.0000   YZ=              0.0000

 Normal termination of Gaussian 09 at Thu Feb  9 15:33:17 2017.
