 Gaussian 09, Revision E.01,
 Gaussian 09:  ES64L-G09RevE.01 30-Nov-2015

 ----------------------------------------------------------------------
 #rhf/gen scf(symm,tight,novaracc,noincfock,fulldiag) stable(crhf) geom
 =nocrowd test
 ----------------------------------------------------------------------

 ----------------------------------------------------------------------
 hf stability analysis of h10 triangular lattice, y= 1.8188096772254154
 ----------------------------------------------------------------------
 Symbolic Z-matrix:
 Charge =  0 Multiplicity = 1

                         Standard orientation:
 ---------------------------------------------------------------------
 Center     Atomic      Atomic             Coordinates (Angstroms)
 Number     Number       Type             X           Y           Z
 ---------------------------------------------------------------------
      1          1           0        1.250825    4.397452   -0.000000
      2          1           0        1.250825    2.551150   -0.000000
      3          1           0        0.625413    2.660302   -0.000000
      4          1           0        0.625413    0.813999   -0.000000
      5          1           0       -0.000000    0.923151   -0.000000
      6          1           0       -0.000000   -0.923151   -0.000000
      7          1           0       -0.625413   -0.813999    0.000000
      8          1           0       -0.625413   -2.660302   -0.000000
      9          1           0       -1.250825   -2.551150    0.000000
     10          1           0       -1.250825   -4.397452   -0.000000
 ---------------------------------------------------------------------

 SCF Done:  E(RHF) =  -4.89379088282     A.U. after    7 cycles
 E2 =    -0.7047710521D+00 EUMP2 =    -0.55985619349451D+01

 The electronic state is 1-AG.
 Alpha  occ. eigenvalues --   -0.73905  -0.70303  -0.64572  -0.58101  -0.18965
 Alpha virt. eigenvalues --   -0.12974   0.34867   0.43000   0.55135   0.66978

 Mulliken charges:
               1
     1  H   -0.017909
     2  H    0.006940
     3  H    0.007748
     4  H    0.000423
     5  H    0.002798
     6  H    0.002798
     7  H    0.000423
     8  H    0.007748
     9  H    0.006940
    10  H   -0.017909
 Sum of Mulliken charges =   0.00000

 Dipole moment (field-independent basis, Debye):
    X=             -0.0000    Y=             -0.0000    Z=              0.0000  Tot=              0.0000
 Quadrupole moment (field-independent basis, Debye-Ang):
   XX=            -12.3371   YY=            -19.2504   ZZ=            -13.1534
   XY=             -1.9964   XZ=             -0.0000   YZ=              0.0000

 Normal termination of Gaussian 09 at Thu Feb  9 15:55:38 2017.
