 Gaussian 09, Revision E.01,
 Gaussian 09:  ES64L-G09RevE.01 30-Nov-2015

 ----------------------------------------------------------------------
 #rhf/gen scf(symm,tight,novaracc,noincfock,fulldiag) stable(crhf) geom
 =nocrowd test
 ----------------------------------------------------------------------

 ----------------------------------------------------------------------
 hf stability analysis of h10 triangular lattice, y= 1.0216234695124444
 ----------------------------------------------------------------------
 Symbolic Z-matrix:
 Charge =  0 Multiplicity = 1

                         Standard orientation:
 ---------------------------------------------------------------------
 Center     Atomic      Atomic             Coordinates (Angstroms)
 Number     Number       Type             X           Y           Z
 ---------------------------------------------------------------------
      1          1           0        1.978052    1.824586   -0.000000
      2          1           0        1.978052    0.657073   -0.000000
      3          1           0        0.989026    1.204171   -0.000000
      4          1           0        0.989026    0.036658   -0.000000
      5          1           0        0.000000    0.583757   -0.000000
      6          1           0       -0.000000   -0.583757   -0.000000
      7          1           0       -0.989026   -0.036658   -0.000000
      8          1           0       -0.989026   -1.204171   -0.000000
      9          1           0       -1.978052   -0.657073   -0.000000
     10          1           0       -1.978052   -1.824586   -0.000000
 ---------------------------------------------------------------------

 SCF Done:  E(RHF) =  -4.86582379116     A.U. after   10 cycles
 E2 =    -0.1138143926D+00 EUMP2 =    -0.49796381837760D+01

 The electronic state is 1-AG.
 Alpha  occ. eigenvalues --   -0.83761  -0.73963  -0.55186  -0.33006  -0.30921
 Alpha virt. eigenvalues --    0.00437   0.20573   0.24098   0.54837   0.56629

 Mulliken charges:
               1
     1  H   -0.084612
     2  H    0.144258
     3  H    0.110526
     4  H   -0.121553
     5  H   -0.048619
     6  H   -0.048619
     7  H   -0.121553
     8  H    0.110526
     9  H    0.144258
    10  H   -0.084612
 Sum of Mulliken charges =   0.00000

 Dipole moment (field-independent basis, Debye):
    X=              0.0000    Y=             -0.0000    Z=             -0.0000  Tot=              0.0000
 Quadrupole moment (field-independent basis, Debye-Ang):
   XX=            -13.2865   YY=            -15.3905   ZZ=            -13.0115
   XY=             -0.6430   XZ=              0.0000   YZ=              0.0000

 Normal termination of Gaussian 09 at Thu Feb  9 15:37:13 2017.
