 Gaussian 09, Revision E.01,
 Gaussian 09:  ES64L-G09RevE.01 30-Nov-2015

 ----------------------------------------------------------------------
 #rhf/gen scf(symm,tight,novaracc,noincfock,fulldiag) stable(crhf) geom
 =nocrowd test
 ----------------------------------------------------------------------

 ----------------------------------------------------------------------
 hf stability analysis of h10 triangular lattice, y= 1.6921403108416329
 ----------------------------------------------------------------------
 Symbolic Z-matrix:
 Charge =  0 Multiplicity = 1

                         Standard orientation:
 ---------------------------------------------------------------------
 Center     Atomic      Atomic             Coordinates (Angstroms)
 Number     Number       Type             X           Y           Z
 ---------------------------------------------------------------------
      1          1           0        1.337856    4.045731   -0.000000
      2          1           0        1.337856    2.319535   -0.000000
      3          1           0        0.668928    2.454415   -0.000000
      4          1           0        0.668928    0.728219   -0.000000
      5          1           0        0.000000    0.863098    0.000000
      6          1           0       -0.000000   -0.863098    0.000000
      7          1           0       -0.668928   -0.728219    0.000000
      8          1           0       -0.668928   -2.454415    0.000000
      9          1           0       -1.337856   -2.319535    0.000000
     10          1           0       -1.337856   -4.045731    0.000000
 ---------------------------------------------------------------------

 SCF Done:  E(RHF) =  -4.92105647002     A.U. after    7 cycles
 E2 =    -0.6079674476D+00 EUMP2 =    -0.55290239175959D+01

 The electronic state is 1-AG.
 Alpha  occ. eigenvalues --   -0.74854  -0.70332  -0.63031  -0.54370  -0.17791
 Alpha virt. eigenvalues --   -0.11083   0.29191   0.38284   0.51978   0.65476

 Mulliken charges:
               1
     1  H   -0.040194
     2  H    0.013295
     3  H    0.017862
     4  H    0.002503
     5  H    0.006534
     6  H    0.006534
     7  H    0.002503
     8  H    0.017862
     9  H    0.013295
    10  H   -0.040194
 Sum of Mulliken charges =  -0.00000

 Dipole moment (field-independent basis, Debye):
    X=             -0.0000    Y=              0.0000    Z=             -0.0000  Tot=              0.0000
 Quadrupole moment (field-independent basis, Debye-Ang):
   XX=            -12.5350   YY=            -21.7775   ZZ=            -13.0533
   XY=             -3.2214   XZ=             -0.0000   YZ=              0.0000

 Normal termination of Gaussian 09 at Thu Feb  9 15:54:12 2017.
