 Gaussian 09, Revision E.01,
 Gaussian 09:  ES64L-G09RevE.01 30-Nov-2015

 ----------------------------------------------------------------------
 #rhf/gen scf(symm,tight,novaracc,noincfock,fulldiag) stable(crhf) geom
 =nocrowd test
 ----------------------------------------------------------------------

 ----------------------------------------------------------------------
 hf stability analysis of h10 triangular lattice, y= 1.2247999137372361
 ----------------------------------------------------------------------
 Symbolic Z-matrix:
 Charge =  0 Multiplicity = 1

                         Standard orientation:
 ---------------------------------------------------------------------
 Center     Atomic      Atomic             Coordinates (Angstroms)
 Number     Number       Type             X           Y           Z
 ---------------------------------------------------------------------
      1          1           0        1.759707    2.603695   -0.000000
      2          1           0        1.759707    1.291317   -0.000000
      3          1           0        0.879853    1.629942   -0.000000
      4          1           0        0.879853    0.317564   -0.000000
      5          1           0        0.000000    0.656189   -0.000000
      6          1           0       -0.000000   -0.656189   -0.000000
      7          1           0       -0.879853   -0.317564   -0.000000
      8          1           0       -0.879853   -1.629942   -0.000000
      9          1           0       -1.759707   -1.291317   -0.000000
     10          1           0       -1.759707   -2.603695   -0.000000
 ---------------------------------------------------------------------

 SCF Done:  E(RHF) =  -4.76652268020     A.U. after   11 cycles
 E2 =    -0.1299690240D+00 EUMP2 =    -0.48964917042312D+01

 The electronic state is 1-AG.
 Alpha  occ. eigenvalues --   -0.78584  -0.72236  -0.55186  -0.34046  -0.19232
 Alpha virt. eigenvalues --    0.01968   0.14641   0.18357   0.39795   0.62905

 Mulliken charges:
               1
     1  H    0.035750
     2  H    0.065743
     3  H    0.113141
     4  H   -0.087916
     5  H   -0.126719
     6  H   -0.126719
     7  H   -0.087916
     8  H    0.113141
     9  H    0.065743
    10  H    0.035750
 Sum of Mulliken charges =   0.00000

 Dipole moment (field-independent basis, Debye):
    X=             -0.0000    Y=             -0.0000    Z=             -0.0000  Tot=              0.0000
 Quadrupole moment (field-independent basis, Debye-Ang):
   XX=            -11.5696   YY=             -9.0672   ZZ=            -13.1810
   XY=              4.4693   XZ=              0.0000   YZ=              0.0000

 Normal termination of Gaussian 09 at Thu Feb  9 15:44:53 2017.
