 Gaussian 09, Revision E.01,
 Gaussian 09:  ES64L-G09RevE.01 30-Nov-2015

 ----------------------------------------------------------------------
 #rhf/gen scf(symm,tight,novaracc,noincfock,fulldiag) stable(crhf) geom
 =nocrowd test
 ----------------------------------------------------------------------

 hf stability analysis of h10 triangular lattice, y= 0.9225735451415472
 1
 ----------------------------------------------------------------------
 Symbolic Z-matrix:
 Charge =  0 Multiplicity = 1

                         Standard orientation:
 ---------------------------------------------------------------------
 Center     Atomic      Atomic             Coordinates (Angstroms)
 Number     Number       Type             X           Y           Z
 ---------------------------------------------------------------------
      1          1           0        2.071589    1.381784    0.000000
      2          1           0        2.071589    0.266987    0.000000
      3          1           0        1.035794    0.969591    0.000000
      4          1           0        1.035794   -0.145206    0.000000
      5          1           0       -0.000000    0.557399    0.000000
      6          1           0       -0.000000   -0.557399    0.000000
      7          1           0       -1.035794    0.145206    0.000000
      8          1           0       -1.035794   -0.969591    0.000000
      9          1           0       -2.071589   -0.266987    0.000000
     10          1           0       -2.071589   -1.381784    0.000000
 ---------------------------------------------------------------------

 SCF Done:  E(RHF) =  -4.86345937894     A.U. after   10 cycles
 E2 =    -0.1126389764D+00 EUMP2 =    -0.49760983552927D+01

 The electronic state is 1-AG.
 Alpha  occ. eigenvalues --   -0.85425  -0.74008  -0.54816  -0.37442  -0.29909
 Alpha virt. eigenvalues --   -0.01861   0.22470   0.27186   0.53986   0.71896

 Mulliken charges:
               1
     1  H   -0.094935
     2  H    0.135915
     3  H    0.087374
     4  H   -0.111452
     5  H   -0.016901
     6  H   -0.016901
     7  H   -0.111452
     8  H    0.087374
     9  H    0.135915
    10  H   -0.094935
 Sum of Mulliken charges =   0.00000

 Dipole moment (field-independent basis, Debye):
    X=              0.0000    Y=              0.0000    Z=              0.0000  Tot=              0.0000
 Quadrupole moment (field-independent basis, Debye-Ang):
   XX=            -14.7072   YY=            -15.0801   ZZ=            -12.9041
   XY=             -1.7946   XZ=             -0.0000   YZ=             -0.0000

 Normal termination of Gaussian 09 at Thu Feb  9 15:32:23 2017.
