 Gaussian 09, Revision E.01,
 Gaussian 09:  ES64L-G09RevE.01 30-Nov-2015

 ----------------------------------------------------------------------
 #rhf/gen scf(symm,tight,novaracc,noincfock,fulldiag) stable(crhf) geom
 =nocrowd test
 ----------------------------------------------------------------------

 ----------------------------------------------------------------------
 hf stability analysis of h10 triangular lattice, y= 1.7779960290897987
 ----------------------------------------------------------------------
 Symbolic Z-matrix:
 Charge =  0 Multiplicity = 1

                         Standard orientation:
 ---------------------------------------------------------------------
 Center     Atomic      Atomic             Coordinates (Angstroms)
 Number     Number       Type             X           Y           Z
 ---------------------------------------------------------------------
      1          1           0        1.277744    4.285155   -0.000000
      2          1           0        1.277744    2.477750   -0.000000
      3          1           0        0.638872    2.594429   -0.000000
      4          1           0        0.638872    0.787024   -0.000000
      5          1           0        0.000000    0.903702   -0.000000
      6          1           0       -0.000000   -0.903702   -0.000000
      7          1           0       -0.638872   -0.787024   -0.000000
      8          1           0       -0.638872   -2.594429   -0.000000
      9          1           0       -1.277744   -2.477750   -0.000000
     10          1           0       -1.277744   -4.285155   -0.000000
 ---------------------------------------------------------------------

 SCF Done:  E(RHF) =  -4.90656678156     A.U. after    7 cycles
 E2 =    -0.6761307124D+00 EUMP2 =    -0.55826974939299D+01

 The electronic state is 1-AG.
 Alpha  occ. eigenvalues --   -0.74143  -0.70270  -0.64064  -0.56941  -0.18646
 Alpha virt. eigenvalues --   -0.12457   0.33111   0.41538   0.54167   0.66545

 Mulliken charges:
               1
     1  H   -0.023454
     2  H    0.008603
     3  H    0.010335
     4  H    0.000844
     5  H    0.003673
     6  H    0.003673
     7  H    0.000844
     8  H    0.010335
     9  H    0.008603
    10  H   -0.023454
 Sum of Mulliken charges =   0.00000

 Dipole moment (field-independent basis, Debye):
    X=             -0.0000    Y=              0.0000    Z=              0.0000  Tot=              0.0000
 Quadrupole moment (field-independent basis, Debye-Ang):
   XX=            -12.3703   YY=            -19.9525   ZZ=            -13.1216
   XY=             -2.3209   XZ=             -0.0000   YZ=             -0.0000

 Normal termination of Gaussian 09 at Thu Feb  9 15:55:12 2017.
