 Gaussian 09, Revision E.01,
 Gaussian 09:  ES64L-G09RevE.01 30-Nov-2015

 ----------------------------------------------------------------------
 #rhf/gen scf(symm,tight,novaracc,noincfock,fulldiag) stable(crhf) geom
 =nocrowd test
 ----------------------------------------------------------------------

 ----------------------------------------------------------------------
 hf stability analysis of h10 triangular lattice, y= 1.2967315002879742
 ----------------------------------------------------------------------
 Symbolic Z-matrix:
 Charge =  0 Multiplicity = 1

                         Standard orientation:
 ---------------------------------------------------------------------
 Center     Atomic      Atomic             Coordinates (Angstroms)
 Number     Number       Type             X           Y           Z
 ---------------------------------------------------------------------
      1          1           0        1.684417    2.849249    0.000000
      2          1           0        1.684417    1.478210    0.000000
      3          1           0        0.842209    1.767384    0.000000
      4          1           0        0.842209    0.396345    0.000000
      5          1           0        0.000000    0.685519    0.000000
      6          1           0       -0.000000   -0.685519    0.000000
      7          1           0       -0.842209   -0.396345    0.000000
      8          1           0       -0.842209   -1.767384    0.000000
      9          1           0       -1.684417   -1.478210    0.000000
     10          1           0       -1.684417   -2.849249    0.000000
 ---------------------------------------------------------------------

 SCF Done:  E(RHF) =  -4.73046557913     A.U. after   12 cycles
 E2 =    -0.1978382679D+00 EUMP2 =    -0.49283038469951D+01

 The electronic state is 1-AG.
 Alpha  occ. eigenvalues --   -0.83534  -0.73992  -0.59465  -0.41085  -0.11080
 Alpha virt. eigenvalues --    0.01747   0.08847   0.19785   0.38493   0.55100

 Mulliken charges:
               1
     1  H   -0.254446
     2  H    0.048262
     3  H    0.129853
     4  H    0.033502
     5  H    0.042828
     6  H    0.042828
     7  H    0.033502
     8  H    0.129853
     9  H    0.048262
    10  H   -0.254446
 Sum of Mulliken charges =  -0.00000

 Dipole moment (field-independent basis, Debye):
    X=             -0.0000    Y=             -0.0000    Z=             -0.0000  Tot=              0.0000
 Quadrupole moment (field-independent basis, Debye-Ang):
   XX=            -17.7044   YY=            -31.6544   ZZ=            -12.7892
   XY=            -11.9243   XZ=              0.0000   YZ=              0.0000

 Normal termination of Gaussian 09 at Thu Feb  9 15:46:55 2017.
