 Gaussian 09, Revision E.01,
 Gaussian 09:  ES64L-G09RevE.01 30-Nov-2015

 ----------------------------------------------------------------------
 #rhf/gen scf(symm,tight,novaracc,noincfock,fulldiag) stable(crhf) geom
 =nocrowd test
 ----------------------------------------------------------------------

 ----------------------------------------------------------------------
 hf stability analysis of h10 triangular lattice, y= 1.1791580991657851
 ----------------------------------------------------------------------
 Symbolic Z-matrix:
 Charge =  0 Multiplicity = 1

                         Standard orientation:
 ---------------------------------------------------------------------
 Center     Atomic      Atomic             Coordinates (Angstroms)
 Number     Number       Type             X           Y           Z
 ---------------------------------------------------------------------
      1          1           0        1.808779    2.440863    0.000000
      2          1           0        1.808779    1.164089   -0.000000
      3          1           0        0.904390    1.539625    0.000000
      4          1           0        0.904390    0.262851   -0.000000
      5          1           0       -0.000000    0.638387    0.000000
      6          1           0       -0.000000   -0.638387    0.000000
      7          1           0       -0.904390   -0.262851   -0.000000
      8          1           0       -0.904390   -1.539625    0.000000
      9          1           0       -1.808779   -1.164089   -0.000000
     10          1           0       -1.808779   -2.440863    0.000000
 ---------------------------------------------------------------------

 SCF Done:  E(RHF) =  -4.80095509319     A.U. after   10 cycles
 E2 =    -0.1250089740D+00 EUMP2 =    -0.49259640671628D+01

 The electronic state is 1-AG.
 Alpha  occ. eigenvalues --   -0.79862  -0.72782  -0.55287  -0.33491  -0.22425
 Alpha virt. eigenvalues --    0.02858   0.14178   0.21386   0.40157   0.61487

 Mulliken charges:
               1
     1  H    0.002788
     2  H    0.094331
     3  H    0.111209
     4  H   -0.104874
     5  H   -0.103454
     6  H   -0.103454
     7  H   -0.104874
     8  H    0.111209
     9  H    0.094331
    10  H    0.002788
 Sum of Mulliken charges =   0.00000

 Dipole moment (field-independent basis, Debye):
    X=              0.0000    Y=             -0.0000    Z=              0.0000  Tot=              0.0000
 Quadrupole moment (field-independent basis, Debye-Ang):
   XX=            -11.7422   YY=            -11.3516   ZZ=            -13.1542
   XY=              3.2365   XZ=             -0.0000   YZ=              0.0000

 Normal termination of Gaussian 09 at Thu Feb  9 15:43:26 2017.
