 Gaussian 09, Revision E.01,
 Gaussian 09:  ES64L-G09RevE.01 30-Nov-2015

 ----------------------------------------------------------------------
 #rhf/gen scf(symm,tight,novaracc,noincfock,fulldiag) stable(crhf) geom
 =nocrowd test
 ----------------------------------------------------------------------

 ----------------------------------------------------------------------
 hf stability analysis of h10 triangular lattice, y= 1.6038611261814530
 ----------------------------------------------------------------------
 Symbolic Z-matrix:
 Charge =  0 Multiplicity = 1

                         Standard orientation:
 ---------------------------------------------------------------------
 Center     Atomic      Atomic             Coordinates (Angstroms)
 Number     Number       Type             X           Y           Z
 ---------------------------------------------------------------------
      1          1           0        1.404949    3.794073    0.000000
      2          1           0        1.404949    2.150312    0.000000
      3          1           0        0.702475    2.307977    0.000000
      4          1           0        0.702475    0.664215    0.000000
      5          1           0       -0.000000    0.821881    0.000000
      6          1           0       -0.000000   -0.821881    0.000000
      7          1           0       -0.702475   -0.664215    0.000000
      8          1           0       -0.702475   -2.307977    0.000000
      9          1           0       -1.404949   -2.150312    0.000000
     10          1           0       -1.404949   -3.794073    0.000000
 ---------------------------------------------------------------------

 SCF Done:  E(RHF) =  -4.91647250376     A.U. after    8 cycles
 E2 =    -0.5252876408D+00 EUMP2 =    -0.54417601445148D+01

 The electronic state is 1-AG.
 Alpha  occ. eigenvalues --   -0.75976  -0.70640  -0.62063  -0.51589  -0.16602
 Alpha virt. eigenvalues --   -0.09134   0.24760   0.34636   0.49451   0.64030

 Mulliken charges:
               1
     1  H   -0.067442
     2  H    0.020241
     3  H    0.029469
     4  H    0.006081
     5  H    0.011651
     6  H    0.011651
     7  H    0.006081
     8  H    0.029469
     9  H    0.020241
    10  H   -0.067442
 Sum of Mulliken charges =  -0.00000

 Dipole moment (field-independent basis, Debye):
    X=             -0.0000    Y=             -0.0000    Z=             -0.0000  Tot=              0.0000
 Quadrupole moment (field-independent basis, Debye-Ang):
   XX=            -12.9166   YY=            -24.2150   ZZ=            -12.9835
   XY=             -4.5604   XZ=             -0.0000   YZ=             -0.0000

 Normal termination of Gaussian 09 at Thu Feb  9 15:53:00 2017.
