 Gaussian 09, Revision E.01,
 Gaussian 09:  ES64L-G09RevE.01 30-Nov-2015

 ----------------------------------------------------------------------
 #rhf/gen scf(symm,tight,novaracc,noincfock,fulldiag) stable(crhf) geom
 =nocrowd test
 ----------------------------------------------------------------------

 ----------------------------------------------------------------------
 hf stability analysis of h10 triangular lattice, y= 1.2543635788498853
 ----------------------------------------------------------------------
 Symbolic Z-matrix:
 Charge =  0 Multiplicity = 1

                         Standard orientation:
 ---------------------------------------------------------------------
 Center     Atomic      Atomic             Coordinates (Angstroms)
 Number     Number       Type             X           Y           Z
 ---------------------------------------------------------------------
      1          1           0        1.728408    2.706141    0.000000
      2          1           0        1.728408    1.369997    0.000000
      3          1           0        0.864204    1.687106    0.000000
      4          1           0        0.864204    0.350963    0.000000
      5          1           0        0.000000    0.668072    0.000000
      6          1           0       -0.000000   -0.668072   -0.000000
      7          1           0       -0.864204   -0.350963   -0.000000
      8          1           0       -0.864204   -1.687106   -0.000000
      9          1           0       -1.728408   -1.369997   -0.000000
     10          1           0       -1.728408   -2.706141   -0.000000
 ---------------------------------------------------------------------

 SCF Done:  E(RHF) =  -4.74161603766     A.U. after   11 cycles
 E2 =    -0.1338292144D+00 EUMP2 =    -0.48754452521086D+01

 The electronic state is 1-AG.
 Alpha  occ. eigenvalues --   -0.77749  -0.71842  -0.55104  -0.34464  -0.17102
 Alpha virt. eigenvalues --    0.00988   0.15534   0.16205   0.40121   0.63783

 Mulliken charges:
               1
     1  H    0.057092
     2  H    0.039170
     3  H    0.119718
     4  H   -0.067322
     5  H   -0.148658
     6  H   -0.148658
     7  H   -0.067322
     8  H    0.119718
     9  H    0.039170
    10  H    0.057092
 Sum of Mulliken charges =   0.00000

 Dipole moment (field-independent basis, Debye):
    X=             -0.0000    Y=             -0.0000    Z=             -0.0000  Tot=              0.0000
 Quadrupole moment (field-independent basis, Debye-Ang):
   XX=            -11.5896   YY=             -7.4133   ZZ=            -13.1896
   XY=              5.1436   XZ=              0.0000   YZ=              0.0000

 Normal termination of Gaussian 09 at Thu Feb  9 15:45:45 2017.
