 Gaussian 09, Revision E.01,
 Gaussian 09:  ES64L-G09RevE.01 30-Nov-2015

 ----------------------------------------------------------------------
 #rhf/gen scf(symm,tight,novaracc,noincfock,fulldiag) stable(crhf) geom
 =nocrowd test
 ----------------------------------------------------------------------

 ----------------------------------------------------------------------
 hf stability analysis of h10 triangular lattice, y= 2.0141190606637487
 ----------------------------------------------------------------------
 Symbolic Z-matrix:
 Charge =  0 Multiplicity = 1

                         Standard orientation:
 ---------------------------------------------------------------------
 Center     Atomic      Atomic             Coordinates (Angstroms)
 Number     Number       Type             X           Y           Z
 ---------------------------------------------------------------------
      1          1           0        1.135167    4.924479   -0.000000
      2          1           0        1.135167    2.890064   -0.000000
      3          1           0        0.567584    2.970843   -0.000000
      4          1           0        0.567584    0.936428   -0.000000
      5          1           0       -0.000000    1.017208   -0.000000
      6          1           0       -0.000000   -1.017208   -0.000000
      7          1           0       -0.567584   -0.936428   -0.000000
      8          1           0       -0.567584   -2.970843   -0.000000
      9          1           0       -1.135167   -2.890064   -0.000000
     10          1           0       -1.135167   -4.924479   -0.000000
 ---------------------------------------------------------------------

 SCF Done:  E(RHF) =  -4.78894236902     A.U. after    6 cycles
 E2 =    -0.8188969105D+00 EUMP2 =    -0.56078392795416D+01

 The electronic state is 1-AG.
 Alpha  occ. eigenvalues --   -0.73356  -0.70834  -0.66997  -0.63003  -0.19943
 Alpha virt. eigenvalues --   -0.14656   0.42574   0.49405   0.59315   0.68731

 Mulliken charges:
               1
     1  H   -0.003882
     2  H    0.002266
     3  H    0.001007
     4  H   -0.000202
     5  H    0.000810
     6  H    0.000810
     7  H   -0.000202
     8  H    0.001007
     9  H    0.002266
    10  H   -0.003882
 Sum of Mulliken charges =   0.00000

 Dipole moment (field-independent basis, Debye):
    X=             -0.0000    Y=             -0.0000    Z=              0.0000  Tot=              0.0000
 Quadrupole moment (field-independent basis, Debye-Ang):
   XX=            -12.3788   YY=            -16.9351   ZZ=            -13.2928
   XY=             -1.0195   XZ=             -0.0000   YZ=              0.0000

 Normal termination of Gaussian 09 at Thu Feb  9 15:57:21 2017.
