 Gaussian 09, Revision E.01,
 Gaussian 09:  ES64L-G09RevE.01 30-Nov-2015

 ----------------------------------------------------------------------
 #rhf/gen scf(symm,tight,novaracc,noincfock,fulldiag) stable(crhf) geom
 =nocrowd test
 ----------------------------------------------------------------------

 ----------------------------------------------------------------------
 hf stability analysis of h10 triangular lattice, y= 1.5477808685386352
 ----------------------------------------------------------------------
 Symbolic Z-matrix:
 Charge =  0 Multiplicity = 1

                         Standard orientation:
 ---------------------------------------------------------------------
 Center     Atomic      Atomic             Coordinates (Angstroms)
 Number     Number       Type             X           Y           Z
 ---------------------------------------------------------------------
      1          1           0        1.450542    3.630655   -0.000000
      2          1           0        1.450542    2.038560   -0.000000
      3          1           0        0.725271    2.213352   -0.000000
      4          1           0        0.725271    0.621256   -0.000000
      5          1           0       -0.000000    0.796048    0.000000
      6          1           0       -0.000000   -0.796048    0.000000
      7          1           0       -0.725271   -0.621256   -0.000000
      8          1           0       -0.725271   -2.213352   -0.000000
      9          1           0       -1.450542   -2.038560   -0.000000
     10          1           0       -1.450542   -3.630655   -0.000000
 ---------------------------------------------------------------------

 SCF Done:  E(RHF) =  -4.90229722674     A.U. after    8 cycles
 E2 =    -0.4667081870D+00 EUMP2 =    -0.53690054137282D+01

 The electronic state is 1-AG.
 Alpha  occ. eigenvalues --   -0.76952  -0.70997  -0.61518  -0.49780  -0.15664
 Alpha virt. eigenvalues --   -0.07529   0.21690   0.32137   0.47672   0.62857

 Mulliken charges:
               1
     1  H   -0.091729
     2  H    0.025923
     3  H    0.039469
     4  H    0.009880
     5  H    0.016457
     6  H    0.016457
     7  H    0.009880
     8  H    0.039469
     9  H    0.025923
    10  H   -0.091729
 Sum of Mulliken charges =  -0.00000

 Dipole moment (field-independent basis, Debye):
    X=              0.0000    Y=              0.0000    Z=              0.0000  Tot=              0.0000
 Quadrupole moment (field-independent basis, Debye-Ang):
   XX=            -13.3292   YY=            -26.0407   ZZ=            -12.9406
   XY=             -5.6843   XZ=             -0.0000   YZ=             -0.0000

 Normal termination of Gaussian 09 at Thu Feb  9 15:52:08 2017.
