 Gaussian 09, Revision E.01,
 Gaussian 09:  ES64L-G09RevE.01 30-Nov-2015

 ----------------------------------------------------------------------
 #rhf/gen scf(symm,tight,novaracc,noincfock,fulldiag) stable(crhf) geom
 =nocrowd test
 ----------------------------------------------------------------------

 ----------------------------------------------------------------------
 hf stability analysis of h10 triangular lattice, y= 1.1114477502554549
 ----------------------------------------------------------------------
 Symbolic Z-matrix:
 Charge =  0 Multiplicity = 1

                         Standard orientation:
 ---------------------------------------------------------------------
 Center     Atomic      Atomic             Coordinates (Angstroms)
 Number     Number       Type             X           Y           Z
 ---------------------------------------------------------------------
      1          1           0        1.882388    2.187344   -0.000000
      2          1           0        1.882388    0.960497   -0.000000
      3          1           0        0.941194    1.400384   -0.000000
      4          1           0        0.941194    0.173537    0.000000
      5          1           0       -0.000000    0.613423   -0.000000
      6          1           0       -0.000000   -0.613423    0.000000
      7          1           0       -0.941194   -0.173537    0.000000
      8          1           0       -0.941194   -1.400384    0.000000
      9          1           0       -1.882388   -0.960497    0.000000
     10          1           0       -1.882388   -2.187344    0.000000
 ---------------------------------------------------------------------

 SCF Done:  E(RHF) =  -4.83979528144     A.U. after   10 cycles
 E2 =    -0.1190089400D+00 EUMP2 =    -0.49588042214936D+01

 The electronic state is 1-AG.
 Alpha  occ. eigenvalues --   -0.81670  -0.73440  -0.55333  -0.32726  -0.26916
 Alpha virt. eigenvalues --    0.02539   0.15721   0.24074   0.43805   0.59358

 Mulliken charges:
               1
     1  H   -0.041598
     2  H    0.123554
     3  H    0.112874
     4  H   -0.116930
     5  H   -0.077901
     6  H   -0.077901
     7  H   -0.116930
     8  H    0.112874
     9  H    0.123554
    10  H   -0.041598
 Sum of Mulliken charges =  -0.00000

 Dipole moment (field-independent basis, Debye):
    X=             -0.0000    Y=             -0.0000    Z=              0.0000  Tot=              0.0000
 Quadrupole moment (field-independent basis, Debye-Ang):
   XX=            -12.2553   YY=            -13.8393   ZZ=            -13.1001
   XY=              1.3992   XZ=             -0.0000   YZ=              0.0000

 Normal termination of Gaussian 09 at Thu Feb  9 15:40:59 2017.
