 Gaussian 09, Revision E.01,
 Gaussian 09:  ES64L-G09RevE.01 30-Nov-2015

 ----------------------------------------------------------------------
 #rhf/gen scf(symm,tight,novaracc,noincfock,fulldiag) stable(crhf) geom
 =nocrowd test
 ----------------------------------------------------------------------

 ----------------------------------------------------------------------
 hf stability analysis of h10 triangular lattice, y= 1.0784547582610808
 ----------------------------------------------------------------------
 Symbolic Z-matrix:
 Charge =  0 Multiplicity = 1

                         Standard orientation:
 ---------------------------------------------------------------------
 Center     Atomic      Atomic             Coordinates (Angstroms)
 Number     Number       Type             X           Y           Z
 ---------------------------------------------------------------------
      1          1           0        1.918076    2.057909    0.000000
      2          1           0        1.918076    0.853889    0.000000
      3          1           0        0.959038    1.329959    0.000000
      4          1           0        0.959038    0.125939    0.000000
      5          1           0        0.000000    0.602010    0.000000
      6          1           0       -0.000000   -0.602010   -0.000000
      7          1           0       -0.959038   -0.125939   -0.000000
      8          1           0       -0.959038   -1.329959   -0.000000
      9          1           0       -1.918076   -0.853889   -0.000000
     10          1           0       -1.918076   -2.057909   -0.000000
 ---------------------------------------------------------------------

 SCF Done:  E(RHF) =  -4.85279030244     A.U. after   10 cycles
 E2 =    -0.1166944465D+00 EUMP2 =    -0.49694847489766D+01

 The electronic state is 1-AG.
 Alpha  occ. eigenvalues --   -0.82488  -0.73683  -0.55305  -0.32406  -0.28915
 Alpha virt. eigenvalues --    0.01869   0.17251   0.24430   0.47145   0.58335

 Mulliken charges:
               1
     1  H   -0.060032
     2  H    0.133634
     3  H    0.113197
     4  H   -0.119895
     5  H   -0.066905
     6  H   -0.066905
     7  H   -0.119895
     8  H    0.113197
     9  H    0.133634
    10  H   -0.060032
 Sum of Mulliken charges =   0.00000

 Dipole moment (field-independent basis, Debye):
    X=              0.0000    Y=             -0.0000    Z=             -0.0000  Tot=              0.0000
 Quadrupole moment (field-independent basis, Debye-Ang):
   XX=            -12.5921   YY=            -14.6374   ZZ=            -13.0694
   XY=              0.5749   XZ=              0.0000   YZ=             -0.0000

 Normal termination of Gaussian 09 at Thu Feb  9 15:39:39 2017.
