 Gaussian 09, Revision E.01,
 Gaussian 09:  ES64L-G09RevE.01 30-Nov-2015

 ----------------------------------------------------------------------
 #rhf/gen scf(symm,tight,novaracc,noincfock,fulldiag) stable(crhf) geom
 =nocrowd test
 ----------------------------------------------------------------------

 hf stability analysis of h10 triangular lattice, y= 0.9114264746502563
 9
 ----------------------------------------------------------------------
 Symbolic Z-matrix:
 Charge =  0 Multiplicity = 1

                         Standard orientation:
 ---------------------------------------------------------------------
 Center     Atomic      Atomic             Coordinates (Angstroms)
 Number     Number       Type             X           Y           Z
 ---------------------------------------------------------------------
      1          1           0        2.080654    1.328758   -0.000000
      2          1           0        2.080654    0.218818   -0.000000
      3          1           0        1.040327    0.941864   -0.000000
      4          1           0        1.040327   -0.168076   -0.000000
      5          1           0       -0.000000    0.554970   -0.000000
      6          1           0       -0.000000   -0.554970   -0.000000
      7          1           0       -1.040327    0.168076    0.000000
      8          1           0       -1.040327   -0.941864    0.000000
      9          1           0       -2.080654   -0.218818    0.000000
     10          1           0       -2.080654   -1.328758    0.000000
 ---------------------------------------------------------------------

 SCF Done:  E(RHF) =  -4.86170950870     A.U. after   10 cycles
 E2 =    -0.1128088441D+00 EUMP2 =    -0.49745183527905D+01

 The electronic state is 1-AG.
 Alpha  occ. eigenvalues --   -0.85560  -0.73981  -0.54768  -0.37869  -0.29764
 Alpha virt. eigenvalues --   -0.02063   0.22278   0.27917   0.53729   0.73932

 Mulliken charges:
               1
     1  H   -0.092655
     2  H    0.132243
     3  H    0.082663
     4  H   -0.108870
     5  H   -0.013381
     6  H   -0.013381
     7  H   -0.108870
     8  H    0.082663
     9  H    0.132243
    10  H   -0.092655
 Sum of Mulliken charges =  -0.00000

 Dipole moment (field-independent basis, Debye):
    X=              0.0000    Y=              0.0000    Z=             -0.0000  Tot=              0.0000
 Quadrupole moment (field-independent basis, Debye-Ang):
   XX=            -14.8665   YY=            -14.9502   ZZ=            -12.8924
   XY=             -1.8219   XZ=              0.0000   YZ=              0.0000

 Normal termination of Gaussian 09 at Thu Feb  9 15:31:51 2017.
