 Gaussian 09, Revision E.01,
 Gaussian 09:  ES64L-G09RevE.01 30-Nov-2015

 ----------------------------------------------------------------------
 #rhf/gen scf(symm,tight,novaracc,noincfock,fulldiag) stable(crhf) geom
 =nocrowd test
 ----------------------------------------------------------------------

 ----------------------------------------------------------------------
 hf stability analysis of h10 triangular lattice, y= 1.4477766504653917
 ----------------------------------------------------------------------
 Symbolic Z-matrix:
 Charge =  0 Multiplicity = 1

                         Standard orientation:
 ---------------------------------------------------------------------
 Center     Atomic      Atomic             Coordinates (Angstroms)
 Number     Number       Type             X           Y           Z
 ---------------------------------------------------------------------
      1          1           0        1.537864    3.330638   -0.000000
      2          1           0        1.537864    1.828943   -0.000000
      3          1           0        0.768932    2.040742   -0.000000
      4          1           0        0.768932    0.539048   -0.000000
      5          1           0        0.000000    0.750847    0.000000
      6          1           0       -0.000000   -0.750847   -0.000000
      7          1           0       -0.768932   -0.539048   -0.000000
      8          1           0       -0.768932   -2.040742   -0.000000
      9          1           0       -1.537864   -1.828943   -0.000000
     10          1           0       -1.537864   -3.330638   -0.000000
 ---------------------------------------------------------------------

 SCF Done:  E(RHF) =  -4.85393741602     A.U. after    9 cycles
 E2 =    -0.3564453191D+00 EUMP2 =    -0.52103827351011D+01

 The electronic state is 1-AG.
 Alpha  occ. eigenvalues --   -0.79267  -0.71974  -0.60689  -0.46506  -0.13670
 Alpha virt. eigenvalues --   -0.03803   0.15708   0.27331   0.44156   0.60171

 Mulliken charges:
               1
     1  H   -0.150580
     2  H    0.038039
     3  H    0.064066
     4  H    0.020390
     5  H    0.028085
     6  H    0.028085
     7  H    0.020390
     8  H    0.064066
     9  H    0.038039
    10  H   -0.150580
 Sum of Mulliken charges =  -0.00000

 Dipole moment (field-independent basis, Debye):
    X=             -0.0000    Y=             -0.0000    Z=              0.0000  Tot=              0.0000
 Quadrupole moment (field-independent basis, Debye-Ang):
   XX=            -14.5384   YY=            -29.4903   ZZ=            -12.8685
   XY=             -8.2379   XZ=             -0.0000   YZ=             -0.0000

 Normal termination of Gaussian 09 at Thu Feb  9 15:50:21 2017.
