 Gaussian 09, Revision E.01,
 Gaussian 09:  ES64L-G09RevE.01 30-Nov-2015

 ----------------------------------------------------------------------
 #rhf/gen scf(symm,tight,novaracc,noincfock,fulldiag) stable(crhf) geom
 =nocrowd test
 ----------------------------------------------------------------------

 ----------------------------------------------------------------------
 hf stability analysis of h10 triangular lattice, y= 1.3552522653158787
 ----------------------------------------------------------------------
 Symbolic Z-matrix:
 Charge =  0 Multiplicity = 1

                         Standard orientation:
 ---------------------------------------------------------------------
 Center     Atomic      Atomic             Coordinates (Angstroms)
 Number     Number       Type             X           Y           Z
 ---------------------------------------------------------------------
      1          1           0        1.625616    3.040582   -0.000000
      2          1           0        1.625616    1.619951   -0.000000
      3          1           0        0.812808    1.875449    0.000000
      4          1           0        0.812808    0.454818   -0.000000
      5          1           0        0.000000    0.710316    0.000000
      6          1           0       -0.000000   -0.710316   -0.000000
      7          1           0       -0.812808   -0.454818   -0.000000
      8          1           0       -0.812808   -1.875449   -0.000000
      9          1           0       -1.625616   -1.619951   -0.000000
     10          1           0       -1.625616   -3.040582   -0.000000
 ---------------------------------------------------------------------

 SCF Done:  E(RHF) =  -4.78358516806     A.U. after   11 cycles
 E2 =    -0.2566602463D+00 EUMP2 =    -0.50402454144090D+01

 The electronic state is 1-AG.
 Alpha  occ. eigenvalues --   -0.81937  -0.73211  -0.60006  -0.43337  -0.11757
 Alpha virt. eigenvalues --    0.00472   0.10114   0.22629   0.40631   0.57076

 Mulliken charges:
               1
     1  H   -0.218690
     2  H    0.048215
     3  H    0.098841
     4  H    0.032344
     5  H    0.039291
     6  H    0.039291
     7  H    0.032344
     8  H    0.098841
     9  H    0.048215
    10  H   -0.218690
 Sum of Mulliken charges =  -0.00000

 Dipole moment (field-independent basis, Debye):
    X=             -0.0000    Y=             -0.0000    Z=              0.0000  Tot=              0.0000
 Quadrupole moment (field-independent basis, Debye-Ang):
   XX=            -16.3294   YY=            -31.8463   ZZ=            -12.8112
   XY=            -10.8796   XZ=             -0.0000   YZ=             -0.0000

 Normal termination of Gaussian 09 at Thu Feb  9 15:48:24 2017.
