 Gaussian 09, Revision E.01,
 Gaussian 09:  ES64L-G09RevE.01 30-Nov-2015

 ----------------------------------------------------------------------
 #rhf/gen scf(symm,tight,novaracc,noincfock,fulldiag) stable(crhf) geom
 =nocrowd test
 ----------------------------------------------------------------------

 ----------------------------------------------------------------------
 hf stability analysis of h10 triangular lattice, y= 1.3369783286701415
 ----------------------------------------------------------------------
 Symbolic Z-matrix:
 Charge =  0 Multiplicity = 1

                         Standard orientation:
 ---------------------------------------------------------------------
 Center     Atomic      Atomic             Coordinates (Angstroms)
 Number     Number       Type             X           Y           Z
 ---------------------------------------------------------------------
      1          1           0        1.643717    2.981563    0.000000
      2          1           0        1.643717    1.576575    0.000000
      3          1           0        0.821858    1.842028    0.000000
      4          1           0        0.821858    0.437041    0.000000
      5          1           0        0.000000    0.702494    0.000000
      6          1           0       -0.000000   -0.702494   -0.000000
      7          1           0       -0.821858   -0.437041   -0.000000
      8          1           0       -0.821858   -1.842028   -0.000000
      9          1           0       -1.643717   -1.576575   -0.000000
     10          1           0       -1.643717   -2.981563   -0.000000
 ---------------------------------------------------------------------

 SCF Done:  E(RHF) =  -4.76735200872     A.U. after   11 cycles
 E2 =    -0.2377471871D+00 EUMP2 =    -0.50050991958175D+01

 The electronic state is 1-AG.
 Alpha  occ. eigenvalues --   -0.82471  -0.73469  -0.59859  -0.42667  -0.11457
 Alpha virt. eigenvalues --    0.01209   0.09277   0.21710   0.39939   0.56436

 Mulliken charges:
               1
     1  H   -0.231733
     2  H    0.049196
     3  H    0.107777
     4  H    0.033938
     5  H    0.040822
     6  H    0.040822
     7  H    0.033938
     8  H    0.107777
     9  H    0.049196
    10  H   -0.231733
 Sum of Mulliken charges =  -0.00000

 Dipole moment (field-independent basis, Debye):
    X=             -0.0000    Y=             -0.0000    Z=              0.0000  Tot=              0.0000
 Quadrupole moment (field-independent basis, Debye-Ang):
   XX=            -16.7532   YY=            -32.0100   ZZ=            -12.8023
   XY=            -11.3190   XZ=             -0.0000   YZ=             -0.0000

 Normal termination of Gaussian 09 at Thu Feb  9 15:47:57 2017.
