 Gaussian 09, Revision E.01,
 Gaussian 09:  ES64L-G09RevE.01 30-Nov-2015

 ----------------------------------------------------------------------
 #rhf/gen scf(symm,tight,novaracc,noincfock,fulldiag) stable(crhf) geom
 =nocrowd test
 ----------------------------------------------------------------------

 ----------------------------------------------------------------------
 hf stability analysis of h10 triangular lattice, y= 1.0599066983340624
 ----------------------------------------------------------------------
 Symbolic Z-matrix:
 Charge =  0 Multiplicity = 1

                         Standard orientation:
 ---------------------------------------------------------------------
 Center     Atomic      Atomic             Coordinates (Angstroms)
 Number     Number       Type             X           Y           Z
 ---------------------------------------------------------------------
      1          1           0        1.937925    1.983262   -0.000000
      2          1           0        1.937925    0.791574   -0.000000
      3          1           0        0.968962    1.289553   -0.000000
      4          1           0        0.968962    0.097865   -0.000000
      5          1           0        0.000000    0.595844   -0.000000
      6          1           0       -0.000000   -0.595844   -0.000000
      7          1           0       -0.968962   -0.097865   -0.000000
      8          1           0       -0.968962   -1.289553   -0.000000
      9          1           0       -1.937925   -0.791574   -0.000000
     10          1           0       -1.937925   -1.983262   -0.000000
 ---------------------------------------------------------------------

 SCF Done:  E(RHF) =  -4.85833499598     A.U. after   10 cycles
 E2 =    -0.1155920625D+00 EUMP2 =    -0.49739270584923D+01

 The electronic state is 1-AG.
 Alpha  occ. eigenvalues --   -0.82925  -0.73794  -0.55276  -0.32309  -0.29906
 Alpha virt. eigenvalues --    0.01422   0.18259   0.24423   0.49416   0.57768

 Mulliken charges:
               1
     1  H   -0.069169
     2  H    0.138094
     3  H    0.112879
     4  H   -0.120916
     5  H   -0.060888
     6  H   -0.060888
     7  H   -0.120916
     8  H    0.112879
     9  H    0.138094
    10  H   -0.069169
 Sum of Mulliken charges =  -0.00000

 Dipole moment (field-independent basis, Debye):
    X=              0.0000    Y=             -0.0000    Z=             -0.0000  Tot=              0.0000
 Quadrupole moment (field-independent basis, Debye-Ang):
   XX=            -12.8038   YY=            -14.9680   ZZ=            -13.0511
   XY=              0.1451   XZ=              0.0000   YZ=             -0.0000

 Normal termination of Gaussian 09 at Thu Feb  9 15:38:56 2017.
