 Gaussian 09, Revision E.01,
 Gaussian 09:  ES64L-G09RevE.01 30-Nov-2015

 ----------------------------------------------------------------------
 #rhf/gen scf(symm,tight,novaracc,noincfock,fulldiag) stable(crhf) geom
 =nocrowd test
 ----------------------------------------------------------------------

 ----------------------------------------------------------------------
 hf stability analysis of h10 triangular lattice, y= 1.1606288054921641
 ----------------------------------------------------------------------
 Symbolic Z-matrix:
 Charge =  0 Multiplicity = 1

                         Standard orientation:
 ---------------------------------------------------------------------
 Center     Atomic      Atomic             Coordinates (Angstroms)
 Number     Number       Type             X           Y           Z
 ---------------------------------------------------------------------
      1          1           0        1.828881    2.372990   -0.000000
      2          1           0        1.828881    1.110250   -0.000000
      3          1           0        0.914441    1.502180   -0.000000
      4          1           0        0.914441    0.239440   -0.000000
      5          1           0        0.000000    0.631370   -0.000000
      6          1           0       -0.000000   -0.631370   -0.000000
      7          1           0       -0.914441   -0.239440    0.000000
      8          1           0       -0.914441   -1.502180   -0.000000
      9          1           0       -1.828881   -1.110250    0.000000
     10          1           0       -1.828881   -2.372990   -0.000000
 ---------------------------------------------------------------------

 SCF Done:  E(RHF) =  -4.81314094435     A.U. after   10 cycles
 E2 =    -0.1232114400D+00 EUMP2 =    -0.49363523843717D+01

 The electronic state is 1-AG.
 Alpha  occ. eigenvalues --   -0.80370  -0.72982  -0.55313  -0.33277  -0.23689
 Alpha virt. eigenvalues --    0.02959   0.14341   0.22387   0.40730   0.60904

 Mulliken charges:
               1
     1  H   -0.010050
     2  H    0.103567
     3  H    0.111516
     4  H   -0.109222
     5  H   -0.095811
     6  H   -0.095811
     7  H   -0.109222
     8  H    0.111516
     9  H    0.103567
    10  H   -0.010050
 Sum of Mulliken charges =   0.00000

 Dipole moment (field-independent basis, Debye):
    X=             -0.0000    Y=              0.0000    Z=             -0.0000  Tot=              0.0000
 Quadrupole moment (field-independent basis, Debye-Ang):
   XX=            -11.8566   YY=            -12.1447   ZZ=            -13.1407
   XY=              2.7235   XZ=              0.0000   YZ=             -0.0000

 Normal termination of Gaussian 09 at Thu Feb  9 15:42:47 2017.
