 Gaussian 09, Revision E.01,
 Gaussian 09:  ES64L-G09RevE.01 30-Nov-2015

 ----------------------------------------------------------------------
 #rhf/gen scf(symm,tight,novaracc,noincfock,fulldiag) stable(crhf) geom
 =nocrowd test
 ----------------------------------------------------------------------

 hf stability analysis of h10 triangular lattice, y= 0.8588637428797826
 2
 ----------------------------------------------------------------------
 Symbolic Z-matrix:
 Charge =  0 Multiplicity = 1

                         Standard orientation:
 ---------------------------------------------------------------------
 Center     Atomic      Atomic             Coordinates (Angstroms)
 Number     Number       Type             X           Y           Z
 ---------------------------------------------------------------------
      1          1           0        2.117439    1.069342    0.000000
      2          1           0        2.117439   -0.021316    0.000000
      3          1           0        1.058719    0.807335    0.000000
      4          1           0        1.058719   -0.283322    0.000000
      5          1           0        0.000000    0.545329    0.000000
      6          1           0       -0.000000   -0.545329    0.000000
      7          1           0       -1.058719    0.283322    0.000000
      8          1           0       -1.058719   -0.807335    0.000000
      9          1           0       -2.117439    0.021316    0.000000
     10          1           0       -2.117439   -1.069342    0.000000
 ---------------------------------------------------------------------

 SCF Done:  E(RHF) =  -4.85173161635     A.U. after   10 cycles
 E2 =    -0.1141825248D+00 EUMP2 =    -0.49659141411038D+01

 The electronic state is 1-AG.
 Alpha  occ. eigenvalues --   -0.86050  -0.73799  -0.54552  -0.39548  -0.29120
 Alpha virt. eigenvalues --   -0.02812   0.21460   0.31069   0.52673   0.83080

 Mulliken charges:
               1
     1  H   -0.070654
     2  H    0.105960
     3  H    0.053525
     4  H   -0.091108
     5  H    0.002277
     6  H    0.002277
     7  H   -0.091108
     8  H    0.053525
     9  H    0.105960
    10  H   -0.070654
 Sum of Mulliken charges =  -0.00000

 Dipole moment (field-independent basis, Debye):
    X=              0.0000    Y=              0.0000    Z=              0.0000  Tot=              0.0000
 Quadrupole moment (field-independent basis, Debye-Ang):
   XX=            -15.5457   YY=            -14.2310   ZZ=            -12.8419
   XY=             -1.6287   XZ=              0.0000   YZ=              0.0000

 Normal termination of Gaussian 09 at Thu Feb  9 15:29:00 2017.
