 Gaussian 09, Revision E.01,
 Gaussian 09:  ES64L-G09RevE.01 30-Nov-2015

 ----------------------------------------------------------------------
 #rhf/gen scf(symm,tight,novaracc,noincfock,fulldiag) stable(crhf) geom
 =nocrowd test
 ----------------------------------------------------------------------

 ----------------------------------------------------------------------
 hf stability analysis of h10 triangular lattice, y= 1.7606827729802852
 ----------------------------------------------------------------------
 Symbolic Z-matrix:
 Charge =  0 Multiplicity = 1

                         Standard orientation:
 ---------------------------------------------------------------------
 Center     Atomic      Atomic             Coordinates (Angstroms)
 Number     Number       Type             X           Y           Z
 ---------------------------------------------------------------------
      1          1           0        1.289478    4.237240    0.000000
      2          1           0        1.289478    2.446282    0.000000
      3          1           0        0.644739    2.566360    0.000000
      4          1           0        0.644739    0.775402    0.000000
      5          1           0        0.000000    0.895479    0.000000
      6          1           0       -0.000000   -0.895479    0.000000
      7          1           0       -0.644739   -0.775402    0.000000
      8          1           0       -0.644739   -2.566360    0.000000
      9          1           0       -1.289478   -2.446282    0.000000
     10          1           0       -1.289478   -4.237240    0.000000
 ---------------------------------------------------------------------

 SCF Done:  E(RHF) =  -4.91088243253     A.U. after    7 cycles
 E2 =    -0.6632956541D+00 EUMP2 =    -0.55741780866369D+01

 The electronic state is 1-AG.
 Alpha  occ. eigenvalues --   -0.74262  -0.70266  -0.63851  -0.56436  -0.18494
 Alpha virt. eigenvalues --   -0.12214   0.32346   0.40903   0.53744   0.66349

 Mulliken charges:
               1
     1  H   -0.026222
     2  H    0.009409
     3  H    0.011607
     4  H    0.001081
     5  H    0.004125
     6  H    0.004125
     7  H    0.001081
     8  H    0.011607
     9  H    0.009409
    10  H   -0.026222
 Sum of Mulliken charges =  -0.00000

 Dipole moment (field-independent basis, Debye):
    X=             -0.0000    Y=             -0.0000    Z=             -0.0000  Tot=              0.0000
 Quadrupole moment (field-independent basis, Debye-Ang):
   XX=            -12.3918   YY=            -20.2805   ZZ=            -13.1079
   XY=             -2.4767   XZ=             -0.0000   YZ=              0.0000

 Normal termination of Gaussian 09 at Thu Feb  9 15:55:01 2017.
