 Gaussian 09, Revision E.01,
 Gaussian 09:  ES64L-G09RevE.01 30-Nov-2015

 ----------------------------------------------------------------------
 #rhf/gen scf(symm,tight,novaracc,noincfock,fulldiag) stable(crhf) geom
 =nocrowd test
 ----------------------------------------------------------------------

 ----------------------------------------------------------------------
 hf stability analysis of h10 triangular lattice, y= 1.3961024673370386
 ----------------------------------------------------------------------
 Symbolic Z-matrix:
 Charge =  0 Multiplicity = 1

                         Standard orientation:
 ---------------------------------------------------------------------
 Center     Atomic      Atomic             Coordinates (Angstroms)
 Number     Number       Type             X           Y           Z
 ---------------------------------------------------------------------
      1          1           0        1.586058    3.170347    0.000000
      2          1           0        1.586058    1.714283    0.000000
      3          1           0        0.793029    1.949189    0.000000
      4          1           0        0.793029    0.493126    0.000000
      5          1           0       -0.000000    0.728032    0.000000
      6          1           0       -0.000000   -0.728032    0.000000
      7          1           0       -0.793029   -0.493126    0.000000
      8          1           0       -0.793029   -1.949189    0.000000
      9          1           0       -1.586058   -1.714283    0.000000
     10          1           0       -1.586058   -3.170347    0.000000
 ---------------------------------------------------------------------

 SCF Done:  E(RHF) =  -4.81740378539     A.U. after   10 cycles
 E2 =    -0.2999748632D+00 EUMP2 =    -0.51173786486297D+01

 The electronic state is 1-AG.
 Alpha  occ. eigenvalues --   -0.80724  -0.72637  -0.60310  -0.44769  -0.12563
 Alpha virt. eigenvalues --   -0.01445   0.12479   0.24713   0.42200   0.58494

 Mulliken charges:
               1
     1  H   -0.187960
     2  H    0.044349
     3  H    0.081563
     4  H    0.027292
     5  H    0.034756
     6  H    0.034756
     7  H    0.027292
     8  H    0.081563
     9  H    0.044349
    10  H   -0.187960
 Sum of Mulliken charges =   0.00000

 Dipole moment (field-independent basis, Debye):
    X=              0.0000    Y=              0.0000    Z=             -0.0000  Tot=              0.0000
 Quadrupole moment (field-independent basis, Debye-Ang):
   XX=            -15.4568   YY=            -31.0306   ZZ=            -12.8346
   XY=             -9.7412   XZ=              0.0000   YZ=             -0.0000

 Normal termination of Gaussian 09 at Thu Feb  9 15:49:18 2017.
