 Gaussian 09, Revision E.01,
 Gaussian 09:  ES64L-G09RevE.01 30-Nov-2015

 ----------------------------------------------------------------------
 #rhf/gen scf(symm,tight,novaracc,noincfock,fulldiag) stable(crhf) geom
 =nocrowd test
 ----------------------------------------------------------------------

 ----------------------------------------------------------------------
 hf stability analysis of h10 triangular lattice, y= 1.0010087169869311
 ----------------------------------------------------------------------
 Symbolic Z-matrix:
 Charge =  0 Multiplicity = 1

                         Standard orientation:
 ---------------------------------------------------------------------
 Center     Atomic      Atomic             Coordinates (Angstroms)
 Number     Number       Type             X           Y           Z
 ---------------------------------------------------------------------
      1          1           0        1.998991    1.736416    0.000000
      2          1           0        1.998991    0.581132   -0.000000
      3          1           0        0.999495    1.157029    0.000000
      4          1           0        0.999495    0.001745   -0.000000
      5          1           0        0.000000    0.577642    0.000000
      6          1           0       -0.000000   -0.577642    0.000000
      7          1           0       -0.999495   -0.001745   -0.000000
      8          1           0       -0.999495   -1.157029   -0.000000
      9          1           0       -1.998991   -0.581132   -0.000000
     10          1           0       -1.998991   -1.736416   -0.000000
 ---------------------------------------------------------------------

 SCF Done:  E(RHF) =  -4.86773163446     A.U. after   10 cycles
 E2 =    -0.1131543332D+00 EUMP2 =    -0.49808859676601D+01

 The electronic state is 1-AG.
 Alpha  occ. eigenvalues --   -0.84171  -0.74019  -0.55123  -0.33924  -0.30843
 Alpha virt. eigenvalues --   -0.00094   0.21911   0.23812   0.56037   0.58097

 Mulliken charges:
               1
     1  H   -0.090676
     2  H    0.145675
     3  H    0.108036
     4  H   -0.121005
     5  H   -0.042029
     6  H   -0.042029
     7  H   -0.121005
     8  H    0.108036
     9  H    0.145675
    10  H   -0.090676
 Sum of Mulliken charges =  -0.00000

 Dipole moment (field-independent basis, Debye):
    X=              0.0000    Y=             -0.0000    Z=             -0.0000  Tot=              0.0000
 Quadrupole moment (field-independent basis, Debye-Ang):
   XX=            -13.5683   YY=            -15.4802   ZZ=            -12.9894
   XY=             -1.0003   XZ=             -0.0000   YZ=             -0.0000

 Normal termination of Gaussian 09 at Thu Feb  9 15:36:14 2017.
