 Gaussian 09, Revision E.01,
 Gaussian 09:  ES64L-G09RevE.01 30-Nov-2015

 ----------------------------------------------------------------------
 #rhf/gen scf(symm,tight,novaracc,noincfock,fulldiag) stable(crhf) geom
 =nocrowd test
 ----------------------------------------------------------------------

 ----------------------------------------------------------------------
 hf stability analysis of h10 triangular lattice, y= 1.6410663881694845
 ----------------------------------------------------------------------
 Symbolic Z-matrix:
 Charge =  0 Multiplicity = 1

                         Standard orientation:
 ---------------------------------------------------------------------
 Center     Atomic      Atomic             Coordinates (Angstroms)
 Number     Number       Type             X           Y           Z
 ---------------------------------------------------------------------
      1          1           0        1.375992    3.900898   -0.000000
      2          1           0        1.375992    2.222544   -0.000000
      3          1           0        0.687996    2.370037   -0.000000
      4          1           0        0.687996    0.691683   -0.000000
      5          1           0       -0.000000    0.839177   -0.000000
      6          1           0       -0.000000   -0.839177   -0.000000
      7          1           0       -0.687996   -0.691683   -0.000000
      8          1           0       -0.687996   -2.370037   -0.000000
      9          1           0       -1.375992   -2.222544   -0.000000
     10          1           0       -1.375992   -3.900898   -0.000000
 ---------------------------------------------------------------------

 SCF Done:  E(RHF) =  -4.92096093603     A.U. after    8 cycles
 E2 =    -0.5616964925D+00 EUMP2 =    -0.54826574285428D+01

 The electronic state is 1-AG.
 Alpha  occ. eigenvalues --   -0.75446  -0.70475  -0.62456  -0.52774  -0.17145
 Alpha virt. eigenvalues --   -0.10033   0.26684   0.36214   0.50555   0.64692

 Mulliken charges:
               1
     1  H   -0.054475
     2  H    0.017022
     3  H    0.024021
     4  H    0.004268
     5  H    0.009164
     6  H    0.009164
     7  H    0.004268
     8  H    0.024021
     9  H    0.017022
    10  H   -0.054475
 Sum of Mulliken charges =  -0.00000

 Dipole moment (field-independent basis, Debye):
    X=              0.0000    Y=              0.0000    Z=              0.0000  Tot=              0.0000
 Quadrupole moment (field-independent basis, Debye-Ang):
   XX=            -12.7220   YY=            -23.1168   ZZ=            -13.0127
   XY=             -3.9365   XZ=              0.0000   YZ=              0.0000

 Normal termination of Gaussian 09 at Thu Feb  9 15:53:32 2017.
