 Gaussian 09, Revision E.01,
 Gaussian 09:  ES64L-G09RevE.01 30-Nov-2015

 ----------------------------------------------------------------------
 #rhf/gen scf(symm,tight,novaracc,noincfock,fulldiag) stable(crhf) geom
 =nocrowd test
 ----------------------------------------------------------------------

 hf stability analysis of h10 triangular lattice, y= 0.9649718738094806
 8
 ----------------------------------------------------------------------
 Symbolic Z-matrix:
 Charge =  0 Multiplicity = 1

                         Standard orientation:
 ---------------------------------------------------------------------
 Center     Atomic      Atomic             Coordinates (Angstroms)
 Number     Number       Type             X           Y           Z
 ---------------------------------------------------------------------
      1          1           0        2.033990    1.577384   -0.000000
      2          1           0        2.033990    0.441979   -0.000000
      3          1           0        1.016995    1.072543   -0.000000
      4          1           0        1.016995   -0.062861   -0.000000
      5          1           0       -0.000000    0.567702   -0.000000
      6          1           0       -0.000000   -0.567702   -0.000000
      7          1           0       -1.016995    0.062861   -0.000000
      8          1           0       -1.016995   -1.072543   -0.000000
      9          1           0       -2.033990   -0.441979   -0.000000
     10          1           0       -2.033990   -1.577384   -0.000000
 ---------------------------------------------------------------------

 SCF Done:  E(RHF) =  -4.86780756158     A.U. after   10 cycles
 E2 =    -0.1125269731D+00 EUMP2 =    -0.49803345346498D+01

 The electronic state is 1-AG.
 Alpha  occ. eigenvalues --   -0.84810  -0.74056  -0.54992  -0.35624  -0.30456
 Alpha virt. eigenvalues --   -0.00970   0.23218   0.24330   0.55049   0.64235

 Mulliken charges:
               1
     1  H   -0.096707
     2  H    0.144433
     3  H    0.101018
     4  H   -0.118270
     5  H   -0.030474
     6  H   -0.030474
     7  H   -0.118270
     8  H    0.101018
     9  H    0.144433
    10  H   -0.096707
 Sum of Mulliken charges =  -0.00000

 Dipole moment (field-independent basis, Debye):
    X=              0.0000    Y=             -0.0000    Z=             -0.0000  Tot=              0.0000
 Quadrupole moment (field-independent basis, Debye-Ang):
   XX=            -14.0861   YY=            -15.4271   ZZ=            -12.9501
   XY=             -1.4872   XZ=             -0.0000   YZ=             -0.0000

 Normal termination of Gaussian 09 at Thu Feb  9 15:34:28 2017.
