 Gaussian 09, Revision E.01,
 Gaussian 09:  ES64L-G09RevE.01 30-Nov-2015

 ----------------------------------------------------------------------
 #rhf/gen scf(symm,tight,novaracc,noincfock,fulldiag) stable(crhf) geom
 =nocrowd test
 ----------------------------------------------------------------------

 hf stability analysis of h10 triangular lattice, y= 0.9668556302504148
 8
 ----------------------------------------------------------------------
 Symbolic Z-matrix:
 Charge =  0 Multiplicity = 1

                         Standard orientation:
 ---------------------------------------------------------------------
 Center     Atomic      Atomic             Coordinates (Angstroms)
 Number     Number       Type             X           Y           Z
 ---------------------------------------------------------------------
      1          1           0        2.032221    1.585857   -0.000000
      2          1           0        2.032221    0.449464   -0.000000
      3          1           0        1.016110    1.077027   -0.000000
      4          1           0        1.016110   -0.059366    0.000000
      5          1           0        0.000000    0.568196   -0.000000
      6          1           0       -0.000000   -0.568196    0.000000
      7          1           0       -1.016110    0.059366   -0.000000
      8          1           0       -1.016110   -1.077027   -0.000000
      9          1           0       -2.032221   -0.449464   -0.000000
     10          1           0       -2.032221   -1.585857   -0.000000
 ---------------------------------------------------------------------

 SCF Done:  E(RHF) =  -4.86789822916     A.U. after   10 cycles
 E2 =    -0.1125430098D+00 EUMP2 =    -0.49804412389754D+01

 The electronic state is 1-AG.
 Alpha  occ. eigenvalues --   -0.84779  -0.74056  -0.54999  -0.35537  -0.30479
 Alpha virt. eigenvalues --   -0.00927   0.23251   0.24202   0.55099   0.63903

 Mulliken charges:
               1
     1  H   -0.096551
     2  H    0.144626
     3  H    0.101480
     4  H   -0.118475
     5  H   -0.031079
     6  H   -0.031079
     7  H   -0.118475
     8  H    0.101480
     9  H    0.144626
    10  H   -0.096551
 Sum of Mulliken charges =   0.00000

 Dipole moment (field-independent basis, Debye):
    X=             -0.0000    Y=              0.0000    Z=             -0.0000  Tot=              0.0000
 Quadrupole moment (field-independent basis, Debye-Ang):
   XX=            -14.0585   YY=            -15.4359   ZZ=            -12.9521
   XY=             -1.4665   XZ=              0.0000   YZ=              0.0000

 Normal termination of Gaussian 09 at Thu Feb  9 15:34:33 2017.
