 Gaussian 09, Revision E.01,
 Gaussian 09:  ES64L-G09RevE.01 30-Nov-2015

 ----------------------------------------------------------------------
 #rhf/gen scf(symm,tight,novaracc,noincfock,fulldiag) stable(crhf) geom
 =nocrowd test
 ----------------------------------------------------------------------

 ----------------------------------------------------------------------
 hf stability analysis of h10 triangular lattice, y= 1.1216686379156546
 ----------------------------------------------------------------------
 Symbolic Z-matrix:
 Charge =  0 Multiplicity = 1

                         Standard orientation:
 ---------------------------------------------------------------------
 Center     Atomic      Atomic             Coordinates (Angstroms)
 Number     Number       Type             X           Y           Z
 ---------------------------------------------------------------------
      1          1           0        1.871276    2.226617   -0.000000
      2          1           0        1.871276    0.992485   -0.000000
      3          1           0        0.935638    1.421842   -0.000000
      4          1           0        0.935638    0.187710   -0.000000
      5          1           0       -0.000000    0.617066   -0.000000
      6          1           0       -0.000000   -0.617066    0.000000
      7          1           0       -0.935638   -0.187710   -0.000000
      8          1           0       -0.935638   -1.421842   -0.000000
      9          1           0       -1.871276   -0.992485   -0.000000
     10          1           0       -1.871276   -2.226617   -0.000000
 ---------------------------------------------------------------------

 SCF Done:  E(RHF) =  -4.83496206904     A.U. after   10 cycles
 E2 =    -0.1198115442D+00 EUMP2 =    -0.49547736132281D+01

 The electronic state is 1-AG.
 Alpha  occ. eigenvalues --   -0.81407  -0.73354  -0.55334  -0.32837  -0.26264
 Alpha virt. eigenvalues --    0.02696   0.15334   0.23845   0.42972   0.59678

 Mulliken charges:
               1
     1  H   -0.035399
     2  H    0.119895
     3  H    0.112622
     4  H   -0.115689
     5  H   -0.081430
     6  H   -0.081430
     7  H   -0.115689
     8  H    0.112622
     9  H    0.119895
    10  H   -0.035399
 Sum of Mulliken charges =  -0.00000

 Dipole moment (field-independent basis, Debye):
    X=             -0.0000    Y=              0.0000    Z=             -0.0000  Tot=              0.0000
 Quadrupole moment (field-independent basis, Debye-Ang):
   XX=            -12.1619   YY=            -13.5369   ZZ=            -13.1091
   XY=              1.6670   XZ=             -0.0000   YZ=              0.0000

 Normal termination of Gaussian 09 at Thu Feb  9 15:41:22 2017.
