 Gaussian 09, Revision E.01,
 Gaussian 09:  ES64L-G09RevE.01 30-Nov-2015

 ----------------------------------------------------------------------
 #rhf/gen scf(symm,tight,novaracc,noincfock,fulldiag) stable(crhf) geom
 =nocrowd test
 ----------------------------------------------------------------------

 hf stability analysis of h10 triangular lattice, y= 0.8769027329637844
 0
 ----------------------------------------------------------------------
 Symbolic Z-matrix:
 Charge =  0 Multiplicity = 1

                         Standard orientation:
 ---------------------------------------------------------------------
 Center     Atomic      Atomic             Coordinates (Angstroms)
 Number     Number       Type             X           Y           Z
 ---------------------------------------------------------------------
      1          1           0        2.106041    1.160142    0.000000
      2          1           0        2.106041    0.063581    0.000000
      3          1           0        1.053020    0.854211    0.000000
      4          1           0        1.053020   -0.242350    0.000000
      5          1           0        0.000000    0.548280   -0.000000
      6          1           0       -0.000000   -0.548280   -0.000000
      7          1           0       -1.053020    0.242350    0.000000
      8          1           0       -1.053020   -0.854211    0.000000
      9          1           0       -2.106041   -0.063581    0.000000
     10          1           0       -2.106041   -1.160142    0.000000
 ---------------------------------------------------------------------

 SCF Done:  E(RHF) =  -4.85532375673     A.U. after   11 cycles
 E2 =    -0.1136297274D+00 EUMP2 =    -0.49689534841741D+01

 The electronic state is 1-AG.
 Alpha  occ. eigenvalues --   -0.85909  -0.73869  -0.54623  -0.39039  -0.29329
 Alpha virt. eigenvalues --   -0.02594   0.21719   0.30058   0.53003   0.80081

 Mulliken charges:
               1
     1  H   -0.080345
     2  H    0.116703
     3  H    0.064825
     4  H   -0.098340
     5  H   -0.002843
     6  H   -0.002843
     7  H   -0.098340
     8  H    0.064825
     9  H    0.116703
    10  H   -0.080345
 Sum of Mulliken charges =  -0.00000

 Dipole moment (field-independent basis, Debye):
    X=             -0.0000    Y=              0.0000    Z=              0.0000  Tot=              0.0000
 Quadrupole moment (field-independent basis, Debye-Ang):
   XX=            -15.3302   YY=            -14.4874   ZZ=            -12.8581
   XY=             -1.7554   XZ=              0.0000   YZ=              0.0000

 Normal termination of Gaussian 09 at Thu Feb  9 15:30:00 2017.
