 Gaussian 09, Revision E.01,
 Gaussian 09:  ES64L-G09RevE.01 30-Nov-2015

 ----------------------------------------------------------------------
 #rhf/gen scf(symm,tight,novaracc,noincfock,fulldiag) stable(crhf) geom
 =nocrowd test
 ----------------------------------------------------------------------

 ----------------------------------------------------------------------
 hf stability analysis of h10 triangular lattice, y= 1.1454817383776770
 ----------------------------------------------------------------------
 Symbolic Z-matrix:
 Charge =  0 Multiplicity = 1

                         Standard orientation:
 ---------------------------------------------------------------------
 Center     Atomic      Atomic             Coordinates (Angstroms)
 Number     Number       Type             X           Y           Z
 ---------------------------------------------------------------------
      1          1           0        1.845356    2.316690    0.000000
      2          1           0        1.845356    1.065224    0.000000
      3          1           0        0.922678    1.471212    0.000000
      4          1           0        0.922678    0.219745    0.000000
      5          1           0        0.000000    0.625733    0.000000
      6          1           0       -0.000000   -0.625733   -0.000000
      7          1           0       -0.922678   -0.219745    0.000000
      8          1           0       -0.922678   -1.471212    0.000000
      9          1           0       -1.845356   -1.065224    0.000000
     10          1           0       -1.845356   -2.316690    0.000000
 ---------------------------------------------------------------------

 SCF Done:  E(RHF) =  -4.82225244309     A.U. after   10 cycles
 E2 =    -0.1218274472D+00 EUMP2 =    -0.49440798903320D+01

 The electronic state is 1-AG.
 Alpha  occ. eigenvalues --   -0.80779  -0.73134  -0.55327  -0.33104  -0.24705
 Alpha virt. eigenvalues --    0.02928   0.14627   0.23064   0.41427   0.60426

 Mulliken charges:
               1
     1  H   -0.020199
     2  H    0.110379
     3  H    0.111928
     4  H   -0.112105
     5  H   -0.090003
     6  H   -0.090003
     7  H   -0.112105
     8  H    0.111928
     9  H    0.110379
    10  H   -0.020199
 Sum of Mulliken charges =  -0.00000

 Dipole moment (field-independent basis, Debye):
    X=              0.0000    Y=             -0.0000    Z=              0.0000  Tot=              0.0000
 Quadrupole moment (field-independent basis, Debye-Ang):
   XX=            -11.9654   YY=            -12.7308   ZZ=            -13.1289
   XY=              2.3075   XZ=              0.0000   YZ=             -0.0000

 Normal termination of Gaussian 09 at Thu Feb  9 15:42:15 2017.
