 Gaussian 09, Revision E.01,
 Gaussian 09:  ES64L-G09RevE.01 30-Nov-2015

 ----------------------------------------------------------------------
 #rhf/gen scf(symm,tight,novaracc,noincfock,fulldiag) stable(crhf) geom
 =nocrowd test
 ----------------------------------------------------------------------

 ----------------------------------------------------------------------
 hf stability analysis of h10 triangular lattice, y= 2.2086216254199424
 ----------------------------------------------------------------------
 Symbolic Z-matrix:
 Charge =  0 Multiplicity = 1

                         Standard orientation:
 ---------------------------------------------------------------------
 Center     Atomic      Atomic             Coordinates (Angstroms)
 Number     Number       Type             X           Y           Z
 ---------------------------------------------------------------------
      1          1           0        1.038383    5.437193    0.000000
      2          1           0        1.038383    3.213156   -0.000000
      3          1           0        0.519191    3.274606    0.000000
      4          1           0        0.519191    1.050568   -0.000000
      5          1           0       -0.000000    1.112019    0.000000
      6          1           0       -0.000000   -1.112019    0.000000
      7          1           0       -0.519191   -1.050568   -0.000000
      8          1           0       -0.519191   -3.274606   -0.000000
      9          1           0       -1.038383   -3.213156   -0.000000
     10          1           0       -1.038383   -5.437193   -0.000000
 ---------------------------------------------------------------------

 SCF Done:  E(RHF) =  -4.62933880147     A.U. after    5 cycles
 E2 =    -0.9126043127D+00 EUMP2 =    -0.55419431141636D+01

 The electronic state is 1-AG.
 Alpha  occ. eigenvalues --   -0.73411  -0.71697  -0.69225  -0.66836  -0.20363
 Alpha virt. eigenvalues --   -0.15571   0.49400   0.55055   0.63024   0.70382

 Mulliken charges:
               1
     1  H    0.000292
     2  H    0.000519
     3  H   -0.000915
     4  H   -0.000168
     5  H    0.000272
     6  H    0.000272
     7  H   -0.000168
     8  H   -0.000915
     9  H    0.000519
    10  H    0.000292
 Sum of Mulliken charges =  -0.00000

 Dipole moment (field-independent basis, Debye):
    X=             -0.0000    Y=              0.0000    Z=             -0.0000  Tot=              0.0000
 Quadrupole moment (field-independent basis, Debye-Ang):
   XX=            -12.5382   YY=            -15.6635   ZZ=            -13.4023
   XY=             -0.5579   XZ=             -0.0000   YZ=             -0.0000

 Normal termination of Gaussian 09 at Thu Feb  9 15:58:37 2017.
