 Gaussian 09, Revision E.01,
 Gaussian 09:  ES64L-G09RevE.01 30-Nov-2015

 ----------------------------------------------------------------------
 #rhf/gen scf(symm,tight,novaracc,noincfock,fulldiag) stable(crhf) geom
 =nocrowd test
 ----------------------------------------------------------------------

 ----------------------------------------------------------------------
 hf stability analysis of h10 triangular lattice, y= 1.0442341629298113
 ----------------------------------------------------------------------
 Symbolic Z-matrix:
 Charge =  0 Multiplicity = 1

                         Standard orientation:
 ---------------------------------------------------------------------
 Center     Atomic      Atomic             Coordinates (Angstroms)
 Number     Number       Type             X           Y           Z
 ---------------------------------------------------------------------
      1          1           0        1.954513    1.919073    0.000000
      2          1           0        1.954513    0.737499    0.000000
      3          1           0        0.977257    1.254930    0.000000
      4          1           0        0.977257    0.073356    0.000000
      5          1           0       -0.000000    0.590787    0.000000
      6          1           0       -0.000000   -0.590787    0.000000
      7          1           0       -0.977257   -0.073356    0.000000
      8          1           0       -0.977257   -1.254930    0.000000
      9          1           0       -1.954513   -0.737499    0.000000
     10          1           0       -1.954513   -1.919073    0.000000
 ---------------------------------------------------------------------

 SCF Done:  E(RHF) =  -4.86203750438     A.U. after   10 cycles
 E2 =    -0.1147805521D+00 EUMP2 =    -0.49768180564563D+01

 The electronic state is 1-AG.
 Alpha  occ. eigenvalues --   -0.83278  -0.73874  -0.55244  -0.32384  -0.30555
 Alpha virt. eigenvalues --    0.01023   0.19174   0.24332   0.51525   0.57297

 Mulliken charges:
               1
     1  H   -0.076090
     2  H    0.141137
     3  H    0.112227
     4  H   -0.121422
     5  H   -0.055852
     6  H   -0.055852
     7  H   -0.121422
     8  H    0.112227
     9  H    0.141137
    10  H   -0.076090
 Sum of Mulliken charges =  -0.00000

 Dipole moment (field-independent basis, Debye):
    X=             -0.0000    Y=             -0.0000    Z=              0.0000  Tot=              0.0000
 Quadrupole moment (field-independent basis, Debye-Ang):
   XX=            -12.9944   YY=            -15.1825   ZZ=            -13.0352
   XY=             -0.1952   XZ=              0.0000   YZ=              0.0000

 Normal termination of Gaussian 09 at Thu Feb  9 15:38:14 2017.
