 Gaussian 09, Revision E.01,
 Gaussian 09:  ES64L-G09RevE.01 30-Nov-2015

 ----------------------------------------------------------------------
 #rhf/gen scf(symm,tight,novaracc,noincfock,fulldiag) stable(crhf) geom
 =nocrowd test
 ----------------------------------------------------------------------

 ----------------------------------------------------------------------
 hf stability analysis of h10 triangular lattice, y= 1.2930606134246510
 ----------------------------------------------------------------------
 Symbolic Z-matrix:
 Charge =  0 Multiplicity = 1

                         Standard orientation:
 ---------------------------------------------------------------------
 Center     Atomic      Atomic             Coordinates (Angstroms)
 Number     Number       Type             X           Y           Z
 ---------------------------------------------------------------------
      1          1           0        1.688184    2.837011    0.000000
      2          1           0        1.688184    1.469032    0.000000
      3          1           0        0.844092    1.760500    0.000000
      4          1           0        0.844092    0.392521    0.000000
      5          1           0        0.000000    0.683990    0.000000
      6          1           0       -0.000000   -0.683990    0.000000
      7          1           0       -0.844092   -0.392521    0.000000
      8          1           0       -0.844092   -1.760500    0.000000
      9          1           0       -1.688184   -1.469032    0.000000
     10          1           0       -1.688184   -2.837011    0.000000
 ---------------------------------------------------------------------

 SCF Done:  E(RHF) =  -4.72710985464     A.U. after   12 cycles
 E2 =    -0.1944164185D+00 EUMP2 =    -0.49215262731604D+01

 The electronic state is 1-AG.
 Alpha  occ. eigenvalues --   -0.83617  -0.74034  -0.59422  -0.40932  -0.11074
 Alpha virt. eigenvalues --    0.01687   0.08946   0.19621   0.38370   0.54989

 Mulliken charges:
               1
     1  H   -0.255815
     2  H    0.047891
     3  H    0.131957
     4  H    0.033016
     5  H    0.042950
     6  H    0.042950
     7  H    0.033016
     8  H    0.131957
     9  H    0.047891
    10  H   -0.255815
 Sum of Mulliken charges =  -0.00000

 Dipole moment (field-independent basis, Debye):
    X=             -0.0000    Y=              0.0000    Z=             -0.0000  Tot=              0.0000
 Quadrupole moment (field-independent basis, Debye-Ang):
   XX=            -17.7883   YY=            -31.5584   ZZ=            -12.7886
   XY=            -11.9422   XZ=             -0.0000   YZ=             -0.0000

 Normal termination of Gaussian 09 at Thu Feb  9 15:46:50 2017.
