 Gaussian 09, Revision E.01,
 Gaussian 09:  ES64L-G09RevE.01 30-Nov-2015

 ----------------------------------------------------------------------
 #rhf/gen scf(symm,tight,novaracc,noincfock,fulldiag) stable(crhf) geom
 =nocrowd test
 ----------------------------------------------------------------------

 ----------------------------------------------------------------------
 hf stability analysis of h10 triangular lattice, y= 2.2423922311771953
 ----------------------------------------------------------------------
 Symbolic Z-matrix:
 Charge =  0 Multiplicity = 1

                         Standard orientation:
 ---------------------------------------------------------------------
 Center     Atomic      Atomic             Coordinates (Angstroms)
 Number     Number       Type             X           Y           Z
 ---------------------------------------------------------------------
      1          1           0        1.023161    5.525334    0.000000
      2          1           0        1.023161    3.268209    0.000000
      3          1           0        0.511580    3.326948    0.000000
      4          1           0        0.511580    1.069823    0.000000
      5          1           0        0.000000    1.128563    0.000000
      6          1           0       -0.000000   -1.128563    0.000000
      7          1           0       -0.511580   -1.069823    0.000000
      8          1           0       -0.511580   -3.326948    0.000000
      9          1           0       -1.023161   -3.268209    0.000000
     10          1           0       -1.023161   -5.525334    0.000000
 ---------------------------------------------------------------------

 SCF Done:  E(RHF) =  -4.59737589901     A.U. after    5 cycles
 E2 =    -0.9279583915D+00 EUMP2 =    -0.55253342905059D+01

 The electronic state is 1-AG.
 Alpha  occ. eigenvalues --   -0.73459  -0.71864  -0.69584  -0.67407  -0.20404
 Alpha virt. eigenvalues --   -0.15685   0.50514   0.55977   0.63638   0.70680

 Mulliken charges:
               1
     1  H    0.000594
     2  H    0.000361
     3  H   -0.001030
     4  H   -0.000153
     5  H    0.000228
     6  H    0.000228
     7  H   -0.000153
     8  H   -0.001030
     9  H    0.000361
    10  H    0.000594
 Sum of Mulliken charges =   0.00000

 Dipole moment (field-independent basis, Debye):
    X=             -0.0000    Y=             -0.0000    Z=              0.0000  Tot=              0.0000
 Quadrupole moment (field-independent basis, Debye-Ang):
   XX=            -12.5678   YY=            -15.5045   ZZ=            -13.4181
   XY=             -0.5052   XZ=             -0.0000   YZ=              0.0000

 Normal termination of Gaussian 09 at Thu Feb  9 15:58:48 2017.
