 Gaussian 09, Revision E.01,
 Gaussian 09:  ES64L-G09RevE.01 30-Nov-2015

 ----------------------------------------------------------------------
 #rhf/gen scf(symm,tight,novaracc,noincfock,fulldiag) stable(crhf) geom
 =nocrowd test
 ----------------------------------------------------------------------

 ----------------------------------------------------------------------
 hf stability analysis of h10 triangular lattice, y= 1.2184637462790018
 ----------------------------------------------------------------------
 Symbolic Z-matrix:
 Charge =  0 Multiplicity = 1

                         Standard orientation:
 ---------------------------------------------------------------------
 Center     Atomic      Atomic             Coordinates (Angstroms)
 Number     Number       Type             X           Y           Z
 ---------------------------------------------------------------------
      1          1           0        1.766470    2.581441    0.000000
      2          1           0        1.766470    1.274087    0.000000
      3          1           0        0.883235    1.617559    0.000000
      4          1           0        0.883235    0.310205    0.000000
      5          1           0        0.000000    0.653677    0.000000
      6          1           0       -0.000000   -0.653677    0.000000
      7          1           0       -0.883235   -0.310205   -0.000000
      8          1           0       -0.883235   -1.617559   -0.000000
      9          1           0       -1.766470   -1.274087   -0.000000
     10          1           0       -1.766470   -2.581441   -0.000000
 ---------------------------------------------------------------------

 SCF Done:  E(RHF) =  -4.77163815481     A.U. after   11 cycles
 E2 =    -0.1292269200D+00 EUMP2 =    -0.49008650747640D+01

 The electronic state is 1-AG.
 Alpha  occ. eigenvalues --   -0.78763  -0.72316  -0.55203  -0.33965  -0.19681
 Alpha virt. eigenvalues --    0.02140   0.14508   0.18809   0.39773   0.62711

 Mulliken charges:
               1
     1  H    0.031112
     2  H    0.070381
     3  H    0.112480
     4  H   -0.091041
     5  H   -0.122931
     6  H   -0.122931
     7  H   -0.091041
     8  H    0.112480
     9  H    0.070381
    10  H    0.031112
 Sum of Mulliken charges =  -0.00000

 Dipole moment (field-independent basis, Debye):
    X=              0.0000    Y=              0.0000    Z=             -0.0000  Tot=              0.0000
 Quadrupole moment (field-independent basis, Debye-Ang):
   XX=            -11.5820   YY=             -9.4093   ZZ=            -13.1780
   XY=              4.3055   XZ=              0.0000   YZ=              0.0000

 Normal termination of Gaussian 09 at Thu Feb  9 15:44:41 2017.
