 Gaussian 09, Revision E.01,
 Gaussian 09:  ES64L-G09RevE.01 30-Nov-2015

 ----------------------------------------------------------------------
 #rhf/gen scf(symm,tight,novaracc,noincfock,fulldiag) stable(crhf) geom
 =nocrowd test
 ----------------------------------------------------------------------

 hf stability analysis of h10 triangular lattice, y= 0.8627372259402686
 9
 ----------------------------------------------------------------------
 Symbolic Z-matrix:
 Charge =  0 Multiplicity = 1

                         Standard orientation:
 ---------------------------------------------------------------------
 Center     Atomic      Atomic             Coordinates (Angstroms)
 Number     Number       Type             X           Y           Z
 ---------------------------------------------------------------------
      1          1           0        2.115111    1.088997   -0.000000
      2          1           0        2.115111   -0.002861   -0.000000
      3          1           0        1.057555    0.817463   -0.000000
      4          1           0        1.057555   -0.274395   -0.000000
      5          1           0        0.000000    0.545929    0.000000
      6          1           0       -0.000000   -0.545929    0.000000
      7          1           0       -1.057555    0.274395   -0.000000
      8          1           0       -1.057555   -0.817463   -0.000000
      9          1           0       -2.115111    0.002861   -0.000000
     10          1           0       -2.115111   -1.088997   -0.000000
 ---------------------------------------------------------------------

 SCF Done:  E(RHF) =  -4.85250233415     A.U. after   10 cycles
 E2 =    -0.1140595475D+00 EUMP2 =    -0.49665618816866D+01

 The electronic state is 1-AG.
 Alpha  occ. eigenvalues --   -0.86022  -0.73815  -0.54567  -0.39445  -0.29163
 Alpha virt. eigenvalues --   -0.02769   0.21514   0.30860   0.52741   0.82455

 Mulliken charges:
               1
     1  H   -0.072925
     2  H    0.108422
     3  H    0.056064
     4  H   -0.092770
     5  H    0.001209
     6  H    0.001209
     7  H   -0.092770
     8  H    0.056064
     9  H    0.108422
    10  H   -0.072925
 Sum of Mulliken charges =  -0.00000

 Dipole moment (field-independent basis, Debye):
    X=             -0.0000    Y=              0.0000    Z=             -0.0000  Tot=              0.0000
 Quadrupole moment (field-independent basis, Debye-Ang):
   XX=            -15.5014   YY=            -14.2858   ZZ=            -12.8452
   XY=             -1.6612   XZ=             -0.0000   YZ=             -0.0000

 Normal termination of Gaussian 09 at Thu Feb  9 15:29:13 2017.
