 Gaussian 09, Revision E.01,
 Gaussian 09:  ES64L-G09RevE.01 30-Nov-2015

 ----------------------------------------------------------------------
 #rhf/gen scf(symm,tight,novaracc,noincfock,fulldiag) stable(crhf) geom
 =nocrowd test
 ----------------------------------------------------------------------

 hf stability analysis of h10 triangular lattice, y= 0.8857377402267238
 0
 ----------------------------------------------------------------------
 Symbolic Z-matrix:
 Charge =  0 Multiplicity = 1

                         Standard orientation:
 ---------------------------------------------------------------------
 Center     Atomic      Atomic             Coordinates (Angstroms)
 Number     Number       Type             X           Y           Z
 ---------------------------------------------------------------------
      1          1           0        2.099965    1.203933    0.000000
      2          1           0        2.099965    0.104199    0.000000
      3          1           0        1.049982    0.876900    0.000000
      4          1           0        1.049982   -0.222834    0.000000
      5          1           0        0.000000    0.549867    0.000000
      6          1           0       -0.000000   -0.549867    0.000000
      7          1           0       -1.049982    0.222834    0.000000
      8          1           0       -1.049982   -0.876900    0.000000
      9          1           0       -2.099965   -0.104199    0.000000
     10          1           0       -2.099965   -1.203933    0.000000
 ---------------------------------------------------------------------

 SCF Done:  E(RHF) =  -4.85705347940     A.U. after   10 cycles
 E2 =    -0.1133838610D+00 EUMP2 =    -0.49704373403871D+01

 The electronic state is 1-AG.
 Alpha  occ. eigenvalues --   -0.85830  -0.73901  -0.54659  -0.38763  -0.29437
 Alpha virt. eigenvalues --   -0.02472   0.21856   0.29533   0.53178   0.78545

 Mulliken charges:
               1
     1  H   -0.084270
     2  H    0.121299
     3  H    0.069866
     4  H   -0.101428
     5  H   -0.005467
     6  H   -0.005467
     7  H   -0.101428
     8  H    0.069866
     9  H    0.121299
    10  H   -0.084270
 Sum of Mulliken charges =  -0.00000

 Dipole moment (field-independent basis, Debye):
    X=              0.0000    Y=             -0.0000    Z=              0.0000  Tot=              0.0000
 Quadrupole moment (field-independent basis, Debye-Ang):
   XX=            -15.2171   YY=            -14.6117   ZZ=            -12.8665
   XY=             -1.7945   XZ=             -0.0000   YZ=             -0.0000

 Normal termination of Gaussian 09 at Thu Feb  9 15:30:29 2017.
