 Gaussian 09, Revision E.01,
 Gaussian 09:  ES64L-G09RevE.01 30-Nov-2015

 ----------------------------------------------------------------------
 #rhf/gen scf(symm,tight,novaracc,noincfock,fulldiag) stable(crhf) geom
 =nocrowd test
 ----------------------------------------------------------------------

 hf stability analysis of h10 triangular lattice, y= 0.7664958762004193
 7
 ----------------------------------------------------------------------
 Symbolic Z-matrix:
 Charge =  0 Multiplicity = 1

                         Standard orientation:
 ---------------------------------------------------------------------
 Center     Atomic      Atomic             Coordinates (Angstroms)
 Number     Number       Type             X           Y           Z
 ---------------------------------------------------------------------
      1          1           0        2.148976    0.574836    0.000000
      2          1           0        2.148976   -0.499815    0.000000
      3          1           0        1.074488    0.556081    0.000000
      4          1           0        1.074488   -0.518571    0.000000
      5          1           0        0.000000    0.537326    0.000000
      6          1           0       -0.000000   -0.537326    0.000000
      7          1           0       -1.074488    0.518571    0.000000
      8          1           0       -1.074488   -0.556081    0.000000
      9          1           0       -2.148976    0.499815    0.000000
     10          1           0       -2.148976   -0.574836    0.000000
 ---------------------------------------------------------------------

 SCF Done:  E(RHF) =  -4.88652685418     A.U. after   10 cycles
 E2 =    -0.1049781764D+00 EUMP2 =    -0.49915050306154D+01

 The electronic state is 1-AG.
 Alpha  occ. eigenvalues --   -0.87767  -0.74529  -0.52640  -0.46868  -0.31216
 Alpha virt. eigenvalues --   -0.01302   0.15334   0.36813   0.51291   0.90325

 Mulliken charges:
               1
     1  H    0.045929
     2  H    0.035015
     3  H   -0.033244
     4  H   -0.033536
     5  H   -0.014163
     6  H   -0.014163
     7  H   -0.033536
     8  H   -0.033244
     9  H    0.035015
    10  H    0.045929
 Sum of Mulliken charges =   0.00000

 Dipole moment (field-independent basis, Debye):
    X=              0.0000    Y=              0.0000    Z=              0.0000  Tot=              0.0000
 Quadrupole moment (field-independent basis, Debye-Ang):
   XX=            -10.0665   YY=            -17.4024   ZZ=            -12.9544
   XY=              0.2577   XZ=              0.0000   YZ=              0.0000

 Normal termination of Gaussian 09 at Thu Feb  9 15:23:27 2017.
