 Gaussian 09, Revision E.01,
 Gaussian 09:  ES64L-G09RevE.01 30-Nov-2015

 ----------------------------------------------------------------------
 #rhf/gen scf(symm,tight,novaracc,noincfock,fulldiag) stable(crhf) geom
 =nocrowd test
 ----------------------------------------------------------------------

 hf stability analysis of h10 triangular lattice, y= 0.7772789544127255
 4
 ----------------------------------------------------------------------
 Symbolic Z-matrix:
 Charge =  0 Multiplicity = 1

                         Standard orientation:
 ---------------------------------------------------------------------
 Center     Atomic      Atomic             Coordinates (Angstroms)
 Number     Number       Type             X           Y           Z
 ---------------------------------------------------------------------
      1          1           0        2.148033    0.635103    0.000000
      2          1           0        2.148033   -0.440020    0.000000
      3          1           0        1.074017    0.586333    0.000000
      4          1           0        1.074017   -0.488791    0.000000
      5          1           0        0.000000    0.537562    0.000000
      6          1           0       -0.000000   -0.537562    0.000000
      7          1           0       -1.074017    0.488791    0.000000
      8          1           0       -1.074017   -0.586333    0.000000
      9          1           0       -2.148033    0.440020    0.000000
     10          1           0       -2.148033   -0.635103    0.000000
 ---------------------------------------------------------------------

 SCF Done:  E(RHF) =  -4.88572977741     A.U. after   10 cycles
 E2 =    -0.1050287626D+00 EUMP2 =    -0.49907585400197D+01

 The electronic state is 1-AG.
 Alpha  occ. eigenvalues --   -0.87746  -0.74517  -0.52648  -0.46821  -0.31169
 Alpha virt. eigenvalues --   -0.01356   0.15398   0.36688   0.51354   0.90044

 Mulliken charges:
               1
     1  H    0.054581
     2  H    0.026226
     3  H   -0.032989
     4  H   -0.033783
     5  H   -0.014035
     6  H   -0.014035
     7  H   -0.033783
     8  H   -0.032989
     9  H    0.026226
    10  H    0.054581
 Sum of Mulliken charges =  -0.00000

 Dipole moment (field-independent basis, Debye):
    X=             -0.0000    Y=              0.0000    Z=              0.0000  Tot=              0.0000
 Quadrupole moment (field-independent basis, Debye-Ang):
   XX=            -10.0799   YY=            -17.3656   ZZ=            -12.9547
   XY=              0.6695   XZ=              0.0000   YZ=              0.0000

 Normal termination of Gaussian 09 at Thu Feb  9 15:24:07 2017.
