 Gaussian 09, Revision E.01,
 Gaussian 09:  ES64L-G09RevE.01 30-Nov-2015

 ----------------------------------------------------------------------
 #rhf/gen scf(symm,tight,novaracc,noincfock,fulldiag) stable(crhf) geom
 =nocrowd test
 ----------------------------------------------------------------------

 ----------------------------------------------------------------------
 hf stability analysis of h10 triangular lattice, y= 1.2137645536362878
 ----------------------------------------------------------------------
 Symbolic Z-matrix:
 Charge =  0 Multiplicity = 1

                         Standard orientation:
 ---------------------------------------------------------------------
 Center     Atomic      Atomic             Coordinates (Angstroms)
 Number     Number       Type             X           Y           Z
 ---------------------------------------------------------------------
      1          1           0        1.771498    2.564865    0.000000
      2          1           0        1.771498    1.261222    0.000000
      3          1           0        0.885749    1.608343    0.000000
      4          1           0        0.885749    0.304700    0.000000
      5          1           0        0.000000    0.651822    0.000000
      6          1           0       -0.000000   -0.651822    0.000000
      7          1           0       -0.885749   -0.304700    0.000000
      8          1           0       -0.885749   -1.608343    0.000000
      9          1           0       -1.771498   -1.261222    0.000000
     10          1           0       -1.771498   -2.564865    0.000000
 ---------------------------------------------------------------------

 SCF Done:  E(RHF) =  -4.77536865903     A.U. after   11 cycles
 E2 =    -0.1286896123D+00 EUMP2 =    -0.49040582713272D+01

 The electronic state is 1-AG.
 Alpha  occ. eigenvalues --   -0.78895  -0.72375  -0.55215  -0.33906  -0.20014
 Alpha virt. eigenvalues --    0.02259   0.14423   0.19139   0.39770   0.62566

 Mulliken charges:
               1
     1  H    0.027676
     2  H    0.073649
     3  H    0.112099
     4  H   -0.093155
     5  H   -0.120269
     6  H   -0.120269
     7  H   -0.093155
     8  H    0.112099
     9  H    0.073649
    10  H    0.027676
 Sum of Mulliken charges =  -0.00000

 Dipole moment (field-independent basis, Debye):
    X=             -0.0000    Y=              0.0000    Z=              0.0000  Tot=              0.0000
 Quadrupole moment (field-independent basis, Debye-Ang):
   XX=            -11.5941   YY=             -9.6584   ZZ=            -13.1755
   XY=              4.1816   XZ=              0.0000   YZ=              0.0000

 Normal termination of Gaussian 09 at Thu Feb  9 15:44:33 2017.
