 Gaussian 09, Revision E.01,
 Gaussian 09:  ES64L-G09RevE.01 30-Nov-2015

 ----------------------------------------------------------------------
 #rhf/gen scf(symm,tight,novaracc,noincfock,fulldiag) stable(crhf) geom
 =nocrowd test
 ----------------------------------------------------------------------

 hf stability analysis of h10 triangular lattice, y= 0.9199803762616741
 7
 ----------------------------------------------------------------------
 Symbolic Z-matrix:
 Charge =  0 Multiplicity = 1

                         Standard orientation:
 ---------------------------------------------------------------------
 Center     Atomic      Atomic             Coordinates (Angstroms)
 Number     Number       Type             X           Y           Z
 ---------------------------------------------------------------------
      1          1           0        2.073732    1.369509    0.000000
      2          1           0        2.073732    0.255864    0.000000
      3          1           0        1.036866    0.963166    0.000000
      4          1           0        1.036866   -0.150479    0.000000
      5          1           0        0.000000    0.556823    0.000000
      6          1           0       -0.000000   -0.556823   -0.000000
      7          1           0       -1.036866    0.150479   -0.000000
      8          1           0       -1.036866   -0.963166   -0.000000
      9          1           0       -2.073732   -0.255864   -0.000000
     10          1           0       -2.073732   -1.369509   -0.000000
 ---------------------------------------------------------------------

 SCF Done:  E(RHF) =  -4.86307062469     A.U. after   10 cycles
 E2 =    -0.1126736940D+00 EUMP2 =    -0.49757443186715D+01

 The electronic state is 1-AG.
 Alpha  occ. eigenvalues --   -0.85457  -0.74002  -0.54805  -0.37543  -0.29875
 Alpha virt. eigenvalues --   -0.01909   0.22425   0.27358   0.53926   0.72370

 Mulliken charges:
               1
     1  H   -0.094476
     2  H    0.135117
     3  H    0.086322
     4  H   -0.110884
     5  H   -0.016079
     6  H   -0.016079
     7  H   -0.110884
     8  H    0.086322
     9  H    0.135117
    10  H   -0.094476
 Sum of Mulliken charges =   0.00000

 Dipole moment (field-independent basis, Debye):
    X=              0.0000    Y=             -0.0000    Z=             -0.0000  Tot=              0.0000
 Quadrupole moment (field-independent basis, Debye-Ang):
   XX=            -14.7445   YY=            -15.0511   ZZ=            -12.9013
   XY=             -1.8030   XZ=             -0.0000   YZ=             -0.0000

 Normal termination of Gaussian 09 at Thu Feb  9 15:32:16 2017.
