 Gaussian 09, Revision E.01,
 Gaussian 09:  ES64L-G09RevE.01 30-Nov-2015

 ----------------------------------------------------------------------
 #rhf/gen scf(symm,tight,novaracc,noincfock,fulldiag) stable(crhf) geom
 =nocrowd test
 ----------------------------------------------------------------------

 ----------------------------------------------------------------------
 hf stability analysis of h10 triangular lattice, y= 2.4947243753068959
 ----------------------------------------------------------------------
 Symbolic Z-matrix:
 Charge =  0 Multiplicity = 1

                         Standard orientation:
 ---------------------------------------------------------------------
 Center     Atomic      Atomic             Coordinates (Angstroms)
 Number     Number       Type             X           Y           Z
 ---------------------------------------------------------------------
      1          1           0        0.921757    6.178081   -0.000000
      2          1           0        0.921757    3.672645   -0.000000
      3          1           0        0.460878    3.715399   -0.000000
      4          1           0        0.460878    1.209964   -0.000000
      5          1           0        0.000000    1.252718    0.000000
      6          1           0       -0.000000   -1.252718    0.000000
      7          1           0       -0.460878   -1.209964   -0.000000
      8          1           0       -0.460878   -3.715399   -0.000000
      9          1           0       -0.921757   -3.672645   -0.000000
     10          1           0       -0.921757   -6.178081   -0.000000
 ---------------------------------------------------------------------

 SCF Done:  E(RHF) =  -4.32881003191     A.U. after    5 cycles
 E2 =    -0.1039411817D+01 EUMP2 =    -0.53682218487603D+01

 The electronic state is 1-AG.
 Alpha  occ. eigenvalues --   -0.74058  -0.73178  -0.71999  -0.70963  -0.20537
 Alpha virt. eigenvalues --   -0.16300   0.58241   0.62395   0.68040   0.73066

 Mulliken charges:
               1
     1  H    0.001269
     2  H   -0.000180
     3  H   -0.001092
     4  H   -0.000067
     5  H    0.000070
     6  H    0.000070
     7  H   -0.000067
     8  H   -0.001092
     9  H   -0.000180
    10  H    0.001269
 Sum of Mulliken charges =  -0.00000

 Dipole moment (field-independent basis, Debye):
    X=              0.0000    Y=             -0.0000    Z=             -0.0000  Tot=              0.0000
 Quadrupole moment (field-independent basis, Debye-Ang):
   XX=            -12.7722   YY=            -14.6652   ZZ=            -13.5091
   XY=             -0.2504   XZ=             -0.0000   YZ=              0.0000

 Normal termination of Gaussian 09 at Thu Feb  9 15:59:57 2017.
