 Gaussian 09, Revision E.01,
 Gaussian 09:  ES64L-G09RevE.01 30-Nov-2015

 ----------------------------------------------------------------------
 #rhf/gen scf(symm,tight,novaracc,noincfock,fulldiag) stable(crhf) geom
 =nocrowd test
 ----------------------------------------------------------------------

 ----------------------------------------------------------------------
 hf stability analysis of h10 triangular lattice, y= 1.3806747946660543
 ----------------------------------------------------------------------
 Symbolic Z-matrix:
 Charge =  0 Multiplicity = 1

                         Standard orientation:
 ---------------------------------------------------------------------
 Center     Atomic      Atomic             Coordinates (Angstroms)
 Number     Number       Type             X           Y           Z
 ---------------------------------------------------------------------
      1          1           0        1.600849    3.121677    0.000000
      2          1           0        1.600849    1.679066    0.000000
      3          1           0        0.800424    1.921491    0.000000
      4          1           0        0.800424    0.478881   -0.000000
      5          1           0        0.000000    0.721305    0.000000
      6          1           0       -0.000000   -0.721305   -0.000000
      7          1           0       -0.800424   -0.478881    0.000000
      8          1           0       -0.800424   -1.921491   -0.000000
      9          1           0       -1.600849   -1.679066    0.000000
     10          1           0       -1.600849   -3.121677   -0.000000
 ---------------------------------------------------------------------

 SCF Done:  E(RHF) =  -4.80509219587     A.U. after   10 cycles
 E2 =    -0.2834608241D+00 EUMP2 =    -0.50885530199775D+01

 The electronic state is 1-AG.
 Alpha  occ. eigenvalues --   -0.81180  -0.72851  -0.60198  -0.44237  -0.12244
 Alpha virt. eigenvalues --   -0.00708   0.11543   0.23924   0.41607   0.57964

 Mulliken charges:
               1
     1  H   -0.199616
     2  H    0.046001
     3  H    0.087677
     4  H    0.029332
     5  H    0.036605
     6  H    0.036605
     7  H    0.029332
     8  H    0.087677
     9  H    0.046001
    10  H   -0.199616
 Sum of Mulliken charges =  -0.00000

 Dipole moment (field-independent basis, Debye):
    X=             -0.0000    Y=              0.0000    Z=             -0.0000  Tot=              0.0000
 Quadrupole moment (field-independent basis, Debye-Ang):
   XX=            -15.7722   YY=            -31.3964   ZZ=            -12.8253
   XY=            -10.1860   XZ=             -0.0000   YZ=             -0.0000

 Normal termination of Gaussian 09 at Thu Feb  9 15:48:58 2017.
