 Gaussian 09, Revision E.01,
 Gaussian 09:  ES64L-G09RevE.01 30-Nov-2015

 ----------------------------------------------------------------------
 #rhf/gen scf(symm,tight,novaracc,noincfock,fulldiag) stable(crhf) geom
 =nocrowd test
 ----------------------------------------------------------------------

 ----------------------------------------------------------------------
 hf stability analysis of h10 triangular lattice, y= 1.5105185869070827
 ----------------------------------------------------------------------
 Symbolic Z-matrix:
 Charge =  0 Multiplicity = 1

                         Standard orientation:
 ---------------------------------------------------------------------
 Center     Atomic      Atomic             Coordinates (Angstroms)
 Number     Number       Type             X           Y           Z
 ---------------------------------------------------------------------
      1          1           0        1.482165    3.520271   -0.000000
      2          1           0        1.482165    1.962144   -0.000000
      3          1           0        0.741083    2.149667   -0.000000
      4          1           0        0.741083    0.591541   -0.000000
      5          1           0       -0.000000    0.779063   -0.000000
      6          1           0       -0.000000   -0.779063    0.000000
      7          1           0       -0.741083   -0.591541    0.000000
      8          1           0       -0.741083   -2.149667    0.000000
      9          1           0       -1.482165   -1.962144    0.000000
     10          1           0       -1.482165   -3.520271    0.000000
 ---------------------------------------------------------------------

 SCF Done:  E(RHF) =  -4.88777715992     A.U. after    9 cycles
 E2 =    -0.4260308423D+00 EUMP2 =    -0.53138080022036D+01

 The electronic state is 1-AG.
 Alpha  occ. eigenvalues --   -0.77728  -0.71309  -0.61189  -0.48568  -0.14963
 Alpha virt. eigenvalues --   -0.06276   0.19532   0.30396   0.46412   0.61948

 Mulliken charges:
               1
     1  H   -0.111306
     2  H    0.030211
     3  H    0.047488
     4  H    0.013226
     5  H    0.020381
     6  H    0.020381
     7  H    0.013226
     8  H    0.047488
     9  H    0.030211
    10  H   -0.111306
 Sum of Mulliken charges =  -0.00000

 Dipole moment (field-independent basis, Debye):
    X=              0.0000    Y=             -0.0000    Z=             -0.0000  Tot=              0.0000
 Quadrupole moment (field-independent basis, Debye-Ang):
   XX=            -13.7004   YY=            -27.3300   ZZ=            -12.9129
   XY=             -6.5581   XZ=              0.0000   YZ=              0.0000

 Normal termination of Gaussian 09 at Thu Feb  9 15:51:31 2017.
