 Gaussian 09, Revision E.01,
 Gaussian 09:  ES64L-G09RevE.01 30-Nov-2015

 ----------------------------------------------------------------------
 #rhf/gen scf(symm,tight,novaracc,noincfock,fulldiag) stable(crhf) geom
 =nocrowd test
 ----------------------------------------------------------------------

 ----------------------------------------------------------------------
 hf stability analysis of h10 triangular lattice, y= 1.0040470443412663
 ----------------------------------------------------------------------
 Symbolic Z-matrix:
 Charge =  0 Multiplicity = 1

                         Standard orientation:
 ---------------------------------------------------------------------
 Center     Atomic      Atomic             Coordinates (Angstroms)
 Number     Number       Type             X           Y           Z
 ---------------------------------------------------------------------
      1          1           0        1.995941    1.749536    0.000000
      2          1           0        1.995941    0.592487    0.000000
      3          1           0        0.997970    1.164030    0.000000
      4          1           0        0.997970    0.006981    0.000000
      5          1           0       -0.000000    0.578524    0.000000
      6          1           0       -0.000000   -0.578524    0.000000
      7          1           0       -0.997970   -0.006981   -0.000000
      8          1           0       -0.997970   -1.164030   -0.000000
      9          1           0       -1.995941   -0.592487   -0.000000
     10          1           0       -1.995941   -1.749536   -0.000000
 ---------------------------------------------------------------------

 SCF Done:  E(RHF) =  -4.86753988970     A.U. after   10 cycles
 E2 =    -0.1132380355D+00 EUMP2 =    -0.49807779251946D+01

 The electronic state is 1-AG.
 Alpha  occ. eigenvalues --   -0.84112  -0.74012  -0.55133  -0.33781  -0.30866
 Alpha virt. eigenvalues --   -0.00016   0.21711   0.23858   0.56123   0.57604

 Mulliken charges:
               1
     1  H   -0.089893
     2  H    0.145557
     3  H    0.108466
     4  H   -0.121128
     5  H   -0.043001
     6  H   -0.043001
     7  H   -0.121128
     8  H    0.108466
     9  H    0.145557
    10  H   -0.089893
 Sum of Mulliken charges =   0.00000

 Dipole moment (field-independent basis, Debye):
    X=             -0.0000    Y=              0.0000    Z=             -0.0000  Tot=              0.0000
 Quadrupole moment (field-independent basis, Debye-Ang):
   XX=            -13.5260   YY=            -15.4727   ZZ=            -12.9927
   XY=             -0.9510   XZ=             -0.0000   YZ=             -0.0000

 Normal termination of Gaussian 09 at Thu Feb  9 15:36:23 2017.
