 Gaussian 09, Revision E.01,
 Gaussian 09:  ES64L-G09RevE.01 30-Nov-2015

 ----------------------------------------------------------------------
 #rhf/gen scf(symm,tight,novaracc,noincfock,fulldiag) stable(crhf) geom
 =nocrowd test
 ----------------------------------------------------------------------

 hf stability analysis of h10 triangular lattice, y= 0.8800993414282936
 0
 ----------------------------------------------------------------------
 Symbolic Z-matrix:
 Charge =  0 Multiplicity = 1

                         Standard orientation:
 ---------------------------------------------------------------------
 Center     Atomic      Atomic             Coordinates (Angstroms)
 Number     Number       Type             X           Y           Z
 ---------------------------------------------------------------------
      1          1           0        2.103878    1.176037    0.000000
      2          1           0        2.103878    0.078349    0.000000
      3          1           0        1.051939    0.862441    0.000000
      4          1           0        1.051939   -0.235247    0.000000
      5          1           0        0.000000    0.548844    0.000000
      6          1           0       -0.000000   -0.548844    0.000000
      7          1           0       -1.051939    0.235247   -0.000000
      8          1           0       -1.051939   -0.862441   -0.000000
      9          1           0       -2.103878   -0.078349   -0.000000
     10          1           0       -2.103878   -1.176037   -0.000000
 ---------------------------------------------------------------------

 SCF Done:  E(RHF) =  -4.85595406744     A.U. after   11 cycles
 E2 =    -0.1135384561D+00 EUMP2 =    -0.49694925235708D+01

 The electronic state is 1-AG.
 Alpha  occ. eigenvalues --   -0.85882  -0.73881  -0.54636  -0.38941  -0.29367
 Alpha virt. eigenvalues --   -0.02551   0.21768   0.29870   0.53066   0.79530

 Mulliken charges:
               1
     1  H   -0.081827
     2  H    0.118416
     3  H    0.066687
     4  H   -0.099490
     5  H   -0.003785
     6  H   -0.003785
     7  H   -0.099490
     8  H    0.066687
     9  H    0.118416
    10  H   -0.081827
 Sum of Mulliken charges =   0.00000

 Dipole moment (field-independent basis, Debye):
    X=             -0.0000    Y=              0.0000    Z=             -0.0000  Tot=              0.0000
 Quadrupole moment (field-independent basis, Debye-Ang):
   XX=            -15.2898   YY=            -14.5326   ZZ=            -12.8611
   XY=             -1.7713   XZ=             -0.0000   YZ=             -0.0000

 Normal termination of Gaussian 09 at Thu Feb  9 15:30:11 2017.
