 Gaussian 09, Revision E.01,
 Gaussian 09:  ES64L-G09RevE.01 30-Nov-2015

 ----------------------------------------------------------------------
 #rhf/gen scf(symm,tight,novaracc,noincfock,fulldiag) stable(crhf) geom
 =nocrowd test
 ----------------------------------------------------------------------

 hf stability analysis of h10 triangular lattice, y= 0.9501460469779395
 8
 ----------------------------------------------------------------------
 Symbolic Z-matrix:
 Charge =  0 Multiplicity = 1

                         Standard orientation:
 ---------------------------------------------------------------------
 Center     Atomic      Atomic             Coordinates (Angstroms)
 Number     Number       Type             X           Y           Z
 ---------------------------------------------------------------------
      1          1           0        2.047644    1.510061    0.000000
      2          1           0        2.047644    0.382227    0.000000
      3          1           0        1.023822    1.036989    0.000000
      4          1           0        1.023822   -0.090845    0.000000
      5          1           0       -0.000000    0.563917    0.000000
      6          1           0       -0.000000   -0.563917    0.000000
      7          1           0       -1.023822    0.090845    0.000000
      8          1           0       -1.023822   -1.036989    0.000000
      9          1           0       -2.047644   -0.382227    0.000000
     10          1           0       -2.047644   -1.510061    0.000000
 ---------------------------------------------------------------------

 SCF Done:  E(RHF) =  -4.86676554440     A.U. after   10 cycles
 E2 =    -0.1124645795D+00 EUMP2 =    -0.49792301238627D+01

 The electronic state is 1-AG.
 Alpha  occ. eigenvalues --   -0.85043  -0.74050  -0.54932  -0.36290  -0.30269
 Alpha virt. eigenvalues --   -0.01302   0.22957   0.25336   0.54663   0.66880

 Mulliken charges:
               1
     1  H   -0.097267
     2  H    0.142387
     3  H    0.096974
     4  H   -0.116381
     5  H   -0.025713
     6  H   -0.025713
     7  H   -0.116381
     8  H    0.096974
     9  H    0.142387
    10  H   -0.097267
 Sum of Mulliken charges =   0.00000

 Dipole moment (field-independent basis, Debye):
    X=             -0.0000    Y=             -0.0000    Z=              0.0000  Tot=              0.0000
 Quadrupole moment (field-independent basis, Debye-Ang):
   XX=            -14.3040   YY=            -15.3364   ZZ=            -12.9338
   XY=             -1.6298   XZ=              0.0000   YZ=              0.0000

 Normal termination of Gaussian 09 at Thu Feb  9 15:33:46 2017.
