 Gaussian 09, Revision E.01,
 Gaussian 09:  ES64L-G09RevE.01 30-Nov-2015

 ----------------------------------------------------------------------
 #rhf/gen scf(symm,tight,novaracc,noincfock,fulldiag) stable(crhf) geom
 =nocrowd test
 ----------------------------------------------------------------------

 ----------------------------------------------------------------------
 hf stability analysis of h10 triangular lattice, y= 1.4914551041977033
 ----------------------------------------------------------------------
 Symbolic Z-matrix:
 Charge =  0 Multiplicity = 1

                         Standard orientation:
 ---------------------------------------------------------------------
 Center     Atomic      Atomic             Coordinates (Angstroms)
 Number     Number       Type             X           Y           Z
 ---------------------------------------------------------------------
      1          1           0        1.498762    3.463180   -0.000000
      2          1           0        1.498762    1.922307   -0.000000
      3          1           0        0.749381    2.116808   -0.000000
      4          1           0        0.749381    0.575935   -0.000000
      5          1           0       -0.000000    0.770436   -0.000000
      6          1           0       -0.000000   -0.770436    0.000000
      7          1           0       -0.749381   -0.575935    0.000000
      8          1           0       -0.749381   -2.116808    0.000000
      9          1           0       -1.498762   -1.922307    0.000000
     10          1           0       -1.498762   -3.463180    0.000000
 ---------------------------------------------------------------------

 SCF Done:  E(RHF) =  -4.87874320930     A.U. after    9 cycles
 E2 =    -0.4049268137D+00 EUMP2 =    -0.52836700230230D+01

 The electronic state is 1-AG.
 Alpha  occ. eigenvalues --   -0.78165  -0.71493  -0.61031  -0.47944  -0.14583
 Alpha virt. eigenvalues --   -0.05574   0.18393   0.29481   0.45743   0.61440

 Mulliken charges:
               1
     1  H   -0.122418
     2  H    0.032532
     3  H    0.052080
     4  H    0.015207
     5  H    0.022598
     6  H    0.022598
     7  H    0.015207
     8  H    0.052080
     9  H    0.032532
    10  H   -0.122418
 Sum of Mulliken charges =   0.00000

 Dipole moment (field-independent basis, Debye):
    X=              0.0000    Y=              0.0000    Z=              0.0000  Tot=              0.0000
 Quadrupole moment (field-independent basis, Debye-Ang):
   XX=            -13.9250   YY=            -27.9971   ZZ=            -12.8991
   XY=             -7.0430   XZ=              0.0000   YZ=              0.0000

 Normal termination of Gaussian 09 at Thu Feb  9 15:51:11 2017.
