 Gaussian 09, Revision E.01,
 Gaussian 09:  ES64L-G09RevE.01 30-Nov-2015

 ----------------------------------------------------------------------
 #rhf/gen scf(symm,tight,novaracc,noincfock,fulldiag) stable(crhf) geom
 =nocrowd test
 ----------------------------------------------------------------------

 hf stability analysis of h10 triangular lattice, y= 0.8185645993885070
 1
 ----------------------------------------------------------------------
 Symbolic Z-matrix:
 Charge =  0 Multiplicity = 1

                         Standard orientation:
 ---------------------------------------------------------------------
 Center     Atomic      Atomic             Coordinates (Angstroms)
 Number     Number       Type             X           Y           Z
 ---------------------------------------------------------------------
      1          1           0        2.137304    0.859683    0.000000
      2          1           0        2.137304   -0.220838    0.000000
      3          1           0        1.068652    0.699971    0.000000
      4          1           0        1.068652   -0.380549    0.000000
      5          1           0        0.000000    0.540260    0.000000
      6          1           0       -0.000000   -0.540260    0.000000
      7          1           0       -1.068652    0.380549    0.000000
      8          1           0       -1.068652   -0.699971    0.000000
      9          1           0       -2.137304    0.220838    0.000000
     10          1           0       -2.137304   -0.859683    0.000000
 ---------------------------------------------------------------------

 SCF Done:  E(RHF) =  -4.87653360135     A.U. after   10 cycles
 E2 =    -0.1056192883D+00 EUMP2 =    -0.49821528896682D+01

 The electronic state is 1-AG.
 Alpha  occ. eigenvalues --   -0.87510  -0.74378  -0.52740  -0.46286  -0.30636
 Alpha virt. eigenvalues --   -0.01943   0.16099   0.35339   0.52001   0.86933

 Mulliken charges:
               1
     1  H    0.085512
     2  H   -0.006320
     3  H   -0.031391
     4  H   -0.035318
     5  H   -0.012483
     6  H   -0.012483
     7  H   -0.035318
     8  H   -0.031391
     9  H   -0.006320
    10  H    0.085512
 Sum of Mulliken charges =   0.00000

 Dipole moment (field-independent basis, Debye):
    X=             -0.0000    Y=             -0.0000    Z=              0.0000  Tot=              0.0000
 Quadrupole moment (field-independent basis, Debye-Ang):
   XX=            -10.2351   YY=            -16.9464   ZZ=            -12.9579
   XY=              2.1714   XZ=             -0.0000   YZ=             -0.0000

 Normal termination of Gaussian 09 at Thu Feb  9 15:26:42 2017.
