 Gaussian 09, Revision E.01,
 Gaussian 09:  ES64L-G09RevE.01 30-Nov-2015

 ----------------------------------------------------------------------
 #rhf/gen scf(symm,tight,novaracc,noincfock,fulldiag) stable(crhf) geom
 =nocrowd test
 ----------------------------------------------------------------------

 ----------------------------------------------------------------------
 hf stability analysis of h10 triangular lattice, y= 2.1763061152468834
 ----------------------------------------------------------------------
 Symbolic Z-matrix:
 Charge =  0 Multiplicity = 1

                         Standard orientation:
 ---------------------------------------------------------------------
 Center     Atomic      Atomic             Coordinates (Angstroms)
 Number     Number       Type             X           Y           Z
 ---------------------------------------------------------------------
      1          1           0        1.053359    5.352636   -0.000000
      2          1           0        1.053359    3.160220    0.000000
      3          1           0        0.526680    3.224422   -0.000000
      4          1           0        0.526680    1.032006    0.000000
      5          1           0       -0.000000    1.096208   -0.000000
      6          1           0       -0.000000   -1.096208   -0.000000
      7          1           0       -0.526680   -1.032006    0.000000
      8          1           0       -0.526680   -3.224422   -0.000000
      9          1           0       -1.053359   -3.160220   -0.000000
     10          1           0       -1.053359   -5.352636   -0.000000
 ---------------------------------------------------------------------

 SCF Done:  E(RHF) =  -4.65886582020     A.U. after    5 cycles
 E2 =    -0.8977325391D+00 EUMP2 =    -0.55565983593351D+01

 The electronic state is 1-AG.
 Alpha  occ. eigenvalues --   -0.73374  -0.71541  -0.68873  -0.66265  -0.20317
 Alpha virt. eigenvalues --   -0.15451   0.48315   0.54158   0.62428   0.70101

 Mulliken charges:
               1
     1  H   -0.000079
     2  H    0.000700
     3  H   -0.000762
     4  H   -0.000181
     5  H    0.000323
     6  H    0.000323
     7  H   -0.000181
     8  H   -0.000762
     9  H    0.000700
    10  H   -0.000079
 Sum of Mulliken charges =   0.00000

 Dipole moment (field-independent basis, Debye):
    X=             -0.0000    Y=              0.0000    Z=              0.0000  Tot=              0.0000
 Quadrupole moment (field-independent basis, Debye-Ang):
   XX=            -12.5099   YY=            -15.8297   ZZ=            -13.3863
   XY=             -0.6144   XZ=              0.0000   YZ=             -0.0000

 Normal termination of Gaussian 09 at Thu Feb  9 15:58:26 2017.
