 Gaussian 09, Revision E.01,
 Gaussian 09:  ES64L-G09RevE.01 30-Nov-2015

 ----------------------------------------------------------------------
 #rhf/gen scf(symm,tight,novaracc,noincfock,fulldiag) stable(crhf) geom
 =nocrowd test
 ----------------------------------------------------------------------

 ----------------------------------------------------------------------
 hf stability analysis of h10 triangular lattice, y= 1.2153259707432924
 ----------------------------------------------------------------------
 Symbolic Z-matrix:
 Charge =  0 Multiplicity = 1

                         Standard orientation:
 ---------------------------------------------------------------------
 Center     Atomic      Atomic             Coordinates (Angstroms)
 Number     Number       Type             X           Y           Z
 ---------------------------------------------------------------------
      1          1           0        1.769826    2.570380   -0.000000
      2          1           0        1.769826    1.265505   -0.000000
      3          1           0        0.884913    1.611408   -0.000000
      4          1           0        0.884913    0.306534   -0.000000
      5          1           0        0.000000    0.652437   -0.000000
      6          1           0       -0.000000   -0.652437   -0.000000
      7          1           0       -0.884913   -0.306534   -0.000000
      8          1           0       -0.884913   -1.611408   -0.000000
      9          1           0       -1.769826   -1.265505   -0.000000
     10          1           0       -1.769826   -2.570380   -0.000000
 ---------------------------------------------------------------------

 SCF Done:  E(RHF) =  -4.77413530257     A.U. after   11 cycles
 E2 =    -0.1288669854D+00 EUMP2 =    -0.49030022879859D+01

 The electronic state is 1-AG.
 Alpha  occ. eigenvalues --   -0.78851  -0.72356  -0.55211  -0.33926  -0.19903
 Alpha virt. eigenvalues --    0.02221   0.14450   0.19030   0.39770   0.62614

 Mulliken charges:
               1
     1  H    0.028817
     2  H    0.072578
     3  H    0.112216
     4  H   -0.092471
     5  H   -0.121141
     6  H   -0.121141
     7  H   -0.092471
     8  H    0.112216
     9  H    0.072578
    10  H    0.028817
 Sum of Mulliken charges =  -0.00000

 Dipole moment (field-independent basis, Debye):
    X=              0.0000    Y=             -0.0000    Z=             -0.0000  Tot=              0.0000
 Quadrupole moment (field-independent basis, Debye-Ang):
   XX=            -11.5898   YY=             -9.5761   ZZ=            -13.1764
   XY=              4.2230   XZ=             -0.0000   YZ=             -0.0000

 Normal termination of Gaussian 09 at Thu Feb  9 15:44:36 2017.
