 Gaussian 09, Revision E.01,
 Gaussian 09:  ES64L-G09RevE.01 30-Nov-2015

 ----------------------------------------------------------------------
 #rhf/gen scf(symm,tight,novaracc,noincfock,fulldiag) stable(crhf) geom
 =nocrowd test
 ----------------------------------------------------------------------

 hf stability analysis of h10 triangular lattice, y= 0.8504317889062260
 6
 ----------------------------------------------------------------------
 Symbolic Z-matrix:
 Charge =  0 Multiplicity = 1

                         Standard orientation:
 ---------------------------------------------------------------------
 Center     Atomic      Atomic             Coordinates (Angstroms)
 Number     Number       Type             X           Y           Z
 ---------------------------------------------------------------------
      1          1           0        2.122268    1.026255    0.000000
      2          1           0        2.122268   -0.061920    0.000000
      3          1           0        1.061134    0.785172    0.000000
      4          1           0        1.061134   -0.303004    0.000000
      5          1           0        0.000000    0.544088    0.000000
      6          1           0       -0.000000   -0.544088    0.000000
      7          1           0       -1.061134    0.303004    0.000000
      8          1           0       -1.061134   -0.785172    0.000000
      9          1           0       -2.122268    0.061920    0.000000
     10          1           0       -2.122268   -1.026255    0.000000
 ---------------------------------------------------------------------

 SCF Done:  E(RHF) =  -4.85007169421     A.U. after   10 cycles
 E2 =    -0.1144548071D+00 EUMP2 =    -0.49645265012967D+01

 The electronic state is 1-AG.
 Alpha  occ. eigenvalues --   -0.86106  -0.73766  -0.54522  -0.39760  -0.29028
 Alpha virt. eigenvalues --   -0.02900   0.21349   0.31508   0.52532   0.84400

 Mulliken charges:
               1
     1  H   -0.065356
     2  H    0.100307
     3  H    0.047791
     4  H   -0.087275
     5  H    0.004533
     6  H    0.004533
     7  H   -0.087275
     8  H    0.047791
     9  H    0.100307
    10  H   -0.065356
 Sum of Mulliken charges =   0.00000

 Dipole moment (field-independent basis, Debye):
    X=             -0.0000    Y=             -0.0000    Z=              0.0000  Tot=              0.0000
 Quadrupole moment (field-independent basis, Debye-Ang):
   XX=            -15.6380   YY=            -14.1130   ZZ=            -12.8349
   XY=             -1.5482   XZ=              0.0000   YZ=              0.0000

 Normal termination of Gaussian 09 at Thu Feb  9 15:28:32 2017.
