 Gaussian 09, Revision E.01,
 Gaussian 09:  ES64L-G09RevE.01 30-Nov-2015

 ----------------------------------------------------------------------
 #rhf/gen scf(symm,tight,novaracc,noincfock,fulldiag) stable(crhf) geom
 =nocrowd test
 ----------------------------------------------------------------------

 hf stability analysis of h10 triangular lattice, y= 0.9910121780235632
 3
 ----------------------------------------------------------------------
 Symbolic Z-matrix:
 Charge =  0 Multiplicity = 1

                         Standard orientation:
 ---------------------------------------------------------------------
 Center     Atomic      Atomic             Coordinates (Angstroms)
 Number     Number       Type             X           Y           Z
 ---------------------------------------------------------------------
      1          1           0        2.008925    1.692939   -0.000000
      2          1           0        2.008925    0.543368   -0.000000
      3          1           0        1.004463    1.133862   -0.000000
      4          1           0        1.004463   -0.015708   -0.000000
      5          1           0        0.000000    0.574785    0.000000
      6          1           0       -0.000000   -0.574785    0.000000
      7          1           0       -1.004463    0.015708   -0.000000
      8          1           0       -1.004463   -1.133862    0.000000
      9          1           0       -2.008925   -0.543368   -0.000000
     10          1           0       -2.008925   -1.692939    0.000000
 ---------------------------------------------------------------------

 SCF Done:  E(RHF) =  -4.86815149241     A.U. after   10 cycles
 E2 =    -0.1129125571D+00 EUMP2 =    -0.49810640495594D+01

 The electronic state is 1-AG.
 Alpha  occ. eigenvalues --   -0.84358  -0.74037  -0.55089  -0.34399  -0.30752
 Alpha virt. eigenvalues --   -0.00345   0.22574   0.23657   0.55756   0.59749

 Mulliken charges:
               1
     1  H   -0.092966
     2  H    0.145827
     3  H    0.106454
     4  H   -0.120487
     5  H   -0.038829
     6  H   -0.038829
     7  H   -0.120487
     8  H    0.106454
     9  H    0.145827
    10  H   -0.092966
 Sum of Mulliken charges =   0.00000

 Dipole moment (field-independent basis, Debye):
    X=              0.0000    Y=             -0.0000    Z=             -0.0000  Tot=              0.0000
 Quadrupole moment (field-independent basis, Debye-Ang):
   XX=            -13.7093   YY=            -15.4911   ZZ=            -12.9786
   XY=             -1.1539   XZ=              0.0000   YZ=              0.0000

 Normal termination of Gaussian 09 at Thu Feb  9 15:35:45 2017.
