 Gaussian 09, Revision E.01,
 Gaussian 09:  ES64L-G09RevE.01 30-Nov-2015

 ----------------------------------------------------------------------
 #rhf/gen scf(symm,tight,novaracc,noincfock,fulldiag) stable(crhf) geom
 =nocrowd test
 ----------------------------------------------------------------------

 ----------------------------------------------------------------------
 hf stability analysis of h10 triangular lattice, y= 1.2698334302188394
 ----------------------------------------------------------------------
 Symbolic Z-matrix:
 Charge =  0 Multiplicity = 1

                         Standard orientation:
 ---------------------------------------------------------------------
 Center     Atomic      Atomic             Coordinates (Angstroms)
 Number     Number       Type             X           Y           Z
 ---------------------------------------------------------------------
      1          1           0        1.712219    2.758878    0.000000
      2          1           0        1.712219    1.410102    0.000000
      3          1           0        0.856110    1.716633    0.000000
      4          1           0        0.856110    0.367857    0.000000
      5          1           0       -0.000000    0.674388    0.000000
      6          1           0       -0.000000   -0.674388    0.000000
      7          1           0       -0.856110   -0.367857    0.000000
      8          1           0       -0.856110   -1.716633    0.000000
      9          1           0       -1.712219   -1.410102    0.000000
     10          1           0       -1.712219   -2.758878    0.000000
 ---------------------------------------------------------------------

 SCF Done:  E(RHF) =  -4.72826218051     A.U. after   12 cycles
 E2 =    -0.1363887945D+00 EUMP2 =    -0.48646509749693D+01

 The electronic state is 1-AG.
 Alpha  occ. eigenvalues --   -0.77315  -0.71619  -0.55067  -0.34737  -0.15954
 Alpha virt. eigenvalues --    0.00360   0.15092   0.16207   0.40419   0.64206

 Mulliken charges:
               1
     1  H    0.067384
     2  H    0.019907
     3  H    0.127213
     4  H   -0.049938
     5  H   -0.164567
     6  H   -0.164567
     7  H   -0.049938
     8  H    0.127213
     9  H    0.019907
    10  H    0.067384
 Sum of Mulliken charges =  -0.00000

 Dipole moment (field-independent basis, Debye):
    X=             -0.0000    Y=             -0.0000    Z=              0.0000  Tot=              0.0000
 Quadrupole moment (field-independent basis, Debye-Ang):
   XX=            -11.6829   YY=             -6.5757   ZZ=            -13.1871
   XY=              5.3676   XZ=              0.0000   YZ=              0.0000

 Normal termination of Gaussian 09 at Thu Feb  9 15:46:12 2017.
