 Gaussian 09, Revision E.01,
 Gaussian 09:  ES64L-G09RevE.01 30-Nov-2015

 ----------------------------------------------------------------------
 #rhf/gen scf(symm,tight,novaracc,noincfock,fulldiag) stable(crhf) geom
 =nocrowd test
 ----------------------------------------------------------------------

 hf stability analysis of h10 triangular lattice, y= 0.8346603539118364
 6
 ----------------------------------------------------------------------
 Symbolic Z-matrix:
 Charge =  0 Multiplicity = 1

                         Standard orientation:
 ---------------------------------------------------------------------
 Center     Atomic      Atomic             Coordinates (Angstroms)
 Number     Number       Type             X           Y           Z
 ---------------------------------------------------------------------
      1          1           0        2.130374    0.944556    0.000000
      2          1           0        2.130374   -0.139479    0.000000
      3          1           0        1.065187    0.743287    0.000000
      4          1           0        1.065187   -0.340749    0.000000
      5          1           0        0.000000    0.542018   -0.000000
      6          1           0       -0.000000   -0.542018   -0.000000
      7          1           0       -1.065187    0.340749    0.000000
      8          1           0       -1.065187   -0.743287    0.000000
      9          1           0       -2.130374    0.139479    0.000000
     10          1           0       -2.130374   -0.944556    0.000000
 ---------------------------------------------------------------------

 SCF Done:  E(RHF) =  -4.84709855325     A.U. after   10 cycles
 E2 =    -0.1149660511D+00 EUMP2 =    -0.49620646043783D+01

 The electronic state is 1-AG.
 Alpha  occ. eigenvalues --   -0.86196  -0.73704  -0.54469  -0.40112  -0.28871
 Alpha virt. eigenvalues --   -0.03042   0.21161   0.32258   0.52293   0.86685

 Mulliken charges:
               1
     1  H   -0.054169
     2  H    0.088661
     3  H    0.036346
     4  H   -0.079283
     5  H    0.008446
     6  H    0.008446
     7  H   -0.079283
     8  H    0.036346
     9  H    0.088661
    10  H   -0.054169
 Sum of Mulliken charges =  -0.00000

 Dipole moment (field-independent basis, Debye):
    X=             -0.0000    Y=             -0.0000    Z=              0.0000  Tot=              0.0000
 Quadrupole moment (field-independent basis, Debye-Ang):
   XX=            -15.7942   YY=            -13.9023   ZZ=            -12.8229
   XY=             -1.3628   XZ=             -0.0000   YZ=             -0.0000

 Normal termination of Gaussian 09 at Thu Feb  9 15:27:38 2017.
