 Gaussian 09, Revision E.01,
 Gaussian 09:  ES64L-G09RevE.01 30-Nov-2015

 ----------------------------------------------------------------------
 #rhf/gen scf(symm,tight,novaracc,noincfock,fulldiag) stable(crhf) geom
 =nocrowd test
 ----------------------------------------------------------------------

 ----------------------------------------------------------------------
 hf stability analysis of h10 triangular lattice, y= 1.0772746489798752
 ----------------------------------------------------------------------
 Symbolic Z-matrix:
 Charge =  0 Multiplicity = 1

                         Standard orientation:
 ---------------------------------------------------------------------
 Center     Atomic      Atomic             Coordinates (Angstroms)
 Number     Number       Type             X           Y           Z
 ---------------------------------------------------------------------
      1          1           0        1.919344    2.053201   -0.000000
      2          1           0        1.919344    0.849977   -0.000000
      3          1           0        0.959672    1.327406   -0.000000
      4          1           0        0.959672    0.124182   -0.000000
      5          1           0       -0.000000    0.601612    0.000000
      6          1           0       -0.000000   -0.601612    0.000000
      7          1           0       -0.959672   -0.124182   -0.000000
      8          1           0       -0.959672   -1.327406    0.000000
      9          1           0       -1.919344   -0.849977    0.000000
     10          1           0       -1.919344   -2.053201    0.000000
 ---------------------------------------------------------------------

 SCF Done:  E(RHF) =  -4.85318084500     A.U. after   10 cycles
 E2 =    -0.1166198817D+00 EUMP2 =    -0.49698007266631D+01

 The electronic state is 1-AG.
 Alpha  occ. eigenvalues --   -0.82517  -0.73691  -0.55304  -0.32397  -0.28982
 Alpha virt. eigenvalues --    0.01842   0.17313   0.24434   0.47282   0.58299

 Mulliken charges:
               1
     1  H   -0.060642
     2  H    0.133944
     3  H    0.113190
     4  H   -0.119973
     5  H   -0.066519
     6  H   -0.066519
     7  H   -0.119973
     8  H    0.113190
     9  H    0.133944
    10  H   -0.060642
 Sum of Mulliken charges =   0.00000

 Dipole moment (field-independent basis, Debye):
    X=              0.0000    Y=             -0.0000    Z=              0.0000  Tot=              0.0000
 Quadrupole moment (field-independent basis, Debye-Ang):
   XX=            -12.6051   YY=            -14.6609   ZZ=            -13.0682
   XY=              0.5468   XZ=             -0.0000   YZ=              0.0000

 Normal termination of Gaussian 09 at Thu Feb  9 15:39:36 2017.
