 Gaussian 09, Revision E.01,
 Gaussian 09:  ES64L-G09RevE.01 30-Nov-2015

 ----------------------------------------------------------------------
 #rhf/gen scf(symm,tight,novaracc,noincfock,fulldiag) stable(crhf) geom
 =nocrowd test
 ----------------------------------------------------------------------

 ----------------------------------------------------------------------
 hf stability analysis of h10 triangular lattice, y= 2.0332821999050843
 ----------------------------------------------------------------------
 Symbolic Z-matrix:
 Charge =  0 Multiplicity = 1

                         Standard orientation:
 ---------------------------------------------------------------------
 Center     Atomic      Atomic             Coordinates (Angstroms)
 Number     Number       Type             X           Y           Z
 ---------------------------------------------------------------------
      1          1           0        1.124884    4.975442    0.000000
      2          1           0        1.124884    2.922429    0.000000
      3          1           0        0.562442    3.000975    0.000000
      4          1           0        0.562442    0.947961    0.000000
      5          1           0       -0.000000    1.026507    0.000000
      6          1           0       -0.000000   -1.026507    0.000000
      7          1           0       -0.562442   -0.947961   -0.000000
      8          1           0       -0.562442   -3.000975    0.000000
      9          1           0       -1.124884   -2.922429    0.000000
     10          1           0       -1.124884   -4.975442    0.000000
 ---------------------------------------------------------------------

 SCF Done:  E(RHF) =  -4.77533215442     A.U. after    6 cycles
 E2 =    -0.8287089672D+00 EUMP2 =    -0.56040411215850D+01

 The electronic state is 1-AG.
 Alpha  occ. eigenvalues --   -0.73341  -0.70908  -0.67228  -0.63425  -0.20003
 Alpha virt. eigenvalues --   -0.14771   0.43280   0.49990   0.59696   0.68892

 Mulliken charges:
               1
     1  H   -0.003201
     2  H    0.002006
     3  H    0.000680
     4  H   -0.000208
     5  H    0.000723
     6  H    0.000723
     7  H   -0.000208
     8  H    0.000680
     9  H    0.002006
    10  H   -0.003201
 Sum of Mulliken charges =   0.00000

 Dipole moment (field-independent basis, Debye):
    X=             -0.0000    Y=              0.0000    Z=             -0.0000  Tot=              0.0000
 Quadrupole moment (field-independent basis, Debye-Ang):
   XX=            -12.3923   YY=            -16.7757   ZZ=            -13.3050
   XY=             -0.9582   XZ=              0.0000   YZ=              0.0000

 Normal termination of Gaussian 09 at Thu Feb  9 15:57:29 2017.
