 Gaussian 09, Revision E.01,
 Gaussian 09:  ES64L-G09RevE.01 30-Nov-2015

 ----------------------------------------------------------------------
 #rhf/gen scf(symm,tight,novaracc,noincfock,fulldiag) stable(crhf) geom
 =nocrowd test
 ----------------------------------------------------------------------

 hf stability analysis of h10 triangular lattice, y= 0.8272922181513719
 9
 ----------------------------------------------------------------------
 Symbolic Z-matrix:
 Charge =  0 Multiplicity = 1

                         Standard orientation:
 ---------------------------------------------------------------------
 Center     Atomic      Atomic             Coordinates (Angstroms)
 Number     Number       Type             X           Y           Z
 ---------------------------------------------------------------------
      1          1           0        2.133722    0.905891    0.000000
      2          1           0        2.133722   -0.176444    0.000000
      3          1           0        1.066861    0.723529    0.000000
      4          1           0        1.066861   -0.358805    0.000000
      5          1           0        0.000000    0.541167   -0.000000
      6          1           0       -0.000000   -0.541167   -0.000000
      7          1           0       -1.066861    0.358805    0.000000
      8          1           0       -1.066861   -0.723529    0.000000
      9          1           0       -2.133722    0.176444    0.000000
     10          1           0       -2.133722   -0.905891    0.000000
 ---------------------------------------------------------------------

 SCF Done:  E(RHF) =  -4.87341251816     A.U. after   10 cycles
 E2 =    -0.1058226832D+00 EUMP2 =    -0.49792352014010D+01

 The electronic state is 1-AG.
 Alpha  occ. eigenvalues --   -0.87432  -0.74331  -0.52770  -0.46107  -0.30459
 Alpha virt. eigenvalues --   -0.02128   0.16322   0.34915   0.52194   0.85929

 Mulliken charges:
               1
     1  H    0.091539
     2  H   -0.012912
     3  H   -0.030850
     4  H   -0.035852
     5  H   -0.011925
     6  H   -0.011925
     7  H   -0.035852
     8  H   -0.030850
     9  H   -0.012912
    10  H    0.091539
 Sum of Mulliken charges =   0.00000

 Dipole moment (field-independent basis, Debye):
    X=              0.0000    Y=             -0.0000    Z=              0.0000  Tot=              0.0000
 Quadrupole moment (field-independent basis, Debye-Ang):
   XX=            -10.2881   YY=            -16.8064   ZZ=            -12.9590
   XY=              2.4709   XZ=             -0.0000   YZ=             -0.0000

 Normal termination of Gaussian 09 at Thu Feb  9 15:27:13 2017.
