 Gaussian 09, Revision E.01,
 Gaussian 09:  ES64L-G09RevE.01 30-Nov-2015

 ----------------------------------------------------------------------
 #rhf/gen scf(symm,tight,novaracc,noincfock,fulldiag) stable(crhf) geom
 =nocrowd test
 ----------------------------------------------------------------------

 hf stability analysis of h10 triangular lattice, y= 0.7631583969428945
 6
 ----------------------------------------------------------------------
 Symbolic Z-matrix:
 Charge =  0 Multiplicity = 1

                         Standard orientation:
 ---------------------------------------------------------------------
 Center     Atomic      Atomic             Coordinates (Angstroms)
 Number     Number       Type             X           Y           Z
 ---------------------------------------------------------------------
      1          1           0        2.149099    0.556050    0.000000
      2          1           0        2.149099   -0.518540    0.000000
      3          1           0        1.074549    0.546673    0.000000
      4          1           0        1.074549   -0.527918    0.000000
      5          1           0        0.000000    0.537295    0.000000
      6          1           0       -0.000000   -0.537295    0.000000
      7          1           0       -1.074549    0.527918    0.000000
      8          1           0       -1.074549   -0.546673    0.000000
      9          1           0       -2.149099    0.518540    0.000000
     10          1           0       -2.149099   -0.556050    0.000000
 ---------------------------------------------------------------------

 SCF Done:  E(RHF) =  -4.88663049979     A.U. after   10 cycles
 E2 =    -0.1049716054D+00 EUMP2 =    -0.49916021051819D+01

 The electronic state is 1-AG.
 Alpha  occ. eigenvalues --   -0.87770  -0.74531  -0.52639  -0.46874  -0.31222
 Alpha virt. eigenvalues --   -0.01295   0.15326   0.36829   0.51283   0.90362

 Mulliken charges:
               1
     1  H    0.043210
     2  H    0.037752
     3  H   -0.033318
     4  H   -0.033463
     5  H   -0.014180
     6  H   -0.014180
     7  H   -0.033463
     8  H   -0.033318
     9  H    0.037752
    10  H    0.043210
 Sum of Mulliken charges =  -0.00000

 Dipole moment (field-independent basis, Debye):
    X=              0.0000    Y=              0.0000    Z=              0.0000  Tot=              0.0000
 Quadrupole moment (field-independent basis, Debye-Ang):
   XX=            -10.0647   YY=            -17.4072   ZZ=            -12.9544
   XY=              0.1289   XZ=             -0.0000   YZ=             -0.0000

 Normal termination of Gaussian 09 at Thu Feb  9 15:23:14 2017.
