 Gaussian 09, Revision E.01,
 Gaussian 09:  ES64L-G09RevE.01 30-Nov-2015

 ----------------------------------------------------------------------
 #rhf/gen scf(symm,tight,novaracc,noincfock,fulldiag) stable(crhf) geom
 =nocrowd test
 ----------------------------------------------------------------------

 ----------------------------------------------------------------------
 hf stability analysis of h10 triangular lattice, y= 1.1777075470356930
 ----------------------------------------------------------------------
 Symbolic Z-matrix:
 Charge =  0 Multiplicity = 1

                         Standard orientation:
 ---------------------------------------------------------------------
 Center     Atomic      Atomic             Coordinates (Angstroms)
 Number     Number       Type             X           Y           Z
 ---------------------------------------------------------------------
      1          1           0        1.810350    2.435588    0.000000
      2          1           0        1.810350    1.159922    0.000000
      3          1           0        0.905175    1.536710    0.000000
      4          1           0        0.905175    0.261045    0.000000
      5          1           0        0.000000    0.637833    0.000000
      6          1           0       -0.000000   -0.637833    0.000000
      7          1           0       -0.905175   -0.261045   -0.000000
      8          1           0       -0.905175   -1.536710   -0.000000
      9          1           0       -1.810350   -1.159922   -0.000000
     10          1           0       -1.810350   -2.435588   -0.000000
 ---------------------------------------------------------------------

 SCF Done:  E(RHF) =  -4.80194905696     A.U. after   10 cycles
 E2 =    -0.1248641014D+00 EUMP2 =    -0.49268131583245D+01

 The electronic state is 1-AG.
 Alpha  occ. eigenvalues --   -0.79902  -0.72798  -0.55289  -0.33474  -0.22525
 Alpha virt. eigenvalues --    0.02871   0.14183   0.21471   0.40192   0.61441

 Mulliken charges:
               1
     1  H    0.001768
     2  H    0.095094
     3  H    0.111221
     4  H   -0.105253
     5  H   -0.102829
     6  H   -0.102829
     7  H   -0.105253
     8  H    0.111221
     9  H    0.095094
    10  H    0.001768
 Sum of Mulliken charges =  -0.00000

 Dipole moment (field-independent basis, Debye):
    X=              0.0000    Y=             -0.0000    Z=             -0.0000  Tot=              0.0000
 Quadrupole moment (field-independent basis, Debye-Ang):
   XX=            -11.7504   YY=            -11.4166   ZZ=            -13.1532
   XY=              3.1963   XZ=              0.0000   YZ=              0.0000

 Normal termination of Gaussian 09 at Thu Feb  9 15:43:23 2017.
