 Gaussian 09, Revision E.01,
 Gaussian 09:  ES64L-G09RevE.01 30-Nov-2015

 ----------------------------------------------------------------------
 #rhf/gen scf(symm,tight,novaracc,noincfock,fulldiag) stable(crhf) geom
 =nocrowd test
 ----------------------------------------------------------------------

 hf stability analysis of h10 triangular lattice, y= 0.8642939301619531
 1
 ----------------------------------------------------------------------
 Symbolic Z-matrix:
 Charge =  0 Multiplicity = 1

                         Standard orientation:
 ---------------------------------------------------------------------
 Center     Atomic      Atomic             Coordinates (Angstroms)
 Number     Number       Type             X           Y           Z
 ---------------------------------------------------------------------
      1          1           0        2.114156    1.096872    0.000000
      2          1           0        2.114156    0.004521    0.000000
      3          1           0        1.057078    0.821524    0.000000
      4          1           0        1.057078   -0.270827    0.000000
      5          1           0       -0.000000    0.546176    0.000000
      6          1           0       -0.000000   -0.546176    0.000000
      7          1           0       -1.057078    0.270827   -0.000000
      8          1           0       -1.057078   -0.821524    0.000000
      9          1           0       -2.114156   -0.004521    0.000000
     10          1           0       -2.114156   -1.096872    0.000000
 ---------------------------------------------------------------------

 SCF Done:  E(RHF) =  -4.85281281143     A.U. after   10 cycles
 E2 =    -0.1140106516D+00 EUMP2 =    -0.49668234630447D+01

 The electronic state is 1-AG.
 Alpha  occ. eigenvalues --   -0.86011  -0.73821  -0.54573  -0.39402  -0.29181
 Alpha virt. eigenvalues --   -0.02751   0.21536   0.30775   0.52769   0.82200

 Mulliken charges:
               1
     1  H   -0.073808
     2  H    0.109388
     3  H    0.057067
     4  H   -0.093421
     5  H    0.000774
     6  H    0.000774
     7  H   -0.093421
     8  H    0.057067
     9  H    0.109388
    10  H   -0.073808
 Sum of Mulliken charges =   0.00000

 Dipole moment (field-independent basis, Debye):
    X=             -0.0000    Y=             -0.0000    Z=             -0.0000  Tot=              0.0000
 Quadrupole moment (field-independent basis, Debye-Ang):
   XX=            -15.4832   YY=            -14.3080   ZZ=            -12.8466
   XY=             -1.6734   XZ=              0.0000   YZ=              0.0000

 Normal termination of Gaussian 09 at Thu Feb  9 15:29:19 2017.
