 Gaussian 09, Revision E.01,
 Gaussian 09:  ES64L-G09RevE.01 30-Nov-2015

 ----------------------------------------------------------------------
 #rhf/gen scf(symm,tight,novaracc,noincfock,fulldiag) stable(crhf) geom
 =nocrowd test
 ----------------------------------------------------------------------

 hf stability analysis of h10 triangular lattice, y= 0.8881718021674370
 7
 ----------------------------------------------------------------------
 Symbolic Z-matrix:
 Charge =  0 Multiplicity = 1

                         Standard orientation:
 ---------------------------------------------------------------------
 Center     Atomic      Atomic             Coordinates (Angstroms)
 Number     Number       Type             X           Y           Z
 ---------------------------------------------------------------------
      1          1           0        2.098237    1.215919    0.000000
      2          1           0        2.098237    0.115281    0.000000
      3          1           0        1.049119    0.883119    0.000000
      4          1           0        1.049119   -0.217519   -0.000000
      5          1           0        0.000000    0.550319    0.000000
      6          1           0       -0.000000   -0.550319   -0.000000
      7          1           0       -1.049119    0.217519   -0.000000
      8          1           0       -1.049119   -0.883119   -0.000000
      9          1           0       -2.098237   -0.115281   -0.000000
     10          1           0       -2.098237   -1.215919   -0.000000
 ---------------------------------------------------------------------

 SCF Done:  E(RHF) =  -4.85752195467     A.U. after   10 cycles
 E2 =    -0.1133198705D+00 EUMP2 =    -0.49708418252088D+01

 The electronic state is 1-AG.
 Alpha  occ. eigenvalues --   -0.85807  -0.73909  -0.54669  -0.38684  -0.29467
 Alpha virt. eigenvalues --   -0.02437   0.21894   0.29385   0.53228   0.78116

 Mulliken charges:
               1
     1  H   -0.085256
     2  H    0.122489
     3  H    0.071197
     4  H   -0.102229
     5  H   -0.006200
     6  H   -0.006200
     7  H   -0.102229
     8  H    0.071197
     9  H    0.122489
    10  H   -0.085256
 Sum of Mulliken charges =  -0.00000

 Dipole moment (field-independent basis, Debye):
    X=              0.0000    Y=             -0.0000    Z=             -0.0000  Tot=              0.0000
 Quadrupole moment (field-independent basis, Debye-Ang):
   XX=            -15.1851   YY=            -14.6454   ZZ=            -12.8688
   XY=             -1.8026   XZ=             -0.0000   YZ=             -0.0000

 Normal termination of Gaussian 09 at Thu Feb  9 15:30:37 2017.
