 Gaussian 09, Revision E.01,
 Gaussian 09:  ES64L-G09RevE.01 30-Nov-2015

 ----------------------------------------------------------------------
 #rhf/gen scf(symm,tight,novaracc,noincfock,fulldiag) stable(crhf) geom
 =nocrowd test
 ----------------------------------------------------------------------

 hf stability analysis of h10 triangular lattice, y= 0.9217077477238292
 4
 ----------------------------------------------------------------------
 Symbolic Z-matrix:
 Charge =  0 Multiplicity = 1

                         Standard orientation:
 ---------------------------------------------------------------------
 Center     Atomic      Atomic             Coordinates (Angstroms)
 Number     Number       Type             X           Y           Z
 ---------------------------------------------------------------------
      1          1           0        2.072306    1.377690    0.000000
      2          1           0        2.072306    0.263279    0.000000
      3          1           0        1.036153    0.967448    0.000000
      4          1           0        1.036153   -0.146963    0.000000
      5          1           0        0.000000    0.557206    0.000000
      6          1           0       -0.000000   -0.557206    0.000000
      7          1           0       -1.036153    0.146963   -0.000000
      8          1           0       -1.036153   -0.967448   -0.000000
      9          1           0       -2.072306   -0.263279   -0.000000
     10          1           0       -2.072306   -1.377690   -0.000000
 ---------------------------------------------------------------------

 SCF Done:  E(RHF) =  -4.86333088913     A.U. after   10 cycles
 E2 =    -0.1126502359D+00 EUMP2 =    -0.49759811249884D+01

 The electronic state is 1-AG.
 Alpha  occ. eigenvalues --   -0.85436  -0.74006  -0.54812  -0.37476  -0.29898
 Alpha virt. eigenvalues --   -0.01877   0.22455   0.27244   0.53966   0.72055

 Mulliken charges:
               1
     1  H   -0.094786
     2  H    0.135652
     3  H    0.087026
     4  H   -0.111265
     5  H   -0.016627
     6  H   -0.016627
     7  H   -0.111265
     8  H    0.087026
     9  H    0.135652
    10  H   -0.094786
 Sum of Mulliken charges =  -0.00000

 Dipole moment (field-independent basis, Debye):
    X=             -0.0000    Y=             -0.0000    Z=             -0.0000  Tot=              0.0000
 Quadrupole moment (field-independent basis, Debye-Ang):
   XX=            -14.7197   YY=            -15.0705   ZZ=            -12.9032
   XY=             -1.7975   XZ=             -0.0000   YZ=             -0.0000

 Normal termination of Gaussian 09 at Thu Feb  9 15:32:21 2017.
