 Gaussian 09, Revision E.01,
 Gaussian 09:  ES64L-G09RevE.01 30-Nov-2015

 ----------------------------------------------------------------------
 #rhf/gen scf(symm,tight,novaracc,noincfock,fulldiag) stable(crhf) geom
 =nocrowd test
 ----------------------------------------------------------------------

 ----------------------------------------------------------------------
 hf stability analysis of h10 triangular lattice, y= 1.6808170919806322
 ----------------------------------------------------------------------
 Symbolic Z-matrix:
 Charge =  0 Multiplicity = 1

                         Standard orientation:
 ---------------------------------------------------------------------
 Center     Atomic      Atomic             Coordinates (Angstroms)
 Number     Number       Type             X           Y           Z
 ---------------------------------------------------------------------
      1          1           0        1.346153    4.013790    0.000000
      2          1           0        1.346153    2.298233    0.000000
      3          1           0        0.673076    2.435784    0.000000
      4          1           0        0.673076    0.720227    0.000000
      5          1           0        0.000000    0.857778    0.000000
      6          1           0       -0.000000   -0.857778    0.000000
      7          1           0       -0.673076   -0.720227    0.000000
      8          1           0       -0.673076   -2.435784    0.000000
      9          1           0       -1.346153   -2.298233    0.000000
     10          1           0       -1.346153   -4.013790    0.000000
 ---------------------------------------------------------------------

 SCF Done:  E(RHF) =  -4.92162192591     A.U. after    7 cycles
 E2 =    -0.5980885602D+00 EUMP2 =    -0.55197104860745D+01

 The electronic state is 1-AG.
 Alpha  occ. eigenvalues --   -0.74973  -0.70356  -0.62901  -0.54020  -0.17657
 Alpha virt. eigenvalues --   -0.10867   0.28648   0.37835   0.51671   0.65313

 Mulliken charges:
               1
     1  H   -0.043041
     2  H    0.014055
     3  H    0.019106
     4  H    0.002833
     5  H    0.007047
     6  H    0.007047
     7  H    0.002833
     8  H    0.019106
     9  H    0.014055
    10  H   -0.043041
 Sum of Mulliken charges =   0.00000

 Dipole moment (field-independent basis, Debye):
    X=             -0.0000    Y=             -0.0000    Z=             -0.0000  Tot=              0.0000
 Quadrupole moment (field-independent basis, Debye-Ang):
   XX=            -12.5696   YY=            -22.0574   ZZ=            -13.0442
   XY=             -3.3670   XZ=             -0.0000   YZ=             -0.0000

 Normal termination of Gaussian 09 at Thu Feb  9 15:54:04 2017.
