 Gaussian 09, Revision E.01,
 Gaussian 09:  ES64L-G09RevE.01 30-Nov-2015

 ----------------------------------------------------------------------
 #rhf/gen scf(symm,tight,novaracc,noincfock,fulldiag) stable(crhf) geom
 =nocrowd test
 ----------------------------------------------------------------------

 ----------------------------------------------------------------------
 hf stability analysis of h10 triangular lattice, y= 1.2312185614432660
 ----------------------------------------------------------------------
 Symbolic Z-matrix:
 Charge =  0 Multiplicity = 1

                         Standard orientation:
 ---------------------------------------------------------------------
 Center     Atomic      Atomic             Coordinates (Angstroms)
 Number     Number       Type             X           Y           Z
 ---------------------------------------------------------------------
      1          1           0        1.752874    2.626130    0.000000
      2          1           0        1.752874    1.308636    0.000000
      3          1           0        0.876437    1.642438    0.000000
      4          1           0        0.876437    0.324944    0.000000
      5          1           0        0.000000    0.658747    0.000000
      6          1           0       -0.000000   -0.658747    0.000000
      7          1           0       -0.876437   -0.324944    0.000000
      8          1           0       -0.876437   -1.642438    0.000000
      9          1           0       -1.752874   -1.308636    0.000000
     10          1           0       -1.752874   -2.626130    0.000000
 ---------------------------------------------------------------------

 SCF Done:  E(RHF) =  -4.76124759877     A.U. after   11 cycles
 E2 =    -0.1307443036D+00 EUMP2 =    -0.48919919023287D+01

 The electronic state is 1-AG.
 Alpha  occ. eigenvalues --   -0.78403  -0.72153  -0.55168  -0.34130  -0.18774
 Alpha virt. eigenvalues --    0.01779   0.14797   0.17894   0.39836   0.63100

 Mulliken charges:
               1
     1  H    0.040446
     2  H    0.060738
     3  H    0.114018
     4  H   -0.084380
     5  H   -0.130822
     6  H   -0.130822
     7  H   -0.084380
     8  H    0.114018
     9  H    0.060738
    10  H    0.040446
 Sum of Mulliken charges =  -0.00000

 Dipole moment (field-independent basis, Debye):
    X=              0.0000    Y=              0.0000    Z=              0.0000  Tot=              0.0000
 Quadrupole moment (field-independent basis, Debye-Ang):
   XX=            -11.5620   YY=             -8.7143   ZZ=            -13.1837
   XY=              4.6304   XZ=             -0.0000   YZ=             -0.0000

 Normal termination of Gaussian 09 at Thu Feb  9 15:45:05 2017.
