 Gaussian 09, Revision E.01,
 Gaussian 09:  ES64L-G09RevE.01 30-Nov-2015

 ----------------------------------------------------------------------
 #rhf/gen scf(symm,tight,novaracc,noincfock,fulldiag) stable(crhf) geom
 =nocrowd test
 ----------------------------------------------------------------------

 ----------------------------------------------------------------------
 hf stability analysis of h10 triangular lattice, y= 1.2044987754401906
 ----------------------------------------------------------------------
 Symbolic Z-matrix:
 Charge =  0 Multiplicity = 1

                         Standard orientation:
 ---------------------------------------------------------------------
 Center     Atomic      Atomic             Coordinates (Angstroms)
 Number     Number       Type             X           Y           Z
 ---------------------------------------------------------------------
      1          1           0        1.781438    2.532002    0.000000
      2          1           0        1.781438    1.235633    0.000000
      3          1           0        0.890719    1.590094    0.000000
      4          1           0        0.890719    0.293724    0.000000
      5          1           0       -0.000000    0.648185    0.000000
      6          1           0       -0.000000   -0.648185   -0.000000
      7          1           0       -0.890719   -0.293724    0.000000
      8          1           0       -0.890719   -1.590094    0.000000
      9          1           0       -1.781438   -1.235633    0.000000
     10          1           0       -1.781438   -2.532002    0.000000
 ---------------------------------------------------------------------

 SCF Done:  E(RHF) =  -4.78255544813     A.U. after   10 cycles
 E2 =    -0.1276590653D+00 EUMP2 =    -0.49102145134190D+01

 The electronic state is 1-AG.
 Alpha  occ. eigenvalues --   -0.79156  -0.72488  -0.55237  -0.33792  -0.20665
 Alpha virt. eigenvalues --    0.02468   0.14290   0.19777   0.39799   0.62279

 Mulliken charges:
               1
     1  H    0.020928
     2  H    0.079723
     3  H    0.111575
     4  H   -0.096893
     5  H   -0.115334
     6  H   -0.115334
     7  H   -0.096893
     8  H    0.111575
     9  H    0.079723
    10  H    0.020928
 Sum of Mulliken charges =   0.00000

 Dipole moment (field-independent basis, Debye):
    X=              0.0000    Y=             -0.0000    Z=              0.0000  Tot=              0.0000
 Quadrupole moment (field-independent basis, Debye-Ang):
   XX=            -11.6241   YY=            -10.1371   ZZ=            -13.1704
   XY=              3.9330   XZ=             -0.0000   YZ=             -0.0000

 Normal termination of Gaussian 09 at Thu Feb  9 15:44:15 2017.
