 Gaussian 09, Revision E.01,
 Gaussian 09:  ES64L-G09RevE.01 30-Nov-2015

 ----------------------------------------------------------------------
 #rhf/gen scf(symm,tight,novaracc,noincfock,fulldiag) stable(crhf) geom
 =nocrowd test
 ----------------------------------------------------------------------

 hf stability analysis of h10 triangular lattice, y= 0.8113826706734035
 3
 ----------------------------------------------------------------------
 Symbolic Z-matrix:
 Charge =  0 Multiplicity = 1

                         Standard orientation:
 ---------------------------------------------------------------------
 Center     Atomic      Atomic             Coordinates (Angstroms)
 Number     Number       Type             X           Y           Z
 ---------------------------------------------------------------------
      1          1           0        2.139927    0.821325    0.000000
      2          1           0        2.139927   -0.257871    0.000000
      3          1           0        1.069964    0.680461    0.000000
      4          1           0        1.069964   -0.398735    0.000000
      5          1           0       -0.000000    0.539598    0.000000
      6          1           0       -0.000000   -0.539598    0.000000
      7          1           0       -1.069964    0.398735    0.000000
      8          1           0       -1.069964   -0.680461    0.000000
      9          1           0       -2.139927    0.257871    0.000000
     10          1           0       -2.139927   -0.821325    0.000000
 ---------------------------------------------------------------------

 SCF Done:  E(RHF) =  -4.87880293267     A.U. after   10 cycles
 E2 =    -0.1054723635D+00 EUMP2 =    -0.49842752961260D+01

 The electronic state is 1-AG.
 Alpha  occ. eigenvalues --   -0.87568  -0.74412  -0.52718  -0.46417  -0.30765
 Alpha virt. eigenvalues --   -0.01804   0.15932   0.35657   0.51853   0.87678

 Mulliken charges:
               1
     1  H    0.080409
     2  H   -0.000812
     3  H   -0.031773
     4  H   -0.034946
     5  H   -0.012878
     6  H   -0.012878
     7  H   -0.034946
     8  H   -0.031773
     9  H   -0.000812
    10  H    0.080409
 Sum of Mulliken charges =  -0.00000

 Dipole moment (field-independent basis, Debye):
    X=              0.0000    Y=              0.0000    Z=              0.0000  Tot=              0.0000
 Quadrupole moment (field-independent basis, Debye-Ang):
   XX=            -10.1967   YY=            -17.0489   ZZ=            -12.9571
   XY=              1.9198   XZ=              0.0000   YZ=             -0.0000

 Normal termination of Gaussian 09 at Thu Feb  9 15:26:15 2017.
