 Gaussian 09, Revision E.01,
 Gaussian 09:  ES64L-G09RevE.01 30-Nov-2015

 ----------------------------------------------------------------------
 #rhf/gen scf(symm,tight,novaracc,noincfock,fulldiag) stable(crhf) geom
 =nocrowd test
 ----------------------------------------------------------------------

 ----------------------------------------------------------------------
 hf stability analysis of h10 triangular lattice, y= 1.3004293760427814
 ----------------------------------------------------------------------
 Symbolic Z-matrix:
 Charge =  0 Multiplicity = 1

                         Standard orientation:
 ---------------------------------------------------------------------
 Center     Atomic      Atomic             Coordinates (Angstroms)
 Number     Number       Type             X           Y           Z
 ---------------------------------------------------------------------
      1          1           0        1.680632    2.861547    0.000000
      2          1           0        1.680632    1.487420    0.000000
      3          1           0        0.840316    1.774305    0.000000
      4          1           0        0.840316    0.400178    0.000000
      5          1           0        0.000000    0.687063    0.000000
      6          1           0       -0.000000   -0.687063   -0.000000
      7          1           0       -0.840316   -0.400178   -0.000000
      8          1           0       -0.840316   -1.774305   -0.000000
      9          1           0       -1.680632   -1.487420   -0.000000
     10          1           0       -1.680632   -2.861547   -0.000000
 ---------------------------------------------------------------------

 SCF Done:  E(RHF) =  -4.73385805948     A.U. after   12 cycles
 E2 =    -0.2013381701D+00 EUMP2 =    -0.49351962295514D+01

 The electronic state is 1-AG.
 Alpha  occ. eigenvalues --   -0.83447  -0.73949  -0.59507  -0.41238  -0.11092
 Alpha virt. eigenvalues --    0.01788   0.08772   0.19953   0.38618   0.55215

 Mulliken charges:
               1
     1  H   -0.252915
     2  H    0.048581
     3  H    0.127737
     4  H    0.033895
     5  H    0.042702
     6  H    0.042702
     7  H    0.033895
     8  H    0.127737
     9  H    0.048581
    10  H   -0.252915
 Sum of Mulliken charges =  -0.00000

 Dipole moment (field-independent basis, Debye):
    X=             -0.0000    Y=              0.0000    Z=              0.0000  Tot=              0.0000
 Quadrupole moment (field-independent basis, Debye-Ang):
   XX=            -17.6189   YY=            -31.7390   ZZ=            -12.7899
   XY=            -11.8986   XZ=             -0.0000   YZ=             -0.0000

 Normal termination of Gaussian 09 at Thu Feb  9 15:47:01 2017.
