 Gaussian 09, Revision E.01,
 Gaussian 09:  ES64L-G09RevE.01 30-Nov-2015

 ----------------------------------------------------------------------
 #rhf/gen scf(symm,tight,novaracc,noincfock,fulldiag) stable(crhf) geom
 =nocrowd test
 ----------------------------------------------------------------------

 ----------------------------------------------------------------------
 hf stability analysis of h10 triangular lattice, y= 1.3193366771142014
 ----------------------------------------------------------------------
 Symbolic Z-matrix:
 Charge =  0 Multiplicity = 1

                         Standard orientation:
 ---------------------------------------------------------------------
 Center     Atomic      Atomic             Coordinates (Angstroms)
 Number     Number       Type             X           Y           Z
 ---------------------------------------------------------------------
      1          1           0        1.661419    2.923973    0.000000
      2          1           0        1.661419    1.533956    0.000000
      3          1           0        0.830709    1.809491    0.000000
      4          1           0        0.830709    0.419473    0.000000
      5          1           0        0.000000    0.695009    0.000000
      6          1           0       -0.000000   -0.695009    0.000000
      7          1           0       -0.830709   -0.419473    0.000000
      8          1           0       -0.830709   -1.809491    0.000000
      9          1           0       -1.661419   -1.533956    0.000000
     10          1           0       -1.661419   -2.923973    0.000000
 ---------------------------------------------------------------------

 SCF Done:  E(RHF) =  -4.75126591654     A.U. after   11 cycles
 E2 =    -0.2198561566D+00 EUMP2 =    -0.49711220731251D+01

 The electronic state is 1-AG.
 Alpha  occ. eigenvalues --   -0.82963  -0.73711  -0.59701  -0.41994  -0.11232
 Alpha virt. eigenvalues --    0.01693   0.08775   0.20844   0.39286   0.55831

 Mulliken charges:
               1
     1  H   -0.243089
     2  H    0.049419
     3  H    0.117119
     4  H    0.034637
     5  H    0.041914
     6  H    0.041914
     7  H    0.034637
     8  H    0.117119
     9  H    0.049419
    10  H   -0.243089
 Sum of Mulliken charges =   0.00000

 Dipole moment (field-independent basis, Debye):
    X=             -0.0000    Y=              0.0000    Z=             -0.0000  Tot=              0.0000
 Quadrupole moment (field-independent basis, Debye-Ang):
   XX=            -17.1722   YY=            -31.9960   ZZ=            -12.7953
   XY=            -11.6626   XZ=             -0.0000   YZ=             -0.0000

 Normal termination of Gaussian 09 at Thu Feb  9 15:47:31 2017.
