 Gaussian 09, Revision E.01,
 Gaussian 09:  ES64L-G09RevE.01 30-Nov-2015

 ----------------------------------------------------------------------
 #rhf/gen scf(symm,tight,novaracc,noincfock,fulldiag) stable(crhf) geom
 =nocrowd test
 ----------------------------------------------------------------------

 ----------------------------------------------------------------------
 hf stability analysis of h10 triangular lattice, y= 1.2768661018621295
 ----------------------------------------------------------------------
 Symbolic Z-matrix:
 Charge =  0 Multiplicity = 1

                         Standard orientation:
 ---------------------------------------------------------------------
 Center     Atomic      Atomic             Coordinates (Angstroms)
 Number     Number       Type             X           Y           Z
 ---------------------------------------------------------------------
      1          1           0        1.704907    2.782665    0.000000
      2          1           0        1.704907    1.428103    0.000000
      3          1           0        0.852453    1.729973    0.000000
      4          1           0        0.852453    0.375411    0.000000
      5          1           0        0.000000    0.677281    0.000000
      6          1           0       -0.000000   -0.677281    0.000000
      7          1           0       -0.852453   -0.375411   -0.000000
      8          1           0       -0.852453   -1.729973   -0.000000
      9          1           0       -1.704907   -1.428103   -0.000000
     10          1           0       -1.704907   -2.782665   -0.000000
 ---------------------------------------------------------------------

 SCF Done:  E(RHF) =  -4.72227287236     A.U. after   12 cycles
 E2 =    -0.1378542117D+00 EUMP2 =    -0.48601270840901D+01

 The electronic state is 1-AG.
 Alpha  occ. eigenvalues --   -0.77119  -0.71512  -0.55057  -0.34887  -0.15417
 Alpha virt. eigenvalues --    0.00042   0.14601   0.16580   0.40582   0.64382

 Mulliken charges:
               1
     1  H    0.071493
     2  H    0.009038
     3  H    0.132276
     4  H   -0.039434
     5  H   -0.173373
     6  H   -0.173373
     7  H   -0.039434
     8  H    0.132276
     9  H    0.009038
    10  H    0.071493
 Sum of Mulliken charges =  -0.00000

 Dipole moment (field-independent basis, Debye):
    X=              0.0000    Y=              0.0000    Z=             -0.0000  Tot=              0.0000
 Quadrupole moment (field-independent basis, Debye-Ang):
   XX=            -11.7588   YY=             -6.2384   ZZ=            -13.1826
   XY=              5.4041   XZ=              0.0000   YZ=              0.0000

 Normal termination of Gaussian 09 at Thu Feb  9 15:46:23 2017.
