 Gaussian 09, Revision E.01,
 Gaussian 09:  ES64L-G09RevE.01 30-Nov-2015

 ----------------------------------------------------------------------
 #rhf/gen scf(symm,tight,novaracc,noincfock,fulldiag) stable(crhf) geom
 =nocrowd test
 ----------------------------------------------------------------------

 hf stability analysis of h10 triangular lattice, y= 0.7658271821588952
 3
 ----------------------------------------------------------------------
 Symbolic Z-matrix:
 Charge =  0 Multiplicity = 1

                         Standard orientation:
 ---------------------------------------------------------------------
 Center     Atomic      Atomic             Coordinates (Angstroms)
 Number     Number       Type             X           Y           Z
 ---------------------------------------------------------------------
      1          1           0        2.149007    0.571077    0.000000
      2          1           0        2.149007   -0.503559    0.000000
      3          1           0        1.074504    0.554198    0.000000
      4          1           0        1.074504   -0.520438    0.000000
      5          1           0       -0.000000    0.537318   -0.000000
      6          1           0       -0.000000   -0.537318    0.000000
      7          1           0       -1.074504    0.520438    0.000000
      8          1           0       -1.074504   -0.554198    0.000000
      9          1           0       -2.149007    0.503559    0.000000
     10          1           0       -2.149007   -0.571077    0.000000
 ---------------------------------------------------------------------

 SCF Done:  E(RHF) =  -4.88655311413     A.U. after   10 cycles
 E2 =    -0.1049765114D+00 EUMP2 =    -0.49915296255691D+01

 The electronic state is 1-AG.
 Alpha  occ. eigenvalues --   -0.87768  -0.74530  -0.52639  -0.46870  -0.31217
 Alpha virt. eigenvalues --   -0.01300   0.15332   0.36817   0.51289   0.90334

 Mulliken charges:
               1
     1  H    0.045386
     2  H    0.035562
     3  H   -0.033259
     4  H   -0.033522
     5  H   -0.014168
     6  H   -0.014168
     7  H   -0.033522
     8  H   -0.033259
     9  H    0.035562
    10  H    0.045386
 Sum of Mulliken charges =   0.00000

 Dipole moment (field-independent basis, Debye):
    X=             -0.0000    Y=              0.0000    Z=              0.0000  Tot=              0.0000
 Quadrupole moment (field-independent basis, Debye-Ang):
   XX=            -10.0660   YY=            -17.4037   ZZ=            -12.9544
   XY=              0.2319   XZ=             -0.0000   YZ=              0.0000

 Normal termination of Gaussian 09 at Thu Feb  9 15:23:24 2017.
