 Gaussian 09, Revision E.01,
 Gaussian 09:  ES64L-G09RevE.01 30-Nov-2015

 ----------------------------------------------------------------------
 #rhf/gen scf(symm,tight,novaracc,noincfock,fulldiag) stable(crhf) geom
 =nocrowd test
 ----------------------------------------------------------------------

 ----------------------------------------------------------------------
 hf stability analysis of h10 triangular lattice, y= 1.1347541156816874
 ----------------------------------------------------------------------
 Symbolic Z-matrix:
 Charge =  0 Multiplicity = 1

                         Standard orientation:
 ---------------------------------------------------------------------
 Center     Atomic      Atomic             Coordinates (Angstroms)
 Number     Number       Type             X           Y           Z
 ---------------------------------------------------------------------
      1          1           0        1.857034    2.276355    0.000000
      2          1           0        1.857034    1.032758    0.000000
      3          1           0        0.928517    1.449077    0.000000
      4          1           0        0.928517    0.205480    0.000000
      5          1           0        0.000000    0.621798    0.000000
      6          1           0       -0.000000   -0.621798    0.000000
      7          1           0       -0.928517   -0.205480    0.000000
      8          1           0       -0.928517   -1.449077    0.000000
      9          1           0       -1.857034   -1.032758    0.000000
     10          1           0       -1.857034   -2.276355    0.000000
 ---------------------------------------------------------------------

 SCF Done:  E(RHF) =  -4.82822623963     A.U. after   10 cycles
 E2 =    -0.1208945982D+00 EUMP2 =    -0.49491208378648D+01

 The electronic state is 1-AG.
 Alpha  occ. eigenvalues --   -0.81064  -0.73236  -0.55332  -0.32983  -0.25414
 Alpha virt. eigenvalues --    0.02849   0.14909   0.23460   0.42054   0.60089

 Mulliken charges:
               1
     1  H   -0.027169
     2  H    0.114841
     3  H    0.112248
     4  H   -0.113849
     5  H   -0.086070
     6  H   -0.086070
     7  H   -0.113849
     8  H    0.112248
     9  H    0.114841
    10  H   -0.027169
 Sum of Mulliken charges =  -0.00000

 Dipole moment (field-independent basis, Debye):
    X=             -0.0000    Y=             -0.0000    Z=              0.0000  Tot=              0.0000
 Quadrupole moment (field-independent basis, Debye-Ang):
   XX=            -12.0501   YY=            -13.1115   ZZ=            -13.1202
   XY=              2.0164   XZ=              0.0000   YZ=             -0.0000

 Normal termination of Gaussian 09 at Thu Feb  9 15:41:52 2017.
