 Gaussian 09, Revision E.01,
 Gaussian 09:  ES64L-G09RevE.01 30-Nov-2015

 ----------------------------------------------------------------------
 #rhf/gen scf(symm,tight,novaracc,noincfock,fulldiag) stable(crhf) geom
 =nocrowd test
 ----------------------------------------------------------------------

 hf stability analysis of h10 triangular lattice, y= 0.8221863201757335
 6
 ----------------------------------------------------------------------
 Symbolic Z-matrix:
 Charge =  0 Multiplicity = 1

                         Standard orientation:
 ---------------------------------------------------------------------
 Center     Atomic      Atomic             Coordinates (Angstroms)
 Number     Number       Type             X           Y           Z
 ---------------------------------------------------------------------
      1          1           0        2.135869    0.878912    0.000000
      2          1           0        2.135869   -0.202335    0.000000
      3          1           0        1.067935    0.709767    0.000000
      4          1           0        1.067935   -0.371479    0.000000
      5          1           0        0.000000    0.540623    0.000000
      6          1           0       -0.000000   -0.540623    0.000000
      7          1           0       -1.067935    0.371479    0.000000
      8          1           0       -1.067935   -0.709767    0.000000
      9          1           0       -2.135869    0.202335    0.000000
     10          1           0       -2.135869   -0.878912    0.000000
 ---------------------------------------------------------------------

 SCF Done:  E(RHF) =  -4.87528641109     A.U. after   10 cycles
 E2 =    -0.1057003797D+00 EUMP2 =    -0.49809867907947D+01

 The electronic state is 1-AG.
 Alpha  occ. eigenvalues --   -0.87479  -0.74359  -0.52752  -0.46214  -0.30565
 Alpha virt. eigenvalues --   -0.02017   0.16189   0.35168   0.52080   0.86529

 Mulliken charges:
               1
     1  H    0.088037
     2  H   -0.009070
     3  H   -0.031177
     4  H   -0.035528
     5  H   -0.012262
     6  H   -0.012262
     7  H   -0.035528
     8  H   -0.031177
     9  H   -0.009070
    10  H    0.088037
 Sum of Mulliken charges =  -0.00000

 Dipole moment (field-independent basis, Debye):
    X=              0.0000    Y=             -0.0000    Z=              0.0000  Tot=              0.0000
 Quadrupole moment (field-independent basis, Debye-Ang):
   XX=            -10.2563   YY=            -16.8903   ZZ=            -12.9584
   XY=              2.2966   XZ=              0.0000   YZ=             -0.0000

 Normal termination of Gaussian 09 at Thu Feb  9 15:26:55 2017.
