 Gaussian 09, Revision E.01,
 Gaussian 09:  ES64L-G09RevE.01 30-Nov-2015

 ----------------------------------------------------------------------
 #rhf/gen scf(symm,tight,novaracc,noincfock,fulldiag) stable(crhf) geom
 =nocrowd test
 ----------------------------------------------------------------------

 ----------------------------------------------------------------------
 hf stability analysis of h10 triangular lattice, y= 1.6660489144325314
 ----------------------------------------------------------------------
 Symbolic Z-matrix:
 Charge =  0 Multiplicity = 1

                         Standard orientation:
 ---------------------------------------------------------------------
 Center     Atomic      Atomic             Coordinates (Angstroms)
 Number     Number       Type             X           Y           Z
 ---------------------------------------------------------------------
      1          1           0        1.357108    3.971989   -0.000000
      2          1           0        1.357108    2.270282   -0.000000
      3          1           0        0.678554    2.411422   -0.000000
      4          1           0        0.678554    0.709714   -0.000000
      5          1           0       -0.000000    0.850854    0.000000
      6          1           0       -0.000000   -0.850854   -0.000000
      7          1           0       -0.678554   -0.709714   -0.000000
      8          1           0       -0.678554   -2.411422   -0.000000
      9          1           0       -1.357108   -2.270282   -0.000000
     10          1           0       -1.357108   -3.971989   -0.000000
 ---------------------------------------------------------------------

 SCF Done:  E(RHF) =  -4.92186266147     A.U. after    7 cycles
 E2 =    -0.5848788668D+00 EUMP2 =    -0.55067415282270D+01

 The electronic state is 1-AG.
 Alpha  occ. eigenvalues --   -0.75138  -0.70394  -0.62733  -0.53560  -0.17475
 Alpha virt. eigenvalues --   -0.10572   0.27929   0.37240   0.51264   0.65092

 Mulliken charges:
               1
     1  H   -0.047018
     2  H    0.015102
     3  H    0.020830
     4  H    0.003313
     5  H    0.007774
     6  H    0.007774
     7  H    0.003313
     8  H    0.020830
     9  H    0.015102
    10  H   -0.047018
 Sum of Mulliken charges =  -0.00000

 Dipole moment (field-independent basis, Debye):
    X=             -0.0000    Y=             -0.0000    Z=              0.0000  Tot=              0.0000
 Quadrupole moment (field-independent basis, Debye-Ang):
   XX=            -12.6203   YY=            -22.4370   ZZ=            -13.0325
   XY=             -3.5676   XZ=             -0.0000   YZ=              0.0000

 Normal termination of Gaussian 09 at Thu Feb  9 15:53:52 2017.
