 Gaussian 09, Revision E.01,
 Gaussian 09:  ES64L-G09RevE.01 30-Nov-2015

 ----------------------------------------------------------------------
 #rhf/gen scf(symm,tight,novaracc,noincfock,fulldiag) stable(crhf) geom
 =nocrowd test
 ----------------------------------------------------------------------

 ----------------------------------------------------------------------
 hf stability analysis of h10 triangular lattice, y= 1.0431336090657632
 ----------------------------------------------------------------------
 Symbolic Z-matrix:
 Charge =  0 Multiplicity = 1

                         Standard orientation:
 ---------------------------------------------------------------------
 Center     Atomic      Atomic             Coordinates (Angstroms)
 Number     Number       Type             X           Y           Z
 ---------------------------------------------------------------------
      1          1           0        1.955670    1.914526    0.000000
      2          1           0        1.955670    0.733651    0.000000
      3          1           0        0.977835    1.252481    0.000000
      4          1           0        0.977835    0.071607    0.000000
      5          1           0        0.000000    0.590437    0.000000
      6          1           0       -0.000000   -0.590437    0.000000
      7          1           0       -0.977835   -0.071607   -0.000000
      8          1           0       -0.977835   -1.252481   -0.000000
      9          1           0       -1.955670   -0.733651   -0.000000
     10          1           0       -1.955670   -1.914526   -0.000000
 ---------------------------------------------------------------------

 SCF Done:  E(RHF) =  -4.86226400693     A.U. after   10 cycles
 E2 =    -0.1147278448D+00 EUMP2 =    -0.49769918517385D+01

 The electronic state is 1-AG.
 Alpha  occ. eigenvalues --   -0.83302  -0.73879  -0.55241  -0.32399  -0.30589
 Alpha virt. eigenvalues --    0.00995   0.19240   0.24323   0.51679   0.57264

 Mulliken charges:
               1
     1  H   -0.076546
     2  H    0.141325
     3  H    0.112166
     4  H   -0.121445
     5  H   -0.055499
     6  H   -0.055499
     7  H   -0.121445
     8  H    0.112166
     9  H    0.141325
    10  H   -0.076546
 Sum of Mulliken charges =   0.00000

 Dipole moment (field-independent basis, Debye):
    X=              0.0000    Y=             -0.0000    Z=             -0.0000  Tot=              0.0000
 Quadrupole moment (field-independent basis, Debye-Ang):
   XX=            -13.0081   YY=            -15.1954   ZZ=            -13.0341
   XY=             -0.2182   XZ=              0.0000   YZ=             -0.0000

 Normal termination of Gaussian 09 at Thu Feb  9 15:38:11 2017.
