 Gaussian 09, Revision E.01,
 Gaussian 09:  ES64L-G09RevE.01 30-Nov-2015

 ----------------------------------------------------------------------
 #rhf/gen scf(symm,tight,novaracc,noincfock,fulldiag) stable(crhf) geom
 =nocrowd test
 ----------------------------------------------------------------------

 ----------------------------------------------------------------------
 hf stability analysis of h10 triangular lattice, y= 1.6204752664049629
 ----------------------------------------------------------------------
 Symbolic Z-matrix:
 Charge =  0 Multiplicity = 1

                         Standard orientation:
 ---------------------------------------------------------------------
 Center     Atomic      Atomic             Coordinates (Angstroms)
 Number     Number       Type             X           Y           Z
 ---------------------------------------------------------------------
      1          1           0        1.391893    3.841923    0.000000
      2          1           0        1.391893    2.182743    0.000000
      3          1           0        0.695947    2.335756    0.000000
      4          1           0        0.695947    0.676576    0.000000
      5          1           0        0.000000    0.829590    0.000000
      6          1           0       -0.000000   -0.829590    0.000000
      7          1           0       -0.695947   -0.676576    0.000000
      8          1           0       -0.695947   -2.335756    0.000000
      9          1           0       -1.391893   -2.182743    0.000000
     10          1           0       -1.391893   -3.841923    0.000000
 ---------------------------------------------------------------------

 SCF Done:  E(RHF) =  -4.91894997206     A.U. after    8 cycles
 E2 =    -0.5418154794D+00 EUMP2 =    -0.54607654514775D+01

 The electronic state is 1-AG.
 Alpha  occ. eigenvalues --   -0.75728  -0.70560  -0.62236  -0.52120  -0.16852
 Alpha virt. eigenvalues --   -0.09551   0.25630   0.35348   0.49951   0.64336

 Mulliken charges:
               1
     1  H   -0.061361
     2  H    0.018749
     3  H    0.026928
     4  H    0.005209
     5  H    0.010475
     6  H    0.010475
     7  H    0.005209
     8  H    0.026928
     9  H    0.018749
    10  H   -0.061361
 Sum of Mulliken charges =  -0.00000

 Dipole moment (field-independent basis, Debye):
    X=             -0.0000    Y=             -0.0000    Z=             -0.0000  Tot=              0.0000
 Quadrupole moment (field-independent basis, Debye-Ang):
   XX=            -12.8228   YY=            -23.7122   ZZ=            -12.9964
   XY=             -4.2703   XZ=             -0.0000   YZ=             -0.0000

 Normal termination of Gaussian 09 at Thu Feb  9 15:53:15 2017.
