 Gaussian 09, Revision E.01,
 Gaussian 09:  ES64L-G09RevE.01 30-Nov-2015

 ----------------------------------------------------------------------
 #rhf/gen scf(symm,tight,novaracc,noincfock,fulldiag) stable(crhf) geom
 =nocrowd test
 ----------------------------------------------------------------------

 ----------------------------------------------------------------------
 hf stability analysis of h10 triangular lattice, y= 1.5537426650355510
 ----------------------------------------------------------------------
 Symbolic Z-matrix:
 Charge =  0 Multiplicity = 1

                         Standard orientation:
 ---------------------------------------------------------------------
 Center     Atomic      Atomic             Coordinates (Angstroms)
 Number     Number       Type             X           Y           Z
 ---------------------------------------------------------------------
      1          1           0        1.445582    3.648177    0.000000
      2          1           0        1.445582    2.050618    0.000000
      3          1           0        0.722791    2.223478    0.000000
      4          1           0        0.722791    0.625919    0.000000
      5          1           0       -0.000000    0.798779    0.000000
      6          1           0       -0.000000   -0.798779    0.000000
      7          1           0       -0.722791   -0.625919    0.000000
      8          1           0       -0.722791   -2.223478    0.000000
      9          1           0       -1.445582   -2.050618    0.000000
     10          1           0       -1.445582   -3.648177    0.000000
 ---------------------------------------------------------------------

 SCF Done:  E(RHF) =  -4.90423829945     A.U. after    8 cycles
 E2 =    -0.4731107790D+00 EUMP2 =    -0.53773490784030D+01

 The electronic state is 1-AG.
 Alpha  occ. eigenvalues --   -0.76837  -0.70952  -0.61573  -0.49973  -0.15770
 Alpha virt. eigenvalues --   -0.07715   0.22026   0.32409   0.47868   0.62992

 Mulliken charges:
               1
     1  H   -0.088857
     2  H    0.025273
     3  H    0.038294
     4  H    0.009408
     5  H    0.015883
     6  H    0.015883
     7  H    0.009408
     8  H    0.038294
     9  H    0.025273
    10  H   -0.088857
 Sum of Mulliken charges =  -0.00000

 Dipole moment (field-independent basis, Debye):
    X=              0.0000    Y=             -0.0000    Z=             -0.0000  Tot=              0.0000
 Quadrupole moment (field-independent basis, Debye-Ang):
   XX=            -13.2775   YY=            -25.8386   ZZ=            -12.9450
   XY=             -5.5539   XZ=             -0.0000   YZ=             -0.0000

 Normal termination of Gaussian 09 at Thu Feb  9 15:52:14 2017.
