 Gaussian 09, Revision E.01,
 Gaussian 09:  ES64L-G09RevE.01 30-Nov-2015

 ----------------------------------------------------------------------
 #rhf/gen scf(symm,tight,novaracc,noincfock,fulldiag) stable(crhf) geom
 =nocrowd test
 ----------------------------------------------------------------------

 ----------------------------------------------------------------------
 hf stability analysis of h10 triangular lattice, y= 1.2786398465481190
 ----------------------------------------------------------------------
 Symbolic Z-matrix:
 Charge =  0 Multiplicity = 1

                         Standard orientation:
 ---------------------------------------------------------------------
 Center     Atomic      Atomic             Coordinates (Angstroms)
 Number     Number       Type             X           Y           Z
 ---------------------------------------------------------------------
      1          1           0        1.703067    2.788647    0.000000
      2          1           0        1.703067    1.432622    0.000000
      3          1           0        0.851534    1.733329    0.000000
      4          1           0        0.851534    0.377305    0.000000
      5          1           0        0.000000    0.678012    0.000000
      6          1           0       -0.000000   -0.678012    0.000000
      7          1           0       -0.851534   -0.377305    0.000000
      8          1           0       -0.851534   -1.733329    0.000000
      9          1           0       -1.703067   -1.432622    0.000000
     10          1           0       -1.703067   -2.788647    0.000000
 ---------------------------------------------------------------------

 SCF Done:  E(RHF) =  -4.71411592105     A.U. after   12 cycles
 E2 =    -0.1816170317D+00 EUMP2 =    -0.48957329527287D+01

 The electronic state is 1-AG.
 Alpha  occ. eigenvalues --   -0.83916  -0.74179  -0.59237  -0.40316  -0.11110
 Alpha virt. eigenvalues --    0.01294   0.09553   0.19002   0.37911   0.54577

 Mulliken charges:
               1
     1  H   -0.259547
     2  H    0.045891
     3  H    0.140124
     4  H    0.030029
     5  H    0.043503
     6  H    0.043503
     7  H    0.030029
     8  H    0.140124
     9  H    0.045891
    10  H   -0.259547
 Sum of Mulliken charges =  -0.00000

 Dipole moment (field-independent basis, Debye):
    X=             -0.0000    Y=             -0.0000    Z=             -0.0000  Tot=              0.0000
 Quadrupole moment (field-independent basis, Debye-Ang):
   XX=            -18.1048   YY=            -31.0585   ZZ=            -12.7872
   XY=            -11.9319   XZ=              0.0000   YZ=              0.0000

 Normal termination of Gaussian 09 at Thu Feb  9 15:46:26 2017.
