 Gaussian 09, Revision E.01,
 Gaussian 09:  ES64L-G09RevE.01 30-Nov-2015

 ----------------------------------------------------------------------
 #rhf/gen scf(symm,tight,novaracc,noincfock,fulldiag) stable(crhf) geom
 =nocrowd test
 ----------------------------------------------------------------------

 hf stability analysis of h10 triangular lattice, y= 0.7759222389953119
 9
 ----------------------------------------------------------------------
 Symbolic Z-matrix:
 Charge =  0 Multiplicity = 1

                         Standard orientation:
 ---------------------------------------------------------------------
 Center     Atomic      Atomic             Coordinates (Angstroms)
 Number     Number       Type             X           Y           Z
 ---------------------------------------------------------------------
      1          1           0        2.148197    0.627557    0.000000
      2          1           0        2.148197   -0.447485    0.000000
      3          1           0        1.074099    0.582539    0.000000
      4          1           0        1.074099   -0.492503    0.000000
      5          1           0        0.000000    0.537521    0.000000
      6          1           0       -0.000000   -0.537521    0.000000
      7          1           0       -1.074099    0.492503   -0.000000
      8          1           0       -1.074099   -0.582539    0.000000
      9          1           0       -2.148197    0.447485   -0.000000
     10          1           0       -2.148197   -0.627557    0.000000
 ---------------------------------------------------------------------

 SCF Done:  E(RHF) =  -4.88586829559     A.U. after   10 cycles
 E2 =    -0.1050199649D+00 EUMP2 =    -0.49908882605124D+01

 The electronic state is 1-AG.
 Alpha  occ. eigenvalues --   -0.87750  -0.74519  -0.52647  -0.46829  -0.31177
 Alpha virt. eigenvalues --   -0.01347   0.15387   0.36709   0.51343   0.90092

 Mulliken charges:
               1
     1  H    0.053505
     2  H    0.027326
     3  H   -0.033023
     4  H   -0.033751
     5  H   -0.014057
     6  H   -0.014057
     7  H   -0.033751
     8  H   -0.033023
     9  H    0.027326
    10  H    0.053505
 Sum of Mulliken charges =  -0.00000

 Dipole moment (field-independent basis, Debye):
    X=              0.0000    Y=             -0.0000    Z=              0.0000  Tot=              0.0000
 Quadrupole moment (field-independent basis, Debye-Ang):
   XX=            -10.0775   YY=            -17.3720   ZZ=            -12.9546
   XY=              0.6181   XZ=             -0.0000   YZ=              0.0000

 Normal termination of Gaussian 09 at Thu Feb  9 15:24:02 2017.
