 Gaussian 09, Revision E.01,
 Gaussian 09:  ES64L-G09RevE.01 30-Nov-2015

 ----------------------------------------------------------------------
 #rhf/gen scf(symm,tight,novaracc,noincfock,fulldiag) stable(crhf) geom
 =nocrowd test
 ----------------------------------------------------------------------

 ----------------------------------------------------------------------
 hf stability analysis of h10 triangular lattice, y= 1.1482009689904107
 ----------------------------------------------------------------------
 Symbolic Z-matrix:
 Charge =  0 Multiplicity = 1

                         Standard orientation:
 ---------------------------------------------------------------------
 Center     Atomic      Atomic             Coordinates (Angstroms)
 Number     Number       Type             X           Y           Z
 ---------------------------------------------------------------------
      1          1           0        1.842397    2.326853   -0.000000
      2          1           0        1.842397    1.073376   -0.000000
      3          1           0        0.921198    1.476796   -0.000000
      4          1           0        0.921198    0.223319   -0.000000
      5          1           0        0.000000    0.626738   -0.000000
      6          1           0       -0.000000   -0.626738   -0.000000
      7          1           0       -0.921198   -0.223319   -0.000000
      8          1           0       -0.921198   -1.476796   -0.000000
      9          1           0       -1.842397   -1.073376   -0.000000
     10          1           0       -1.842397   -2.326853   -0.000000
 ---------------------------------------------------------------------

 SCF Done:  E(RHF) =  -4.82067453552     A.U. after   10 cycles
 E2 =    -0.1220701924D+00 EUMP2 =    -0.49427447278957D+01

 The electronic state is 1-AG.
 Alpha  occ. eigenvalues --   -0.80706  -0.73108  -0.55325  -0.33135  -0.24524
 Alpha virt. eigenvalues --    0.02941   0.14566   0.22953   0.41286   0.60512

 Mulliken charges:
               1
     1  H   -0.018402
     2  H    0.109202
     3  H    0.111848
     4  H   -0.111625
     5  H   -0.091022
     6  H   -0.091022
     7  H   -0.111625
     8  H    0.111848
     9  H    0.109202
    10  H   -0.018402
 Sum of Mulliken charges =   0.00000

 Dipole moment (field-independent basis, Debye):
    X=             -0.0000    Y=             -0.0000    Z=             -0.0000  Tot=              0.0000
 Quadrupole moment (field-independent basis, Debye-Ang):
   XX=            -11.9449   YY=            -12.6298   ZZ=            -13.1311
   XY=              2.3818   XZ=              0.0000   YZ=              0.0000

 Normal termination of Gaussian 09 at Thu Feb  9 15:42:21 2017.
