 Gaussian 09, Revision E.01,
 Gaussian 09:  ES64L-G09RevE.01 30-Nov-2015

 ----------------------------------------------------------------------
 #rhf/gen scf(symm,tight,novaracc,noincfock,fulldiag) stable(crhf) geom
 =nocrowd test
 ----------------------------------------------------------------------

 ----------------------------------------------------------------------
 hf stability analysis of h10 triangular lattice, y= 1.9201256900634951
 ----------------------------------------------------------------------
 Symbolic Z-matrix:
 Charge =  0 Multiplicity = 1

                         Standard orientation:
 ---------------------------------------------------------------------
 Center     Atomic      Atomic             Coordinates (Angstroms)
 Number     Number       Type             X           Y           Z
 ---------------------------------------------------------------------
      1          1           0        1.188254    4.672739   -0.000000
      2          1           0        1.188254    2.729213   -0.000000
      3          1           0        0.594127    2.822251   -0.000000
      4          1           0        0.594127    0.878725   -0.000000
      5          1           0       -0.000000    0.971763   -0.000000
      6          1           0       -0.000000   -0.971763   -0.000000
      7          1           0       -0.594127   -0.878725   -0.000000
      8          1           0       -0.594127   -2.822251   -0.000000
      9          1           0       -1.188254   -2.729213   -0.000000
     10          1           0       -1.188254   -4.672739   -0.000000
 ---------------------------------------------------------------------

 SCF Done:  E(RHF) =  -4.84766051225     A.U. after    6 cycles
 E2 =    -0.7677863193D+00 EUMP2 =    -0.56154468315215D+01

 The electronic state is 1-AG.
 Alpha  occ. eigenvalues --   -0.73519  -0.70517  -0.65841  -0.60782  -0.19568
 Alpha virt. eigenvalues --   -0.13981   0.38992   0.46431   0.57380   0.67928

 Mulliken charges:
               1
     1  H   -0.008671
     2  H    0.003972
     3  H    0.003329
     4  H   -0.000078
     5  H    0.001448
     6  H    0.001448
     7  H   -0.000078
     8  H    0.003329
     9  H    0.003972
    10  H   -0.008671
 Sum of Mulliken charges =  -0.00000

 Dipole moment (field-independent basis, Debye):
    X=              0.0000    Y=             -0.0000    Z=              0.0000  Tot=              0.0000
 Quadrupole moment (field-independent basis, Debye-Ang):
   XX=            -12.3302   YY=            -17.8694   ZZ=            -13.2290
   XY=             -1.3953   XZ=              0.0000   YZ=              0.0000

 Normal termination of Gaussian 09 at Thu Feb  9 15:56:36 2017.
