 Gaussian 09, Revision E.01,
 Gaussian 09:  ES64L-G09RevE.01 30-Nov-2015

 ----------------------------------------------------------------------
 #rhf/gen scf(symm,tight,novaracc,noincfock,fulldiag) stable(crhf) geom
 =nocrowd test
 ----------------------------------------------------------------------

 hf stability analysis of h10 triangular lattice, y= 0.9715957050503719
 6
 ----------------------------------------------------------------------
 Symbolic Z-matrix:
 Charge =  0 Multiplicity = 1

                         Standard orientation:
 ---------------------------------------------------------------------
 Center     Atomic      Atomic             Coordinates (Angstroms)
 Number     Number       Type             X           Y           Z
 ---------------------------------------------------------------------
      1          1           0        2.027737    1.607098    0.000000
      2          1           0        2.027737    0.468193    0.000000
      3          1           0        1.013868    1.088276    0.000000
      4          1           0        1.013868   -0.050630    0.000000
      5          1           0       -0.000000    0.569453    0.000000
      6          1           0       -0.000000   -0.569453    0.000000
      7          1           0       -1.013868    0.050630    0.000000
      8          1           0       -1.013868   -1.088276    0.000000
      9          1           0       -2.027737   -0.468193    0.000000
     10          1           0       -2.027737   -1.607098    0.000000
 ---------------------------------------------------------------------

 SCF Done:  E(RHF) =  -4.86808266556     A.U. after   10 cycles
 E2 =    -0.1125915224D+00 EUMP2 =    -0.49806741879401D+01

 The electronic state is 1-AG.
 Alpha  occ. eigenvalues --   -0.84700  -0.74055  -0.55017  -0.35318  -0.30537
 Alpha virt. eigenvalues --   -0.00816   0.23333   0.23881   0.55225   0.63072

 Mulliken charges:
               1
     1  H   -0.096077
     2  H    0.145045
     3  H    0.102594
     4  H   -0.118960
     5  H   -0.032601
     6  H   -0.032601
     7  H   -0.118960
     8  H    0.102594
     9  H    0.145045
    10  H   -0.096077
 Sum of Mulliken charges =  -0.00000

 Dipole moment (field-independent basis, Debye):
    X=              0.0000    Y=             -0.0000    Z=              0.0000  Tot=              0.0000
 Quadrupole moment (field-independent basis, Debye-Ang):
   XX=            -13.9893   YY=            -15.4554   ZZ=            -12.9573
   XY=             -1.4121   XZ=             -0.0000   YZ=             -0.0000

 Normal termination of Gaussian 09 at Thu Feb  9 15:34:46 2017.
