 Gaussian 09, Revision E.01,
 Gaussian 09:  ES64L-G09RevE.01 30-Nov-2015

 ----------------------------------------------------------------------
 #rhf/gen scf(symm,tight,novaracc,noincfock,fulldiag) stable(crhf) geom
 =nocrowd test
 ----------------------------------------------------------------------

 hf stability analysis of h10 triangular lattice, y= 0.8028687256160738
 1
 ----------------------------------------------------------------------
 Symbolic Z-matrix:
 Charge =  0 Multiplicity = 1

                         Standard orientation:
 ---------------------------------------------------------------------
 Center     Atomic      Atomic             Coordinates (Angstroms)
 Number     Number       Type             X           Y           Z
 ---------------------------------------------------------------------
      1          1           0        2.142641    0.775464   -0.000000
      2          1           0        2.142641   -0.302365   -0.000000
      3          1           0        1.071320    0.657190   -0.000000
      4          1           0        1.071320   -0.420640   -0.000000
      5          1           0        0.000000    0.538915    0.000000
      6          1           0       -0.000000   -0.538915   -0.000000
      7          1           0       -1.071320    0.420640   -0.000000
      8          1           0       -1.071320   -0.657190   -0.000000
      9          1           0       -2.142641    0.302365   -0.000000
     10          1           0       -2.142641   -0.775464   -0.000000
 ---------------------------------------------------------------------

 SCF Done:  E(RHF) =  -4.88113633660     A.U. after   10 cycles
 E2 =    -0.1053221202D+00 EUMP2 =    -0.49864584567666D+01

 The electronic state is 1-AG.
 Alpha  occ. eigenvalues --   -0.87627  -0.74447  -0.52695  -0.46552  -0.30900
 Alpha virt. eigenvalues --   -0.01657   0.15757   0.35994   0.51693   0.88460

 Mulliken charges:
               1
     1  H    0.074199
     2  H    0.005810
     3  H   -0.032159
     4  H   -0.034574
     5  H   -0.013276
     6  H   -0.013276
     7  H   -0.034574
     8  H   -0.032159
     9  H    0.005810
    10  H    0.074199
 Sum of Mulliken charges =  -0.00000

 Dipole moment (field-independent basis, Debye):
    X=              0.0000    Y=             -0.0000    Z=             -0.0000  Tot=              0.0000
 Quadrupole moment (field-independent basis, Debye-Ang):
   XX=            -10.1573   YY=            -17.1549   ZZ=            -12.9563
   XY=              1.6160   XZ=              0.0000   YZ=             -0.0000

 Normal termination of Gaussian 09 at Thu Feb  9 15:25:44 2017.
