 Gaussian 09, Revision E.01,
 Gaussian 09:  ES64L-G09RevE.01 30-Nov-2015

 ----------------------------------------------------------------------
 #rhf/gen scf(symm,tight,novaracc,noincfock,fulldiag) stable(crhf) geom
 =nocrowd test
 ----------------------------------------------------------------------

 hf stability analysis of h10 triangular lattice, y= 0.8192872786572217
 3
 ----------------------------------------------------------------------
 Symbolic Z-matrix:
 Charge =  0 Multiplicity = 1

                         Standard orientation:
 ---------------------------------------------------------------------
 Center     Atomic      Atomic             Coordinates (Angstroms)
 Number     Number       Type             X           Y           Z
 ---------------------------------------------------------------------
      1          1           0        2.137024    0.863526    0.000000
      2          1           0        2.137024   -0.217137   -0.000000
      3          1           0        1.068512    0.701928    0.000000
      4          1           0        1.068512   -0.378734   -0.000000
      5          1           0        0.000000    0.540331    0.000000
      6          1           0       -0.000000   -0.540331    0.000000
      7          1           0       -1.068512    0.378734   -0.000000
      8          1           0       -1.068512   -0.701928    0.000000
      9          1           0       -2.137024    0.217137   -0.000000
     10          1           0       -2.137024   -0.863526    0.000000
 ---------------------------------------------------------------------

 SCF Done:  E(RHF) =  -4.87629020617     A.U. after   10 cycles
 E2 =    -0.1056350944D+00 EUMP2 =    -0.49819253005976D+01

 The electronic state is 1-AG.
 Alpha  occ. eigenvalues --   -0.87504  -0.74374  -0.52743  -0.46272  -0.30622
 Alpha virt. eigenvalues --   -0.01957   0.16116   0.35306   0.52016   0.86853

 Mulliken charges:
               1
     1  H    0.086019
     2  H   -0.006870
     3  H   -0.031350
     4  H   -0.035358
     5  H   -0.012440
     6  H   -0.012440
     7  H   -0.035358
     8  H   -0.031350
     9  H   -0.006870
    10  H    0.086019
 Sum of Mulliken charges =   0.00000

 Dipole moment (field-independent basis, Debye):
    X=             -0.0000    Y=             -0.0000    Z=              0.0000  Tot=              0.0000
 Quadrupole moment (field-independent basis, Debye-Ang):
   XX=            -10.2393   YY=            -16.9354   ZZ=            -12.9580
   XY=              2.1965   XZ=             -0.0000   YZ=              0.0000

 Normal termination of Gaussian 09 at Thu Feb  9 15:26:44 2017.
