 Gaussian 09, Revision E.01,
 Gaussian 09:  ES64L-G09RevE.01 30-Nov-2015

 ----------------------------------------------------------------------
 #rhf/gen scf(symm,tight,novaracc,noincfock,fulldiag) stable(crhf) geom
 =nocrowd test
 ----------------------------------------------------------------------

 ----------------------------------------------------------------------
 hf stability analysis of h10 triangular lattice, y= 1.3450195894037844
 ----------------------------------------------------------------------
 Symbolic Z-matrix:
 Charge =  0 Multiplicity = 1

                         Standard orientation:
 ---------------------------------------------------------------------
 Center     Atomic      Atomic             Coordinates (Angstroms)
 Number     Number       Type             X           Y           Z
 ---------------------------------------------------------------------
      1          1           0        1.635722    3.007611   -0.000000
      2          1           0        1.635722    1.595757   -0.000000
      3          1           0        0.817861    1.856769   -0.000000
      4          1           0        0.817861    0.444915   -0.000000
      5          1           0        0.000000    0.705927   -0.000000
      6          1           0       -0.000000   -0.705927   -0.000000
      7          1           0       -0.817861   -0.444915   -0.000000
      8          1           0       -0.817861   -1.856769   -0.000000
      9          1           0       -1.635722   -1.595757   -0.000000
     10          1           0       -1.635722   -3.007611   -0.000000
 ---------------------------------------------------------------------

 SCF Done:  E(RHF) =  -4.77456186616     A.U. after   11 cycles
 E2 =    -0.2460293945D+00 EUMP2 =    -0.50205912606746D+01

 The electronic state is 1-AG.
 Alpha  occ. eigenvalues --   -0.82238  -0.73356  -0.59925  -0.42965  -0.11583
 Alpha virt. eigenvalues --    0.00905   0.09616   0.22112   0.40242   0.56717

 Mulliken charges:
               1
     1  H   -0.226108
     2  H    0.048844
     3  H    0.103749
     4  H    0.033320
     5  H    0.040196
     6  H    0.040196
     7  H    0.033320
     8  H    0.103749
     9  H    0.048844
    10  H   -0.226108
 Sum of Mulliken charges =  -0.00000

 Dipole moment (field-independent basis, Debye):
    X=             -0.0000    Y=              0.0000    Z=              0.0000  Tot=              0.0000
 Quadrupole moment (field-independent basis, Debye-Ang):
   XX=            -16.5648   YY=            -31.9576   ZZ=            -12.8060
   XY=            -11.1340   XZ=             -0.0000   YZ=             -0.0000

 Normal termination of Gaussian 09 at Thu Feb  9 15:48:09 2017.
