 Gaussian 09, Revision E.01,
 Gaussian 09:  ES64L-G09RevE.01 30-Nov-2015

 ----------------------------------------------------------------------
 #rhf/gen scf(symm,tight,novaracc,noincfock,fulldiag) stable(crhf) geom
 =nocrowd test
 ----------------------------------------------------------------------

 ----------------------------------------------------------------------
 hf stability analysis of h10 triangular lattice, y= 1.4968340853525235
 ----------------------------------------------------------------------
 Symbolic Z-matrix:
 Charge =  0 Multiplicity = 1

                         Standard orientation:
 ---------------------------------------------------------------------
 Center     Atomic      Atomic             Coordinates (Angstroms)
 Number     Number       Type             X           Y           Z
 ---------------------------------------------------------------------
      1          1           0        1.494050    3.479333   -0.000000
      2          1           0        1.494050    1.933601   -0.000000
      3          1           0        0.747025    2.126100   -0.000000
      4          1           0        0.747025    0.580368   -0.000000
      5          1           0       -0.000000    0.772866   -0.000000
      6          1           0       -0.000000   -0.772866   -0.000000
      7          1           0       -0.747025   -0.580368   -0.000000
      8          1           0       -0.747025   -2.126100   -0.000000
      9          1           0       -1.494050   -1.933601   -0.000000
     10          1           0       -1.494050   -3.479333   -0.000000
 ---------------------------------------------------------------------

 SCF Done:  E(RHF) =  -4.88140276347     A.U. after    9 cycles
 E2 =    -0.4108931407D+00 EUMP2 =    -0.52922959041748D+01

 The electronic state is 1-AG.
 Alpha  occ. eigenvalues --   -0.78039  -0.71440  -0.61075  -0.48120  -0.14691
 Alpha virt. eigenvalues --   -0.05776   0.18716   0.29741   0.45933   0.61586

 Mulliken charges:
               1
     1  H   -0.119208
     2  H    0.031870
     3  H    0.050748
     4  H    0.014630
     5  H    0.021960
     6  H    0.021960
     7  H    0.014630
     8  H    0.050748
     9  H    0.031870
    10  H   -0.119208
 Sum of Mulliken charges =   0.00000

 Dipole moment (field-independent basis, Debye):
    X=             -0.0000    Y=             -0.0000    Z=              0.0000  Tot=              0.0000
 Quadrupole moment (field-independent basis, Debye-Ang):
   XX=            -13.8591   YY=            -27.8090   ZZ=            -12.9030
   XY=             -6.9037   XZ=             -0.0000   YZ=             -0.0000

 Normal termination of Gaussian 09 at Thu Feb  9 15:51:17 2017.
