 Gaussian 09, Revision E.01,
 Gaussian 09:  ES64L-G09RevE.01 30-Nov-2015

 ----------------------------------------------------------------------
 #rhf/gen scf(symm,tight,novaracc,noincfock,fulldiag) stable(crhf) geom
 =nocrowd test
 ----------------------------------------------------------------------

 ----------------------------------------------------------------------
 hf stability analysis of h10 triangular lattice, y= 1.7438440595774944
 ----------------------------------------------------------------------
 Symbolic Z-matrix:
 Charge =  0 Multiplicity = 1

                         Standard orientation:
 ---------------------------------------------------------------------
 Center     Atomic      Atomic             Coordinates (Angstroms)
 Number     Number       Type             X           Y           Z
 ---------------------------------------------------------------------
      1          1           0        1.301075    4.190469   -0.000000
      2          1           0        1.301075    2.415475   -0.000000
      3          1           0        0.650538    2.538983   -0.000000
      4          1           0        0.650538    0.763989   -0.000000
      5          1           0       -0.000000    0.887497    0.000000
      6          1           0       -0.000000   -0.887497    0.000000
      7          1           0       -0.650538   -0.763989   -0.000000
      8          1           0       -0.650538   -2.538983   -0.000000
      9          1           0       -1.301075   -2.415475   -0.000000
     10          1           0       -1.301075   -4.190469   -0.000000
 ---------------------------------------------------------------------

 SCF Done:  E(RHF) =  -4.91442254407     A.U. after    7 cycles
 E2 =    -0.6503893005D+00 EUMP2 =    -0.55648118446077D+01

 The electronic state is 1-AG.
 Alpha  occ. eigenvalues --   -0.74388  -0.70270  -0.63646  -0.55938  -0.18338
 Alpha virt. eigenvalues --   -0.11962   0.31591   0.40275   0.53324   0.66150

 Mulliken charges:
               1
     1  H   -0.029184
     2  H    0.010257
     3  H    0.012956
     4  H    0.001352
     5  H    0.004619
     6  H    0.004619
     7  H    0.001352
     8  H    0.012956
     9  H    0.010257
    10  H   -0.029184
 Sum of Mulliken charges =   0.00000

 Dipole moment (field-independent basis, Debye):
    X=              0.0000    Y=              0.0000    Z=              0.0000  Tot=              0.0000
 Quadrupole moment (field-independent basis, Debye-Ang):
   XX=            -12.4178   YY=            -20.6181   ZZ=            -13.0945
   XY=             -2.6398   XZ=              0.0000   YZ=             -0.0000

 Normal termination of Gaussian 09 at Thu Feb  9 15:54:49 2017.
