 Gaussian 09, Revision E.01,
 Gaussian 09:  ES64L-G09RevE.01 30-Nov-2015

 ----------------------------------------------------------------------
 #rhf/gen scf(symm,tight,novaracc,noincfock,fulldiag) stable(crhf) geom
 =nocrowd test
 ----------------------------------------------------------------------

 ----------------------------------------------------------------------
 hf stability analysis of h10 triangular lattice, y= 1.1307914106018655
 ----------------------------------------------------------------------
 Symbolic Z-matrix:
 Charge =  0 Multiplicity = 1

                         Standard orientation:
 ---------------------------------------------------------------------
 Center     Atomic      Atomic             Coordinates (Angstroms)
 Number     Number       Type             X           Y           Z
 ---------------------------------------------------------------------
      1          1           0        1.861348    2.261356   -0.000000
      2          1           0        1.861348    1.020641    0.000000
      3          1           0        0.930674    1.440857   -0.000000
      4          1           0        0.930674    0.200142    0.000000
      5          1           0       -0.000000    0.620357   -0.000000
      6          1           0       -0.000000   -0.620357    0.000000
      7          1           0       -0.930674   -0.200142    0.000000
      8          1           0       -0.930674   -1.440857    0.000000
      9          1           0       -1.861348   -1.020641    0.000000
     10          1           0       -1.861348   -2.261356    0.000000
 ---------------------------------------------------------------------

 SCF Done:  E(RHF) =  -4.83033048045     A.U. after   10 cycles
 E2 =    -0.1205601659D+00 EUMP2 =    -0.49508906463388D+01

 The electronic state is 1-AG.
 Alpha  occ. eigenvalues --   -0.81169  -0.73273  -0.55333  -0.32938  -0.25673
 Alpha virt. eigenvalues --    0.02809   0.15029   0.23588   0.42314   0.59964

 Mulliken charges:
               1
     1  H   -0.029694
     2  H    0.116416
     3  H    0.112365
     4  H   -0.114438
     5  H   -0.084648
     6  H   -0.084648
     7  H   -0.114438
     8  H    0.112365
     9  H    0.116416
    10  H   -0.029694
 Sum of Mulliken charges =   0.00000

 Dipole moment (field-independent basis, Debye):
    X=             -0.0000    Y=              0.0000    Z=              0.0000  Tot=              0.0000
 Quadrupole moment (field-independent basis, Debye-Ang):
   XX=            -12.0830   YY=            -13.2448   ZZ=            -13.1169
   XY=              1.9099   XZ=             -0.0000   YZ=              0.0000

 Normal termination of Gaussian 09 at Thu Feb  9 15:41:43 2017.
