 Gaussian 09, Revision E.01,
 Gaussian 09:  ES64L-G09RevE.01 30-Nov-2015

 ----------------------------------------------------------------------
 #rhf/gen scf(symm,tight,novaracc,noincfock,fulldiag) stable(crhf) geom
 =nocrowd test
 ----------------------------------------------------------------------

 hf stability analysis of h10 triangular lattice, y= 0.8302288702319291
 5
 ----------------------------------------------------------------------
 Symbolic Z-matrix:
 Charge =  0 Multiplicity = 1

                         Standard orientation:
 ---------------------------------------------------------------------
 Center     Atomic      Atomic             Coordinates (Angstroms)
 Number     Number       Type             X           Y           Z
 ---------------------------------------------------------------------
      1          1           0        2.132422    0.921339   -0.000000
      2          1           0        2.132422   -0.161655   -0.000000
      3          1           0        1.066211    0.731418   -0.000000
      4          1           0        1.066211   -0.351576   -0.000000
      5          1           0        0.000000    0.541497    0.000000
      6          1           0       -0.000000   -0.541497    0.000000
      7          1           0       -1.066211    0.351576   -0.000000
      8          1           0       -1.066211   -0.731418   -0.000000
      9          1           0       -2.132422    0.161655   -0.000000
     10          1           0       -2.132422   -0.921339   -0.000000
 ---------------------------------------------------------------------

 SCF Done:  E(RHF) =  -4.87227403236     A.U. after   10 cycles
 E2 =    -0.1058972641D+00 EUMP2 =    -0.49781712964165D+01

 The electronic state is 1-AG.
 Alpha  occ. eigenvalues --   -0.87404  -0.74315  -0.52781  -0.46043  -0.30395
 Alpha virt. eigenvalues --   -0.02193   0.16401   0.34764   0.52262   0.85569

 Mulliken charges:
               1
     1  H    0.093522
     2  H   -0.015104
     3  H   -0.030646
     4  H   -0.036055
     5  H   -0.011717
     6  H   -0.011717
     7  H   -0.036055
     8  H   -0.030646
     9  H   -0.015104
    10  H    0.093522
 Sum of Mulliken charges =   0.00000

 Dipole moment (field-independent basis, Debye):
    X=              0.0000    Y=              0.0000    Z=             -0.0000  Tot=              0.0000
 Quadrupole moment (field-independent basis, Debye-Ang):
   XX=            -10.3075   YY=            -16.7557   ZZ=            -12.9594
   XY=              2.5701   XZ=              0.0000   YZ=              0.0000

 Normal termination of Gaussian 09 at Thu Feb  9 15:27:23 2017.
