 Gaussian 09, Revision E.01,
 Gaussian 09:  ES64L-G09RevE.01 30-Nov-2015

 ----------------------------------------------------------------------
 #rhf/gen scf(symm,tight,novaracc,noincfock,fulldiag) stable(crhf) geom
 =nocrowd test
 ----------------------------------------------------------------------

 hf stability analysis of h10 triangular lattice, y= 0.9304301475609667
 6
 ----------------------------------------------------------------------
 Symbolic Z-matrix:
 Charge =  0 Multiplicity = 1

                         Standard orientation:
 ---------------------------------------------------------------------
 Center     Atomic      Atomic             Coordinates (Angstroms)
 Number     Number       Type             X           Y           Z
 ---------------------------------------------------------------------
      1          1           0        2.064976    1.418750    0.000000
      2          1           0        2.064976    0.300383    0.000000
      3          1           0        1.032488    0.988967    0.000000
      4          1           0        1.032488   -0.129400    0.000000
      5          1           0       -0.000000    0.559184    0.000000
      6          1           0       -0.000000   -0.559184   -0.000000
      7          1           0       -1.032488    0.129400    0.000000
      8          1           0       -1.032488   -0.988967    0.000000
      9          1           0       -2.064976   -0.300383    0.000000
     10          1           0       -2.064976   -1.418750    0.000000
 ---------------------------------------------------------------------

 SCF Done:  E(RHF) =  -4.86456232819     A.U. after   10 cycles
 E2 =    -0.1125523574D+00 EUMP2 =    -0.49771146856046D+01

 The electronic state is 1-AG.
 Alpha  occ. eigenvalues --   -0.85323  -0.74024  -0.54849  -0.37127  -0.30012
 Alpha virt. eigenvalues --   -0.01710   0.22608   0.26664   0.54174   0.70460

 Mulliken charges:
               1
     1  H   -0.096068
     2  H    0.138129
     3  H    0.090400
     4  H   -0.113059
     5  H   -0.019401
     6  H   -0.019401
     7  H   -0.113059
     8  H    0.090400
     9  H    0.138129
    10  H   -0.096068
 Sum of Mulliken charges =  -0.00000

 Dipole moment (field-independent basis, Debye):
    X=             -0.0000    Y=             -0.0000    Z=              0.0000  Tot=              0.0000
 Quadrupole moment (field-independent basis, Debye-Ang):
   XX=            -14.5932   YY=            -15.1634   ZZ=            -12.9125
   XY=             -1.7615   XZ=              0.0000   YZ=              0.0000

 Normal termination of Gaussian 09 at Thu Feb  9 15:32:48 2017.
