 Gaussian 09, Revision E.01,
 Gaussian 09:  ES64L-G09RevE.01 30-Nov-2015

 ----------------------------------------------------------------------
 #rhf/gen scf(symm,tight,novaracc,noincfock,fulldiag) stable(crhf) geom
 =nocrowd test
 ----------------------------------------------------------------------

 ----------------------------------------------------------------------
 hf stability analysis of h10 triangular lattice, y= 1.6733867869493753
 ----------------------------------------------------------------------
 Symbolic Z-matrix:
 Charge =  0 Multiplicity = 1

                         Standard orientation:
 ---------------------------------------------------------------------
 Center     Atomic      Atomic             Coordinates (Angstroms)
 Number     Number       Type             X           Y           Z
 ---------------------------------------------------------------------
      1          1           0        1.351646    3.992779   -0.000000
      2          1           0        1.351646    2.284194   -0.000000
      3          1           0        0.675823    2.423536   -0.000000
      4          1           0        0.675823    0.714951   -0.000000
      5          1           0       -0.000000    0.854292    0.000000
      6          1           0       -0.000000   -0.854292   -0.000000
      7          1           0       -0.675823   -0.714951   -0.000000
      8          1           0       -0.675823   -2.423536   -0.000000
      9          1           0       -1.351646   -2.284194   -0.000000
     10          1           0       -1.351646   -3.992779   -0.000000
 ---------------------------------------------------------------------

 SCF Done:  E(RHF) =  -4.92181392448     A.U. after    7 cycles
 E2 =    -0.5914884658D+00 EUMP2 =    -0.55133023902518D+01

 The electronic state is 1-AG.
 Alpha  occ. eigenvalues --   -0.75054  -0.70374  -0.62816  -0.53789  -0.17567
 Alpha virt. eigenvalues --   -0.10720   0.28287   0.37537   0.51467   0.65203

 Mulliken charges:
               1
     1  H   -0.045004
     2  H    0.014574
     3  H    0.019959
     4  H    0.003067
     5  H    0.007404
     6  H    0.007404
     7  H    0.003067
     8  H    0.019959
     9  H    0.014574
    10  H   -0.045004
 Sum of Mulliken charges =  -0.00000

 Dipole moment (field-independent basis, Debye):
    X=              0.0000    Y=             -0.0000    Z=              0.0000  Tot=              0.0000
 Quadrupole moment (field-independent basis, Debye-Ang):
   XX=            -12.5943   YY=            -22.2463   ZZ=            -13.0383
   XY=             -3.4664   XZ=             -0.0000   YZ=              0.0000

 Normal termination of Gaussian 09 at Thu Feb  9 15:53:58 2017.
