 Gaussian 09, Revision E.01,
 Gaussian 09:  ES64L-G09RevE.01 30-Nov-2015

 ----------------------------------------------------------------------
 #rhf/gen scf(symm,tight,novaracc,noincfock,fulldiag) stable(crhf) geom
 =nocrowd test
 ----------------------------------------------------------------------

 ----------------------------------------------------------------------
 hf stability analysis of h10 triangular lattice, y= 1.5689314347387666
 ----------------------------------------------------------------------
 Symbolic Z-matrix:
 Charge =  0 Multiplicity = 1

                         Standard orientation:
 ---------------------------------------------------------------------
 Center     Atomic      Atomic             Coordinates (Angstroms)
 Number     Number       Type             X           Y           Z
 ---------------------------------------------------------------------
      1          1           0        1.433067    3.692650   -0.000000
      2          1           0        1.433067    2.081141   -0.000000
      3          1           0        0.716534    2.249202   -0.000000
      4          1           0        0.716534    0.637693   -0.000000
      5          1           0       -0.000000    0.805755   -0.000000
      6          1           0       -0.000000   -0.805755    0.000000
      7          1           0       -0.716534   -0.637693    0.000000
      8          1           0       -0.716534   -2.249202    0.000000
      9          1           0       -1.433067   -2.081141    0.000000
     10          1           0       -1.433067   -3.692650    0.000000
 ---------------------------------------------------------------------

 SCF Done:  E(RHF) =  -4.90871263832     A.U. after    8 cycles
 E2 =    -0.4892532141D+00 EUMP2 =    -0.53979658523811D+01

 The electronic state is 1-AG.
 Alpha  occ. eigenvalues --   -0.76557  -0.70846  -0.61717  -0.50465  -0.16034
 Alpha virt. eigenvalues --   -0.08172   0.22873   0.33096   0.48360   0.63325

 Mulliken charges:
               1
     1  H   -0.081860
     2  H    0.023665
     3  H    0.035425
     4  H    0.008281
     5  H    0.014488
     6  H    0.014488
     7  H    0.008281
     8  H    0.035425
     9  H    0.023665
    10  H   -0.081860
 Sum of Mulliken charges =   0.00000

 Dipole moment (field-independent basis, Debye):
    X=             -0.0000    Y=              0.0000    Z=              0.0000  Tot=              0.0000
 Quadrupole moment (field-independent basis, Debye-Ang):
   XX=            -13.1547   YY=            -25.3314   ZZ=            -12.9566
   XY=             -5.2335   XZ=              0.0000   YZ=              0.0000

 Normal termination of Gaussian 09 at Thu Feb  9 15:52:28 2017.
