 Gaussian 09, Revision E.01,
 Gaussian 09:  ES64L-G09RevE.01 30-Nov-2015

 ----------------------------------------------------------------------
 #rhf/gen scf(symm,tight,novaracc,noincfock,fulldiag) stable(crhf) geom
 =nocrowd test
 ----------------------------------------------------------------------

 ----------------------------------------------------------------------
 hf stability analysis of h10 triangular lattice, y= 1.4995436567448153
 ----------------------------------------------------------------------
 Symbolic Z-matrix:
 Charge =  0 Multiplicity = 1

                         Standard orientation:
 ---------------------------------------------------------------------
 Center     Atomic      Atomic             Coordinates (Angstroms)
 Number     Number       Type             X           Y           Z
 ---------------------------------------------------------------------
      1          1           0        1.491685    3.487457    0.000000
      2          1           0        1.491685    1.939274    0.000000
      3          1           0        0.745843    2.130774    0.000000
      4          1           0        0.745843    0.582591    0.000000
      5          1           0       -0.000000    0.774091    0.000000
      6          1           0       -0.000000   -0.774091    0.000000
      7          1           0       -0.745843   -0.582591   -0.000000
      8          1           0       -0.745843   -2.130774    0.000000
      9          1           0       -1.491685   -1.939274    0.000000
     10          1           0       -1.491685   -3.487457    0.000000
 ---------------------------------------------------------------------

 SCF Done:  E(RHF) =  -4.88270955041     A.U. after    9 cycles
 E2 =    -0.4138956841D+00 EUMP2 =    -0.52966052345116D+01

 The electronic state is 1-AG.
 Alpha  occ. eigenvalues --   -0.77976  -0.71413  -0.61097  -0.48209  -0.14746
 Alpha virt. eigenvalues --   -0.05877   0.18879   0.29871   0.46029   0.61659

 Mulliken charges:
               1
     1  H   -0.117613
     2  H    0.031538
     3  H    0.050088
     4  H    0.014345
     5  H    0.021642
     6  H    0.021642
     7  H    0.014345
     8  H    0.050088
     9  H    0.031538
    10  H   -0.117613
 Sum of Mulliken charges =  -0.00000

 Dipole moment (field-independent basis, Debye):
    X=              0.0000    Y=              0.0000    Z=             -0.0000  Tot=              0.0000
 Quadrupole moment (field-independent basis, Debye-Ang):
   XX=            -13.8266   YY=            -27.7142   ZZ=            -12.9050
   XY=             -6.8342   XZ=              0.0000   YZ=              0.0000

 Normal termination of Gaussian 09 at Thu Feb  9 15:51:20 2017.
