 Gaussian 09, Revision E.01,
 Gaussian 09:  ES64L-G09RevE.01 30-Nov-2015

 ----------------------------------------------------------------------
 #rhf/gen scf(symm,tight,novaracc,noincfock,fulldiag) stable(crhf) geom
 =nocrowd test
 ----------------------------------------------------------------------

 ----------------------------------------------------------------------
 hf stability analysis of h10 triangular lattice, y= 1.4577387694163313
 ----------------------------------------------------------------------
 Symbolic Z-matrix:
 Charge =  0 Multiplicity = 1

                         Standard orientation:
 ---------------------------------------------------------------------
 Center     Atomic      Atomic             Coordinates (Angstroms)
 Number     Number       Type             X           Y           Z
 ---------------------------------------------------------------------
      1          1           0        1.528813    3.361091    0.000000
      2          1           0        1.528813    1.850507    0.000000
      3          1           0        0.764407    2.058192    0.000000
      4          1           0        0.764407    0.547607    0.000000
      5          1           0        0.000000    0.755292    0.000000
      6          1           0       -0.000000   -0.755292    0.000000
      7          1           0       -0.764407   -0.547607    0.000000
      8          1           0       -0.764407   -2.058192    0.000000
      9          1           0       -1.528813   -1.850507    0.000000
     10          1           0       -1.528813   -3.361091    0.000000
 ---------------------------------------------------------------------

 SCF Done:  E(RHF) =  -4.86009585782     A.U. after    9 cycles
 E2 =    -0.3674797185D+00 EUMP2 =    -0.52275755763011D+01

 The electronic state is 1-AG.
 Alpha  occ. eigenvalues --   -0.79004  -0.71857  -0.60765  -0.46835  -0.13882
 Alpha virt. eigenvalues --   -0.04226   0.16328   0.27827   0.44524   0.60473

 Mulliken charges:
               1
     1  H   -0.143840
     2  H    0.036773
     3  H    0.061135
     4  H    0.019136
     5  H    0.026797
     6  H    0.026797
     7  H    0.019136
     8  H    0.061135
     9  H    0.036773
    10  H   -0.143840
 Sum of Mulliken charges =   0.00000

 Dipole moment (field-independent basis, Debye):
    X=              0.0000    Y=              0.0000    Z=             -0.0000  Tot=              0.0000
 Quadrupole moment (field-independent basis, Debye-Ang):
   XX=            -14.3858   YY=            -29.1584   ZZ=            -12.8754
   XY=             -7.9565   XZ=              0.0000   YZ=              0.0000

 Normal termination of Gaussian 09 at Thu Feb  9 15:50:33 2017.
