 Gaussian 09, Revision E.01,
 Gaussian 09:  ES64L-G09RevE.01 30-Nov-2015

 ----------------------------------------------------------------------
 #rhf/gen scf(symm,tight,novaracc,noincfock,fulldiag) stable(crhf) geom
 =nocrowd test
 ----------------------------------------------------------------------

 ----------------------------------------------------------------------
 hf stability analysis of h10 triangular lattice, y= 1.5567476242560161
 ----------------------------------------------------------------------
 Symbolic Z-matrix:
 Charge =  0 Multiplicity = 1

                         Standard orientation:
 ---------------------------------------------------------------------
 Center     Atomic      Atomic             Coordinates (Angstroms)
 Number     Number       Type             X           Y           Z
 ---------------------------------------------------------------------
      1          1           0        1.443092    3.656994    0.000000
      2          1           0        1.443092    2.056679    0.000000
      3          1           0        0.721546    2.228576    0.000000
      4          1           0        0.721546    0.628261    0.000000
      5          1           0       -0.000000    0.800157   -0.000000
      6          1           0       -0.000000   -0.800157    0.000000
      7          1           0       -0.721546   -0.628261    0.000000
      8          1           0       -0.721546   -2.228576    0.000000
      9          1           0       -1.443092   -2.056679    0.000000
     10          1           0       -1.443092   -3.656994    0.000000
 ---------------------------------------------------------------------

 SCF Done:  E(RHF) =  -4.90517706402     A.U. after    8 cycles
 E2 =    -0.4763243243D+00 EUMP2 =    -0.53815013883053D+01

 The electronic state is 1-AG.
 Alpha  occ. eigenvalues --   -0.76780  -0.70931  -0.61601  -0.50071  -0.15823
 Alpha virt. eigenvalues --   -0.07807   0.22195   0.32546   0.47966   0.63059

 Mulliken charges:
               1
     1  H   -0.087437
     2  H    0.024949
     3  H    0.037712
     4  H    0.009177
     5  H    0.015599
     6  H    0.015599
     7  H    0.009177
     8  H    0.037712
     9  H    0.024949
    10  H   -0.087437
 Sum of Mulliken charges =   0.00000

 Dipole moment (field-independent basis, Debye):
    X=             -0.0000    Y=              0.0000    Z=             -0.0000  Tot=              0.0000
 Quadrupole moment (field-independent basis, Debye-Ang):
   XX=            -13.2522   YY=            -25.7374   ZZ=            -12.9473
   XY=             -5.4892   XZ=              0.0000   YZ=              0.0000

 Normal termination of Gaussian 09 at Thu Feb  9 15:52:17 2017.
