 Gaussian 09, Revision E.01,
 Gaussian 09:  ES64L-G09RevE.01 30-Nov-2015

 ----------------------------------------------------------------------
 #rhf/gen scf(symm,tight,novaracc,noincfock,fulldiag) stable(crhf) geom
 =nocrowd test
 ----------------------------------------------------------------------

 hf stability analysis of h10 triangular lattice, y= 0.8207351277518547
 5
 ----------------------------------------------------------------------
 Symbolic Z-matrix:
 Charge =  0 Multiplicity = 1

                         Standard orientation:
 ---------------------------------------------------------------------
 Center     Atomic      Atomic             Coordinates (Angstroms)
 Number     Number       Type             X           Y           Z
 ---------------------------------------------------------------------
      1          1           0        2.136453    0.871216    0.000000
      2          1           0        2.136453   -0.209735    0.000000
      3          1           0        1.068226    0.705846    0.000000
      4          1           0        1.068226   -0.375105    0.000000
      5          1           0        0.000000    0.540476    0.000000
      6          1           0       -0.000000   -0.540476    0.000000
      7          1           0       -1.068226    0.375105    0.000000
      8          1           0       -1.068226   -0.705846    0.000000
      9          1           0       -2.136453    0.209735    0.000000
     10          1           0       -2.136453   -0.871216    0.000000
 ---------------------------------------------------------------------

 SCF Done:  E(RHF) =  -4.87579436325     A.U. after   10 cycles
 E2 =    -0.1056673234D+00 EUMP2 =    -0.49814616866368D+01

 The electronic state is 1-AG.
 Alpha  occ. eigenvalues --   -0.87492  -0.74367  -0.52748  -0.46244  -0.30594
 Alpha virt. eigenvalues --   -0.01987   0.16152   0.35237   0.52048   0.86693

 Mulliken charges:
               1
     1  H    0.087029
     2  H   -0.007970
     3  H   -0.031265
     4  H   -0.035442
     5  H   -0.012352
     6  H   -0.012352
     7  H   -0.035442
     8  H   -0.031265
     9  H   -0.007970
    10  H    0.087029
 Sum of Mulliken charges =   0.00000

 Dipole moment (field-independent basis, Debye):
    X=              0.0000    Y=             -0.0000    Z=              0.0000  Tot=              0.0000
 Quadrupole moment (field-independent basis, Debye-Ang):
   XX=            -10.2477   YY=            -16.9131   ZZ=            -12.9582
   XY=              2.2466   XZ=              0.0000   YZ=             -0.0000

 Normal termination of Gaussian 09 at Thu Feb  9 15:26:50 2017.
