 Gaussian 09, Revision E.01,
 Gaussian 09:  ES64L-G09RevE.01 30-Nov-2015

 ----------------------------------------------------------------------
 #rhf/gen scf(symm,tight,novaracc,noincfock,fulldiag) stable(crhf) geom
 =nocrowd test
 ----------------------------------------------------------------------

 ----------------------------------------------------------------------
 hf stability analysis of h10 triangular lattice, y= 2.1453430186402151
 ----------------------------------------------------------------------
 Symbolic Z-matrix:
 Charge =  0 Multiplicity = 1

                         Standard orientation:
 ---------------------------------------------------------------------
 Center     Atomic      Atomic             Coordinates (Angstroms)
 Number     Number       Type             X           Y           Z
 ---------------------------------------------------------------------
      1          1           0        1.068101    5.271406    0.000000
      2          1           0        1.068101    3.109249    0.000000
      3          1           0        0.534051    3.176242    0.000000
      4          1           0        0.534051    1.014085    0.000000
      5          1           0        0.000000    1.081078    0.000000
      6          1           0       -0.000000   -1.081078    0.000000
      7          1           0       -0.534051   -1.014085    0.000000
      8          1           0       -0.534051   -3.176242    0.000000
      9          1           0       -1.068101   -3.109249    0.000000
     10          1           0       -1.068101   -5.271406    0.000000
 ---------------------------------------------------------------------

 SCF Done:  E(RHF) =  -4.68612516748     A.U. after    5 cycles
 E2 =    -0.8832843685D+00 EUMP2 =    -0.55694095359937D+01

 The electronic state is 1-AG.
 Alpha  occ. eigenvalues --   -0.73347  -0.71395  -0.68529  -0.65694  -0.20266
 Alpha virt. eigenvalues --   -0.15326   0.47258   0.53283   0.61851   0.69836

 Mulliken charges:
               1
     1  H   -0.000527
     2  H    0.000906
     3  H   -0.000567
     4  H   -0.000193
     5  H    0.000381
     6  H    0.000381
     7  H   -0.000193
     8  H   -0.000567
     9  H    0.000906
    10  H   -0.000527
 Sum of Mulliken charges =  -0.00000

 Dipole moment (field-independent basis, Debye):
    X=             -0.0000    Y=             -0.0000    Z=             -0.0000  Tot=              0.0000
 Quadrupole moment (field-independent basis, Debye-Ang):
   XX=            -12.4830   YY=            -16.0033   ZZ=            -13.3702
   XY=             -0.6747   XZ=             -0.0000   YZ=              0.0000

 Normal termination of Gaussian 09 at Thu Feb  9 15:58:15 2017.
