 Gaussian 09, Revision E.01,
 Gaussian 09:  ES64L-G09RevE.01 30-Nov-2015

 ----------------------------------------------------------------------
 #rhf/gen scf(symm,tight,novaracc,noincfock,fulldiag) stable(crhf) geom
 =nocrowd test
 ----------------------------------------------------------------------

 ----------------------------------------------------------------------
 hf stability analysis of h10 triangular lattice, y= 1.2263967642726714
 ----------------------------------------------------------------------
 Symbolic Z-matrix:
 Charge =  0 Multiplicity = 1

                         Standard orientation:
 ---------------------------------------------------------------------
 Center     Atomic      Atomic             Coordinates (Angstroms)
 Number     Number       Type             X           Y           Z
 ---------------------------------------------------------------------
      1          1           0        1.758005    2.609287    0.000000
      2          1           0        1.758005    1.295638    0.000000
      3          1           0        0.879003    1.633056    0.000000
      4          1           0        0.879003    0.319407    0.000000
      5          1           0       -0.000000    0.656824    0.000000
      6          1           0       -0.000000   -0.656824   -0.000000
      7          1           0       -0.879003   -0.319407    0.000000
      8          1           0       -0.879003   -1.633056    0.000000
      9          1           0       -1.758005   -1.295638    0.000000
     10          1           0       -1.758005   -2.609287    0.000000
 ---------------------------------------------------------------------

 SCF Done:  E(RHF) =  -4.76521875038     A.U. after   11 cycles
 E2 =    -0.1301595436D+00 EUMP2 =    -0.48953782939796D+01

 The electronic state is 1-AG.
 Alpha  occ. eigenvalues --   -0.78539  -0.72216  -0.55182  -0.34067  -0.19118
 Alpha virt. eigenvalues --    0.01922   0.14678   0.18242   0.39803   0.62954

 Mulliken charges:
               1
     1  H    0.036919
     2  H    0.064529
     3  H    0.113339
     4  H   -0.087073
     5  H   -0.127713
     6  H   -0.127713
     7  H   -0.087073
     8  H    0.113339
     9  H    0.064529
    10  H    0.036919
 Sum of Mulliken charges =  -0.00000

 Dipole moment (field-independent basis, Debye):
    X=             -0.0000    Y=             -0.0000    Z=              0.0000  Tot=              0.0000
 Quadrupole moment (field-independent basis, Debye-Ang):
   XX=            -11.5672   YY=             -8.9800   ZZ=            -13.1817
   XY=              4.5098   XZ=             -0.0000   YZ=             -0.0000

 Normal termination of Gaussian 09 at Thu Feb  9 15:44:56 2017.
