 Gaussian 09, Revision E.01,
 Gaussian 09:  ES64L-G09RevE.01 30-Nov-2015

 ----------------------------------------------------------------------
 #rhf/gen scf(symm,tight,novaracc,noincfock,fulldiag) stable(crhf) geom
 =nocrowd test
 ----------------------------------------------------------------------

 ----------------------------------------------------------------------
 hf stability analysis of h10 triangular lattice, y= 2.1529622373511956
 ----------------------------------------------------------------------
 Symbolic Z-matrix:
 Charge =  0 Multiplicity = 1

                         Standard orientation:
 ---------------------------------------------------------------------
 Center     Atomic      Atomic             Coordinates (Angstroms)
 Number     Number       Type             X           Y           Z
 ---------------------------------------------------------------------
      1          1           0        1.064437    5.291414    0.000000
      2          1           0        1.064437    3.121816    0.000000
      3          1           0        0.532219    3.188107    0.000000
      4          1           0        0.532219    1.018508    0.000000
      5          1           0        0.000000    1.084799    0.000000
      6          1           0       -0.000000   -1.084799    0.000000
      7          1           0       -0.532219   -1.018508    0.000000
      8          1           0       -0.532219   -3.188107    0.000000
      9          1           0       -1.064437   -3.121816    0.000000
     10          1           0       -1.064437   -5.291414    0.000000
 ---------------------------------------------------------------------

 SCF Done:  E(RHF) =  -4.67951434539     A.U. after    5 cycles
 E2 =    -0.8868597254D+00 EUMP2 =    -0.55663740707551D+01

 The electronic state is 1-AG.
 Alpha  occ. eigenvalues --   -0.73353  -0.71430  -0.68615  -0.65837  -0.20279
 Alpha virt. eigenvalues --   -0.15358   0.47520   0.53500   0.61994   0.69901

 Mulliken charges:
               1
     1  H   -0.000407
     2  H    0.000852
     3  H   -0.000620
     4  H   -0.000191
     5  H    0.000366
     6  H    0.000366
     7  H   -0.000191
     8  H   -0.000620
     9  H    0.000852
    10  H   -0.000407
 Sum of Mulliken charges =  -0.00000

 Dipole moment (field-independent basis, Debye):
    X=             -0.0000    Y=             -0.0000    Z=             -0.0000  Tot=              0.0000
 Quadrupole moment (field-independent basis, Debye-Ang):
   XX=            -12.4896   YY=            -15.9592   ZZ=            -13.3742
   XY=             -0.6593   XZ=              0.0000   YZ=              0.0000

 Normal termination of Gaussian 09 at Thu Feb  9 15:58:18 2017.
