 Gaussian 09, Revision E.01,
 Gaussian 09:  ES64L-G09RevE.01 30-Nov-2015

 ----------------------------------------------------------------------
 #rhf/gen scf(symm,tight,novaracc,noincfock,fulldiag) stable(crhf) geom
 =nocrowd test
 ----------------------------------------------------------------------

 hf stability analysis of h10 triangular lattice, y= 0.9851084292399715
 5
 ----------------------------------------------------------------------
 Symbolic Z-matrix:
 Charge =  0 Multiplicity = 1

                         Standard orientation:
 ---------------------------------------------------------------------
 Center     Atomic      Atomic             Coordinates (Angstroms)
 Number     Number       Type             X           Y           Z
 ---------------------------------------------------------------------
      1          1           0        2.014716    1.667035   -0.000000
      2          1           0        2.014716    0.520769   -0.000000
      3          1           0        1.007358    1.120084   -0.000000
      4          1           0        1.007358   -0.026182    0.000000
      5          1           0        0.000000    0.573133   -0.000000
      6          1           0       -0.000000   -0.573133    0.000000
      7          1           0       -1.007358    0.026182    0.000000
      8          1           0       -1.007358   -1.120084    0.000000
      9          1           0       -2.014716   -0.520769    0.000000
     10          1           0       -2.014716   -1.667035    0.000000
 ---------------------------------------------------------------------

 SCF Done:  E(RHF) =  -4.86825113995     A.U. after   10 cycles
 E2 =    -0.1127941346D+00 EUMP2 =    -0.49810452745078D+01

 The electronic state is 1-AG.
 Alpha  occ. eigenvalues --   -0.84465  -0.74045  -0.55068  -0.34680  -0.30691
 Alpha virt. eigenvalues --   -0.00491   0.22969   0.23561   0.55593   0.60745

 Mulliken charges:
               1
     1  H   -0.094104
     2  H    0.145744
     3  H    0.105395
     4  H   -0.120098
     5  H   -0.036937
     6  H   -0.036937
     7  H   -0.120098
     8  H    0.105395
     9  H    0.145744
    10  H   -0.094104
 Sum of Mulliken charges =   0.00000

 Dipole moment (field-independent basis, Debye):
    X=              0.0000    Y=              0.0000    Z=              0.0000  Tot=              0.0000
 Quadrupole moment (field-independent basis, Debye-Ang):
   XX=            -13.7937   YY=            -15.4880   ZZ=            -12.9721
   XY=             -1.2382   XZ=              0.0000   YZ=              0.0000

 Normal termination of Gaussian 09 at Thu Feb  9 15:35:26 2017.
