 Gaussian 09, Revision E.01,
 Gaussian 09:  ES64L-G09RevE.01 30-Nov-2015

 ----------------------------------------------------------------------
 #rhf/gen scf(symm,tight,novaracc,noincfock,fulldiag) stable(crhf) geom
 =nocrowd test
 ----------------------------------------------------------------------

 ----------------------------------------------------------------------
 hf stability analysis of h10 triangular lattice, y= 1.2459728127807141
 ----------------------------------------------------------------------
 Symbolic Z-matrix:
 Charge =  0 Multiplicity = 1

                         Standard orientation:
 ---------------------------------------------------------------------
 Center     Atomic      Atomic             Coordinates (Angstroms)
 Number     Number       Type             X           Y           Z
 ---------------------------------------------------------------------
      1          1           0        1.737245    2.677291    0.000000
      2          1           0        1.737245    1.347944    0.000000
      3          1           0        0.868623    1.670982    0.000000
      4          1           0        0.868623    0.341636    0.000000
      5          1           0        0.000000    0.664673    0.000000
      6          1           0       -0.000000   -0.664673   -0.000000
      7          1           0       -0.868623   -0.341636    0.000000
      8          1           0       -0.868623   -1.670982   -0.000000
      9          1           0       -1.737245   -1.347944   -0.000000
     10          1           0       -1.737245   -2.677291   -0.000000
 ---------------------------------------------------------------------

 SCF Done:  E(RHF) =  -4.74882107725     A.U. after   11 cycles
 E2 =    -0.1326438686D+00 EUMP2 =    -0.48814649458296D+01

 The electronic state is 1-AG.
 Alpha  occ. eigenvalues --   -0.77986  -0.71958  -0.55127  -0.34336  -0.17713
 Alpha virt. eigenvalues --    0.01295   0.15234   0.16818   0.39994   0.63540

 Mulliken charges:
               1
     1  H    0.051148
     2  H    0.047757
     3  H    0.117083
     4  H   -0.074452
     5  H   -0.141536
     6  H   -0.141536
     7  H   -0.074452
     8  H    0.117083
     9  H    0.047757
    10  H    0.051148
 Sum of Mulliken charges =  -0.00000

 Dipole moment (field-independent basis, Debye):
    X=              0.0000    Y=              0.0000    Z=             -0.0000  Tot=              0.0000
 Quadrupole moment (field-independent basis, Debye-Ang):
   XX=            -11.5677   YY=             -7.8865   ZZ=            -13.1883
   XY=              4.9738   XZ=              0.0000   YZ=              0.0000

 Normal termination of Gaussian 09 at Thu Feb  9 15:45:31 2017.
