 Gaussian 09, Revision E.01,
 Gaussian 09:  ES64L-G09RevE.01 30-Nov-2015

 ----------------------------------------------------------------------
 #rhf/gen scf(symm,tight,novaracc,noincfock,fulldiag) stable(crhf) geom
 =nocrowd test
 ----------------------------------------------------------------------

 ----------------------------------------------------------------------
 hf stability analysis of h10 triangular lattice, y= 1.2014486210971758
 ----------------------------------------------------------------------
 Symbolic Z-matrix:
 Charge =  0 Multiplicity = 1

                         Standard orientation:
 ---------------------------------------------------------------------
 Center     Atomic      Atomic             Coordinates (Angstroms)
 Number     Number       Type             X           Y           Z
 ---------------------------------------------------------------------
      1          1           0        1.784717    2.521131    0.000000
      2          1           0        1.784717    1.227144    0.000000
      3          1           0        0.892359    1.584062    0.000000
      4          1           0        0.892359    0.290075    0.000000
      5          1           0       -0.000000    0.646994    0.000000
      6          1           0       -0.000000   -0.646994    0.000000
      7          1           0       -0.892359   -0.290075   -0.000000
      8          1           0       -0.892359   -1.584062    0.000000
      9          1           0       -1.784717   -1.227144   -0.000000
     10          1           0       -1.784717   -2.521131    0.000000
 ---------------------------------------------------------------------

 SCF Done:  E(RHF) =  -4.78486989556     A.U. after   10 cycles
 E2 =    -0.1273275561D+00 EUMP2 =    -0.49121974516613D+01

 The electronic state is 1-AG.
 Alpha  occ. eigenvalues --   -0.79241  -0.72525  -0.55244  -0.33755  -0.20879
 Alpha virt. eigenvalues --    0.02530   0.14257   0.19982   0.39819   0.62184

 Mulliken charges:
               1
     1  H    0.018717
     2  H    0.081626
     3  H    0.111459
     4  H   -0.098012
     5  H   -0.113790
     6  H   -0.113790
     7  H   -0.098012
     8  H    0.111459
     9  H    0.081626
    10  H    0.018717
 Sum of Mulliken charges =  -0.00000

 Dipole moment (field-independent basis, Debye):
    X=             -0.0000    Y=              0.0000    Z=              0.0000  Tot=              0.0000
 Quadrupole moment (field-independent basis, Debye-Ang):
   XX=            -11.6357   YY=            -10.2908   ZZ=            -13.1686
   XY=              3.8502   XZ=              0.0000   YZ=              0.0000

 Normal termination of Gaussian 09 at Thu Feb  9 15:44:09 2017.
