 Gaussian 09, Revision E.01,
 Gaussian 09:  ES64L-G09RevE.01 30-Nov-2015

 ----------------------------------------------------------------------
 #rhf/gen scf(symm,tight,novaracc,noincfock,fulldiag) stable(crhf) geom
 =nocrowd test
 ----------------------------------------------------------------------

 ----------------------------------------------------------------------
 hf stability analysis of h10 triangular lattice, y= 1.2029713290986654
 ----------------------------------------------------------------------
 Symbolic Z-matrix:
 Charge =  0 Multiplicity = 1

                         Standard orientation:
 ---------------------------------------------------------------------
 Center     Atomic      Atomic             Coordinates (Angstroms)
 Number     Number       Type             X           Y           Z
 ---------------------------------------------------------------------
      1          1           0        1.783080    2.526562    0.000000
      2          1           0        1.783080    1.231386    0.000000
      3          1           0        0.891540    1.587075    0.000000
      4          1           0        0.891540    0.291899    0.000000
      5          1           0        0.000000    0.647588    0.000000
      6          1           0       -0.000000   -0.647588    0.000000
      7          1           0       -0.891540   -0.291899    0.000000
      8          1           0       -0.891540   -1.587075    0.000000
      9          1           0       -1.783080   -1.231386    0.000000
     10          1           0       -1.783080   -2.526562    0.000000
 ---------------------------------------------------------------------

 SCF Done:  E(RHF) =  -4.78371773010     A.U. after   10 cycles
 E2 =    -0.1274925954D+00 EUMP2 =    -0.49112103255371D+01

 The electronic state is 1-AG.
 Alpha  occ. eigenvalues --   -0.79198  -0.72507  -0.55240  -0.33774  -0.20772
 Alpha virt. eigenvalues --    0.02500   0.14273   0.19880   0.39808   0.62232

 Mulliken charges:
               1
     1  H    0.019820
     2  H    0.080682
     3  H    0.111514
     4  H   -0.097460
     5  H   -0.114556
     6  H   -0.114556
     7  H   -0.097460
     8  H    0.111514
     9  H    0.080682
    10  H    0.019820
 Sum of Mulliken charges =  -0.00000

 Dipole moment (field-independent basis, Debye):
    X=             -0.0000    Y=             -0.0000    Z=              0.0000  Tot=              0.0000
 Quadrupole moment (field-independent basis, Debye-Ang):
   XX=            -11.6298   YY=            -10.2143   ZZ=            -13.1695
   XY=              3.8916   XZ=              0.0000   YZ=              0.0000

 Normal termination of Gaussian 09 at Thu Feb  9 15:44:12 2017.
