 Gaussian 09, Revision E.01,
 Gaussian 09:  ES64L-G09RevE.01 30-Nov-2015

 ----------------------------------------------------------------------
 #rhf/gen scf(symm,tight,novaracc,noincfock,fulldiag) stable(crhf) geom
 =nocrowd test
 ----------------------------------------------------------------------

 ----------------------------------------------------------------------
 hf stability analysis of h10 triangular lattice, y= 2.0078476644618948
 ----------------------------------------------------------------------
 Symbolic Z-matrix:
 Charge =  0 Multiplicity = 1

                         Standard orientation:
 ---------------------------------------------------------------------
 Center     Atomic      Atomic             Coordinates (Angstroms)
 Number     Number       Type             X           Y           Z
 ---------------------------------------------------------------------
      1          1           0        1.138571    4.907776   -0.000000
      2          1           0        1.138571    2.879443    0.000000
      3          1           0        0.569286    2.960971   -0.000000
      4          1           0        0.569286    0.932638    0.000000
      5          1           0       -0.000000    1.014167   -0.000000
      6          1           0       -0.000000   -1.014167   -0.000000
      7          1           0       -0.569286   -0.932638   -0.000000
      8          1           0       -0.569286   -2.960971   -0.000000
      9          1           0       -1.138571   -2.879443   -0.000000
     10          1           0       -1.138571   -4.907776   -0.000000
 ---------------------------------------------------------------------

 SCF Done:  E(RHF) =  -4.79328267006     A.U. after    6 cycles
 E2 =    -0.8156474952D+00 EUMP2 =    -0.56089301652627D+01

 The electronic state is 1-AG.
 Alpha  occ. eigenvalues --   -0.73363  -0.70810  -0.66922  -0.62863  -0.19922
 Alpha virt. eigenvalues --   -0.14617   0.42341   0.49212   0.59189   0.68679

 Mulliken charges:
               1
     1  H   -0.004123
     2  H    0.002357
     3  H    0.001124
     4  H   -0.000199
     5  H    0.000842
     6  H    0.000842
     7  H   -0.000199
     8  H    0.001124
     9  H    0.002357
    10  H   -0.004123
 Sum of Mulliken charges =   0.00000

 Dipole moment (field-independent basis, Debye):
    X=             -0.0000    Y=              0.0000    Z=              0.0000  Tot=              0.0000
 Quadrupole moment (field-independent basis, Debye-Ang):
   XX=            -12.3746   YY=            -16.9893   ZZ=            -13.2888
   XY=             -1.0405   XZ=              0.0000   YZ=             -0.0000

 Normal termination of Gaussian 09 at Thu Feb  9 15:57:18 2017.
