 Gaussian 09, Revision E.01,
 Gaussian 09:  ES64L-G09RevE.01 30-Nov-2015

 ----------------------------------------------------------------------
 #rhf/gen scf(symm,tight,novaracc,noincfock,fulldiag) stable(crhf) geom
 =nocrowd test
 ----------------------------------------------------------------------

 hf stability analysis of h10 triangular lattice, y= 0.9900233955345416
 6
 ----------------------------------------------------------------------
 Symbolic Z-matrix:
 Charge =  0 Multiplicity = 1

                         Standard orientation:
 ---------------------------------------------------------------------
 Center     Atomic      Atomic             Coordinates (Angstroms)
 Number     Number       Type             X           Y           Z
 ---------------------------------------------------------------------
      1          1           0        2.009899    1.688612   -0.000000
      2          1           0        2.009899    0.539599   -0.000000
      3          1           0        1.004950    1.131559   -0.000000
      4          1           0        1.004950   -0.017454    0.000000
      5          1           0       -0.000000    0.574507   -0.000000
      6          1           0       -0.000000   -0.574507   -0.000000
      7          1           0       -1.004950    0.017454   -0.000000
      8          1           0       -1.004950   -1.131559   -0.000000
      9          1           0       -2.009899   -0.539599   -0.000000
     10          1           0       -2.009899   -1.688612   -0.000000
 ---------------------------------------------------------------------

 SCF Done:  E(RHF) =  -4.86817574327     A.U. after   10 cycles
 E2 =    -0.1128914583D+00 EUMP2 =    -0.49810672015420D+01

 The electronic state is 1-AG.
 Alpha  occ. eigenvalues --   -0.84376  -0.74038  -0.55085  -0.34446  -0.30742
 Alpha virt. eigenvalues --   -0.00370   0.22640   0.23641   0.55729   0.59915

 Mulliken charges:
               1
     1  H   -0.093168
     2  H    0.145823
     3  H    0.106283
     4  H   -0.120426
     5  H   -0.038512
     6  H   -0.038512
     7  H   -0.120426
     8  H    0.106283
     9  H    0.145823
    10  H   -0.093168
 Sum of Mulliken charges =   0.00000

 Dipole moment (field-independent basis, Debye):
    X=              0.0000    Y=             -0.0000    Z=             -0.0000  Tot=              0.0000
 Quadrupole moment (field-independent basis, Debye-Ang):
   XX=            -13.7234   YY=            -15.4910   ZZ=            -12.9775
   XY=             -1.1684   XZ=             -0.0000   YZ=             -0.0000

 Normal termination of Gaussian 09 at Thu Feb  9 15:35:42 2017.
