 Gaussian 09, Revision E.01,
 Gaussian 09:  ES64L-G09RevE.01 30-Nov-2015

 ----------------------------------------------------------------------
 #rhf/gen scf(symm,tight,novaracc,noincfock,fulldiag) stable(crhf) geom
 =nocrowd test
 ----------------------------------------------------------------------

 hf stability analysis of h10 triangular lattice, y= 0.8354020730679347
 9
 ----------------------------------------------------------------------
 Symbolic Z-matrix:
 Charge =  0 Multiplicity = 1

                         Standard orientation:
 ---------------------------------------------------------------------
 Center     Atomic      Atomic             Coordinates (Angstroms)
 Number     Number       Type             X           Y           Z
 ---------------------------------------------------------------------
      1          1           0        2.130021    0.948431   -0.000000
      2          1           0        2.130021   -0.135784   -0.000000
      3          1           0        1.065011    0.745269   -0.000000
      4          1           0        1.065011   -0.338946   -0.000000
      5          1           0       -0.000000    0.542108    0.000000
      6          1           0       -0.000000   -0.542108   -0.000000
      7          1           0       -1.065011    0.338946   -0.000000
      8          1           0       -1.065011   -0.745269   -0.000000
      9          1           0       -2.130021    0.135784   -0.000000
     10          1           0       -2.130021   -0.948431   -0.000000
 ---------------------------------------------------------------------

 SCF Done:  E(RHF) =  -4.84723291167     A.U. after   10 cycles
 E2 =    -0.1149423301D+00 EUMP2 =    -0.49621752417367D+01

 The electronic state is 1-AG.
 Alpha  occ. eigenvalues --   -0.86192  -0.73707  -0.54471  -0.40097  -0.28878
 Alpha virt. eigenvalues --   -0.03036   0.21169   0.32225   0.52304   0.86584

 Mulliken charges:
               1
     1  H   -0.054731
     2  H    0.089239
     3  H    0.036904
     4  H   -0.079684
     5  H    0.008272
     6  H    0.008272
     7  H   -0.079684
     8  H    0.036904
     9  H    0.089239
    10  H   -0.054731
 Sum of Mulliken charges =  -0.00000

 Dipole moment (field-independent basis, Debye):
    X=              0.0000    Y=             -0.0000    Z=             -0.0000  Tot=              0.0000
 Quadrupole moment (field-independent basis, Debye-Ang):
   XX=            -15.7874   YY=            -13.9118   ZZ=            -12.8235
   XY=             -1.3725   XZ=              0.0000   YZ=              0.0000

 Normal termination of Gaussian 09 at Thu Feb  9 15:27:41 2017.
