 Gaussian 09, Revision E.01,
 Gaussian 09:  ES64L-G09RevE.01 30-Nov-2015

 ----------------------------------------------------------------------
 #rhf/gen scf(symm,tight,novaracc,noincfock,fulldiag) stable(crhf) geom
 =nocrowd test
 ----------------------------------------------------------------------

 ----------------------------------------------------------------------
 hf stability analysis of h10 triangular lattice, y= 1.5022667723262797
 ----------------------------------------------------------------------
 Symbolic Z-matrix:
 Charge =  0 Multiplicity = 1

                         Standard orientation:
 ---------------------------------------------------------------------
 Center     Atomic      Atomic             Coordinates (Angstroms)
 Number     Number       Type             X           Y           Z
 ---------------------------------------------------------------------
      1          1           0        1.489314    3.495612    0.000000
      2          1           0        1.489314    1.944965    0.000000
      3          1           0        0.744657    2.135468    0.000000
      4          1           0        0.744657    0.584821    0.000000
      5          1           0        0.000000    0.775324    0.000000
      6          1           0       -0.000000   -0.775324    0.000000
      7          1           0       -0.744657   -0.584821    0.000000
      8          1           0       -0.744657   -2.135468    0.000000
      9          1           0       -1.489314   -1.944965    0.000000
     10          1           0       -1.489314   -3.495612    0.000000
 ---------------------------------------------------------------------

 SCF Done:  E(RHF) =  -4.88400065465     A.U. after    9 cycles
 E2 =    -0.4169109140D+00 EUMP2 =    -0.53009115686051D+01

 The electronic state is 1-AG.
 Alpha  occ. eigenvalues --   -0.77914  -0.71387  -0.61120  -0.48298  -0.14800
 Alpha virt. eigenvalues --   -0.05978   0.19041   0.30002   0.46124   0.61732

 Mulliken charges:
               1
     1  H   -0.116025
     2  H    0.031207
     3  H    0.049432
     4  H    0.014061
     5  H    0.021325
     6  H    0.021325
     7  H    0.014061
     8  H    0.049432
     9  H    0.031207
    10  H   -0.116025
 Sum of Mulliken charges =   0.00000

 Dipole moment (field-independent basis, Debye):
    X=             -0.0000    Y=              0.0000    Z=              0.0000  Tot=              0.0000
 Quadrupole moment (field-independent basis, Debye-Ang):
   XX=            -13.7946   YY=            -27.6188   ZZ=            -12.9069
   XY=             -6.7649   XZ=              0.0000   YZ=              0.0000

 Normal termination of Gaussian 09 at Thu Feb  9 15:51:23 2017.
