 Gaussian 09, Revision E.01,
 Gaussian 09:  ES64L-G09RevE.01 30-Nov-2015

 ----------------------------------------------------------------------
 #rhf/gen scf(symm,tight,novaracc,noincfock,fulldiag) stable(crhf) geom
 =nocrowd test
 ----------------------------------------------------------------------

 ----------------------------------------------------------------------
 hf stability analysis of h10 triangular lattice, y= 1.6238565527068056
 ----------------------------------------------------------------------
 Symbolic Z-matrix:
 Charge =  0 Multiplicity = 1

                         Standard orientation:
 ---------------------------------------------------------------------
 Center     Atomic      Atomic             Coordinates (Angstroms)
 Number     Number       Type             X           Y           Z
 ---------------------------------------------------------------------
      1          1           0        1.389261    3.851632    0.000000
      2          1           0        1.389261    2.189308    0.000000
      3          1           0        0.694630    2.341397    0.000000
      4          1           0        0.694630    0.679073    0.000000
      5          1           0        0.000000    0.831162    0.000000
      6          1           0       -0.000000   -0.831162    0.000000
      7          1           0       -0.694630   -0.679073    0.000000
      8          1           0       -0.694630   -2.341397    0.000000
      9          1           0       -1.389261   -2.189308    0.000000
     10          1           0       -1.389261   -3.851632    0.000000
 ---------------------------------------------------------------------

 SCF Done:  E(RHF) =  -4.91936009499     A.U. after    8 cycles
 E2 =    -0.5451268702D+00 EUMP2 =    -0.54644869652295D+01

 The electronic state is 1-AG.
 Alpha  occ. eigenvalues --   -0.75680  -0.70545  -0.62271  -0.52228  -0.16902
 Alpha virt. eigenvalues --   -0.09633   0.25805   0.35492   0.50052   0.64396

 Mulliken charges:
               1
     1  H   -0.060182
     2  H    0.018456
     3  H    0.026433
     4  H    0.005044
     5  H    0.010249
     6  H    0.010249
     7  H    0.005044
     8  H    0.026433
     9  H    0.018456
    10  H   -0.060182
 Sum of Mulliken charges =   0.00000

 Dipole moment (field-independent basis, Debye):
    X=             -0.0000    Y=             -0.0000    Z=              0.0000  Tot=              0.0000
 Quadrupole moment (field-independent basis, Debye-Ang):
   XX=            -12.8051   YY=            -23.6123   ZZ=            -12.9991
   XY=             -4.2136   XZ=              0.0000   YZ=              0.0000

 Normal termination of Gaussian 09 at Thu Feb  9 15:53:18 2017.
