 Gaussian 09, Revision E.01,
 Gaussian 09:  ES64L-G09RevE.01 30-Nov-2015

 ----------------------------------------------------------------------
 #rhf/gen scf(symm,tight,novaracc,noincfock,fulldiag) stable(crhf) geom
 =nocrowd test
 ----------------------------------------------------------------------

 hf stability analysis of h10 triangular lattice, y= 0.8324405985630610
 7
 ----------------------------------------------------------------------
 Symbolic Z-matrix:
 Charge =  0 Multiplicity = 1

                         Standard orientation:
 ---------------------------------------------------------------------
 Center     Atomic      Atomic             Coordinates (Angstroms)
 Number     Number       Type             X           Y           Z
 ---------------------------------------------------------------------
      1          1           0        2.131413    0.932941   -0.000000
      2          1           0        2.131413   -0.150566    0.000000
      3          1           0        1.065707    0.737347   -0.000000
      4          1           0        1.065707   -0.346160    0.000000
      5          1           0       -0.000000    0.541754   -0.000000
      6          1           0       -0.000000   -0.541754    0.000000
      7          1           0       -1.065707    0.346160   -0.000000
      8          1           0       -1.065707   -0.737347    0.000000
      9          1           0       -2.131413    0.150566   -0.000000
     10          1           0       -2.131413   -0.932941   -0.000000
 ---------------------------------------------------------------------

 SCF Done:  E(RHF) =  -4.84670041311     A.U. after   10 cycles
 E2 =    -0.1150366741D+00 EUMP2 =    -0.49617370871754D+01

 The electronic state is 1-AG.
 Alpha  occ. eigenvalues --   -0.86207  -0.73696  -0.54462  -0.40156  -0.28851
 Alpha virt. eigenvalues --   -0.03059   0.21137   0.32356   0.52262   0.86985

 Mulliken charges:
               1
     1  H   -0.052464
     2  H    0.086911
     3  H    0.034664
     4  H   -0.078070
     5  H    0.008959
     6  H    0.008959
     7  H   -0.078070
     8  H    0.034664
     9  H    0.086911
    10  H   -0.052464
 Sum of Mulliken charges =  -0.00000

 Dipole moment (field-independent basis, Debye):
    X=             -0.0000    Y=              0.0000    Z=             -0.0000  Tot=              0.0000
 Quadrupole moment (field-independent basis, Debye-Ang):
   XX=            -15.8143   YY=            -13.8741   ZZ=            -12.8214
   XY=             -1.3332   XZ=              0.0000   YZ=              0.0000

 Normal termination of Gaussian 09 at Thu Feb  9 15:27:31 2017.
