 Gaussian 09, Revision E.01,
 Gaussian 09:  ES64L-G09RevE.01 30-Nov-2015

 ----------------------------------------------------------------------
 #rhf/gen scf(symm,tight,novaracc,noincfock,fulldiag) stable(crhf) geom
 =nocrowd test
 ----------------------------------------------------------------------

 ----------------------------------------------------------------------
 hf stability analysis of h10 triangular lattice, y= 1.4527344705694387
 ----------------------------------------------------------------------
 Symbolic Z-matrix:
 Charge =  0 Multiplicity = 1

                         Standard orientation:
 ---------------------------------------------------------------------
 Center     Atomic      Atomic             Coordinates (Angstroms)
 Number     Number       Type             X           Y           Z
 ---------------------------------------------------------------------
      1          1           0        1.533350    3.345811   -0.000000
      2          1           0        1.533350    1.839696   -0.000000
      3          1           0        0.766675    2.049434   -0.000000
      4          1           0        0.766675    0.543319   -0.000000
      5          1           0        0.000000    0.753058    0.000000
      6          1           0       -0.000000   -0.753058    0.000000
      7          1           0       -0.766675   -0.543319   -0.000000
      8          1           0       -0.766675   -2.049434   -0.000000
      9          1           0       -1.533350   -1.839696   -0.000000
     10          1           0       -1.533350   -3.345811   -0.000000
 ---------------------------------------------------------------------

 SCF Done:  E(RHF) =  -4.85703897068     A.U. after    9 cycles
 E2 =    -0.3619330979D+00 EUMP2 =    -0.52189720686198D+01

 The electronic state is 1-AG.
 Alpha  occ. eigenvalues --   -0.79135  -0.71915  -0.60727  -0.46670  -0.13776
 Alpha virt. eigenvalues --   -0.04015   0.16017   0.27578   0.44339   0.60322

 Mulliken charges:
               1
     1  H   -0.147204
     2  H    0.037409
     3  H    0.062592
     4  H    0.019761
     5  H    0.027442
     6  H    0.027442
     7  H    0.019761
     8  H    0.062592
     9  H    0.037409
    10  H   -0.147204
 Sum of Mulliken charges =  -0.00000

 Dipole moment (field-independent basis, Debye):
    X=              0.0000    Y=              0.0000    Z=              0.0000  Tot=              0.0000
 Quadrupole moment (field-independent basis, Debye-Ang):
   XX=            -14.4615   YY=            -29.3260   ZZ=            -12.8719
   XY=             -8.0973   XZ=              0.0000   YZ=              0.0000

 Normal termination of Gaussian 09 at Thu Feb  9 15:50:27 2017.
