 Gaussian 09, Revision E.01,
 Gaussian 09:  ES64L-G09RevE.01 30-Nov-2015

 ----------------------------------------------------------------------
 #rhf/gen scf(symm,tight,novaracc,noincfock,fulldiag) stable(crhf) geom
 =nocrowd test
 ----------------------------------------------------------------------

 ----------------------------------------------------------------------
 hf stability analysis of h10 triangular lattice, y= 1.8985571038972699
 ----------------------------------------------------------------------
 Symbolic Z-matrix:
 Charge =  0 Multiplicity = 1

                         Standard orientation:
 ---------------------------------------------------------------------
 Center     Atomic      Atomic             Coordinates (Angstroms)
 Number     Number       Type             X           Y           Z
 ---------------------------------------------------------------------
      1          1           0        1.201088    4.614510    0.000000
      2          1           0        1.201088    2.691753    0.000000
      3          1           0        0.600544    2.787944    0.000000
      4          1           0        0.600544    0.865187    0.000000
      5          1           0        0.000000    0.961379    0.000000
      6          1           0       -0.000000   -0.961379    0.000000
      7          1           0       -0.600544   -0.865187    0.000000
      8          1           0       -0.600544   -2.787944    0.000000
      9          1           0       -1.201088   -2.691753    0.000000
     10          1           0       -1.201088   -4.614510    0.000000
 ---------------------------------------------------------------------

 SCF Done:  E(RHF) =  -4.85908138248     A.U. after    7 cycles
 E2 =    -0.7551850874D+00 EUMP2 =    -0.56142664699252D+01

 The electronic state is 1-AG.
 Alpha  occ. eigenvalues --   -0.73580  -0.70459  -0.65572  -0.60236  -0.19460
 Alpha virt. eigenvalues --   -0.13794   0.38138   0.45722   0.56918   0.67736

 Mulliken charges:
               1
     1  H   -0.010206
     2  H    0.004488
     3  H    0.004072
     4  H   -0.000016
     5  H    0.001662
     6  H    0.001662
     7  H   -0.000016
     8  H    0.004072
     9  H    0.004488
    10  H   -0.010206
 Sum of Mulliken charges =   0.00000

 Dipole moment (field-independent basis, Debye):
    X=             -0.0000    Y=             -0.0000    Z=             -0.0000  Tot=              0.0000
 Quadrupole moment (field-independent basis, Debye-Ang):
   XX=            -12.3250   YY=            -18.1261   ZZ=            -13.2134
   XY=             -1.5031   XZ=             -0.0000   YZ=              0.0000

 Normal termination of Gaussian 09 at Thu Feb  9 15:56:25 2017.
