 Gaussian 09, Revision E.01,
 Gaussian 09:  ES64L-G09RevE.01 30-Nov-2015

 ----------------------------------------------------------------------
 #rhf/gen scf(symm,tight,novaracc,noincfock,fulldiag) stable(crhf) geom
 =nocrowd test
 ----------------------------------------------------------------------

 hf stability analysis of h10 triangular lattice, y= 0.7711938008212048
 1
 ----------------------------------------------------------------------
 Symbolic Z-matrix:
 Charge =  0 Multiplicity = 1

                         Standard orientation:
 ---------------------------------------------------------------------
 Center     Atomic      Atomic             Coordinates (Angstroms)
 Number     Number       Type             X           Y           Z
 ---------------------------------------------------------------------
      1          1           0        2.148667    0.601174    0.000000
      2          1           0        2.148667   -0.473632    0.000000
      3          1           0        1.074333    0.569289    0.000000
      4          1           0        1.074333   -0.505518    0.000000
      5          1           0        0.000000    0.537403    0.000000
      6          1           0       -0.000000   -0.537403    0.000000
      7          1           0       -1.074333    0.505518    0.000000
      8          1           0       -1.074333   -0.569289    0.000000
      9          1           0       -2.148667    0.473632    0.000000
     10          1           0       -2.148667   -0.601174    0.000000
 ---------------------------------------------------------------------

 SCF Done:  E(RHF) =  -4.88626552361     A.U. after   10 cycles
 E2 =    -0.1049947515D+00 EUMP2 =    -0.49912602750619D+01

 The electronic state is 1-AG.
 Alpha  occ. eigenvalues --   -0.87760  -0.74525  -0.52643  -0.46853  -0.31200
 Alpha virt. eigenvalues --   -0.01320   0.15355   0.36772   0.51312   0.90232

 Mulliken charges:
               1
     1  H    0.049725
     2  H    0.031174
     3  H   -0.033137
     4  H   -0.033641
     5  H   -0.014121
     6  H   -0.014121
     7  H   -0.033641
     8  H   -0.033137
     9  H    0.031174
    10  H    0.049725
 Sum of Mulliken charges =  -0.00000

 Dipole moment (field-independent basis, Debye):
    X=              0.0000    Y=              0.0000    Z=              0.0000  Tot=              0.0000
 Quadrupole moment (field-independent basis, Debye-Ang):
   XX=            -10.0709   YY=            -17.3904   ZZ=            -12.9545
   XY=              0.4380   XZ=             -0.0000   YZ=              0.0000

 Normal termination of Gaussian 09 at Thu Feb  9 15:23:44 2017.
