 Gaussian 09, Revision E.01,
 Gaussian 09:  ES64L-G09RevE.01 30-Nov-2015

 ----------------------------------------------------------------------
 #rhf/gen scf(symm,tight,novaracc,noincfock,fulldiag) stable(crhf) geom
 =nocrowd test
 ----------------------------------------------------------------------

 ----------------------------------------------------------------------
 hf stability analysis of h10 triangular lattice, y= 1.5160897486105220
 ----------------------------------------------------------------------
 Symbolic Z-matrix:
 Charge =  0 Multiplicity = 1

                         Standard orientation:
 ---------------------------------------------------------------------
 Center     Atomic      Atomic             Coordinates (Angstroms)
 Number     Number       Type             X           Y           Z
 ---------------------------------------------------------------------
      1          1           0        1.477369    3.536874    0.000000
      2          1           0        1.477369    1.973689    0.000000
      3          1           0        0.738684    2.159233    0.000000
      4          1           0        0.738684    0.596048   -0.000000
      5          1           0       -0.000000    0.781593    0.000000
      6          1           0       -0.000000   -0.781593    0.000000
      7          1           0       -0.738684   -0.596048    0.000000
      8          1           0       -0.738684   -2.159233    0.000000
      9          1           0       -1.477369   -1.973689    0.000000
     10          1           0       -1.477369   -3.536874    0.000000
 ---------------------------------------------------------------------

 SCF Done:  E(RHF) =  -4.89021140209     A.U. after    9 cycles
 E2 =    -0.4321706542D+00 EUMP2 =    -0.53223820562512D+01

 The electronic state is 1-AG.
 Alpha  occ. eigenvalues --   -0.77605  -0.71259  -0.61237  -0.48749  -0.15071
 Alpha virt. eigenvalues --   -0.06474   0.19860   0.30660   0.46604   0.62090

 Mulliken charges:
               1
     1  H   -0.108199
     2  H    0.029547
     3  H    0.046211
     4  H    0.012682
     5  H    0.019759
     6  H    0.019759
     7  H    0.012682
     8  H    0.046211
     9  H    0.029547
    10  H   -0.108199
 Sum of Mulliken charges =   0.00000

 Dipole moment (field-independent basis, Debye):
    X=              0.0000    Y=              0.0000    Z=             -0.0000  Tot=              0.0000
 Quadrupole moment (field-independent basis, Debye-Ang):
   XX=            -13.6393   YY=            -27.1352   ZZ=            -12.9170
   XY=             -6.4211   XZ=             -0.0000   YZ=              0.0000

 Normal termination of Gaussian 09 at Thu Feb  9 15:51:37 2017.
