 Gaussian 09, Revision E.01,
 Gaussian 09:  ES64L-G09RevE.01 30-Nov-2015

 ----------------------------------------------------------------------
 #rhf/gen scf(symm,tight,novaracc,noincfock,fulldiag) stable(crhf) geom
 =nocrowd test
 ----------------------------------------------------------------------

 ----------------------------------------------------------------------
 hf stability analysis of h10 triangular lattice, y= 1.9538556170843520
 ----------------------------------------------------------------------
 Symbolic Z-matrix:
 Charge =  0 Multiplicity = 1

                         Standard orientation:
 ---------------------------------------------------------------------
 Center     Atomic      Atomic             Coordinates (Angstroms)
 Number     Number       Type             X           Y           Z
 ---------------------------------------------------------------------
      1          1           0        1.168682    4.763438    0.000000
      2          1           0        1.168682    2.787364    0.000000
      3          1           0        0.584341    2.875737    0.000000
      4          1           0        0.584341    0.899664    0.000000
      5          1           0        0.000000    0.988037    0.000000
      6          1           0       -0.000000   -0.988037    0.000000
      7          1           0       -0.584341   -0.899664    0.000000
      8          1           0       -0.584341   -2.875737    0.000000
      9          1           0       -1.168682   -2.787364    0.000000
     10          1           0       -1.168682   -4.763438    0.000000
 ---------------------------------------------------------------------

 SCF Done:  E(RHF) =  -4.82820508852     A.U. after    6 cycles
 E2 =    -0.7867766238D+00 EUMP2 =    -0.56149817123095D+01

 The electronic state is 1-AG.
 Alpha  occ. eigenvalues --   -0.73442  -0.70620  -0.66260  -0.61608  -0.19720
 Alpha virt. eigenvalues --   -0.14247   0.40301   0.47519   0.58088   0.68221

 Mulliken charges:
               1
     1  H   -0.006633
     2  H    0.003267
     3  H    0.002340
     4  H   -0.000145
     5  H    0.001172
     6  H    0.001172
     7  H   -0.000145
     8  H    0.002340
     9  H    0.003267
    10  H   -0.006633
 Sum of Mulliken charges =   0.00000

 Dipole moment (field-independent basis, Debye):
    X=              0.0000    Y=              0.0000    Z=              0.0000  Tot=              0.0000
 Quadrupole moment (field-independent basis, Debye-Ang):
   XX=            -12.3435   YY=            -17.5020   ZZ=            -13.2526
   XY=             -1.2443   XZ=              0.0000   YZ=              0.0000

 Normal termination of Gaussian 09 at Thu Feb  9 15:56:53 2017.
