 Gaussian 09, Revision E.01,
 Gaussian 09:  ES64L-G09RevE.01 30-Nov-2015

 ----------------------------------------------------------------------
 #rhf/gen scf(symm,tight,novaracc,noincfock,fulldiag) stable(crhf) geom
 =nocrowd test
 ----------------------------------------------------------------------

 hf stability analysis of h10 triangular lattice, y= 0.9519760744589420
 6
 ----------------------------------------------------------------------
 Symbolic Z-matrix:
 Charge =  0 Multiplicity = 1

                         Standard orientation:
 ---------------------------------------------------------------------
 Center     Atomic      Atomic             Coordinates (Angstroms)
 Number     Number       Type             X           Y           Z
 ---------------------------------------------------------------------
      1          1           0        2.045985    1.518432   -0.000000
      2          1           0        2.045985    0.389685   -0.000000
      3          1           0        1.022993    1.041403   -0.000000
      4          1           0        1.022993   -0.087344   -0.000000
      5          1           0        0.000000    0.564374   -0.000000
      6          1           0       -0.000000   -0.564374   -0.000000
      7          1           0       -1.022993    0.087344   -0.000000
      8          1           0       -1.022993   -1.041403   -0.000000
      9          1           0       -2.045985   -0.389685   -0.000000
     10          1           0       -2.045985   -1.518432   -0.000000
 ---------------------------------------------------------------------

 SCF Done:  E(RHF) =  -4.86692454246     A.U. after   10 cycles
 E2 =    -0.1124662047D+00 EUMP2 =    -0.49793907471849D+01

 The electronic state is 1-AG.
 Alpha  occ. eigenvalues --   -0.85015  -0.74051  -0.54940  -0.36210  -0.30292
 Alpha virt. eigenvalues --   -0.01262   0.22990   0.25211   0.54710   0.66550

 Mulliken charges:
               1
     1  H   -0.097264
     2  H    0.142692
     3  H    0.097513
     4  H   -0.116641
     5  H   -0.026301
     6  H   -0.026301
     7  H   -0.116641
     8  H    0.097513
     9  H    0.142692
    10  H   -0.097264
 Sum of Mulliken charges =  -0.00000

 Dipole moment (field-independent basis, Debye):
    X=             -0.0000    Y=              0.0000    Z=             -0.0000  Tot=              0.0000
 Quadrupole moment (field-independent basis, Debye-Ang):
   XX=            -14.2771   YY=            -15.3495   ZZ=            -12.9358
   XY=             -1.6141   XZ=              0.0000   YZ=              0.0000

 Normal termination of Gaussian 09 at Thu Feb  9 15:33:51 2017.
