 Gaussian 09, Revision E.01,
 Gaussian 09:  ES64L-G09RevE.01 30-Nov-2015

 ----------------------------------------------------------------------
 #rhf/gen scf(symm,tight,novaracc,noincfock,fulldiag) stable(crhf) geom
 =nocrowd test
 ----------------------------------------------------------------------

 ----------------------------------------------------------------------
 hf stability analysis of h10 triangular lattice, y= 1.1294776439460517
 ----------------------------------------------------------------------
 Symbolic Z-matrix:
 Charge =  0 Multiplicity = 1

                         Standard orientation:
 ---------------------------------------------------------------------
 Center     Atomic      Atomic             Coordinates (Angstroms)
 Number     Number       Type             X           Y           Z
 ---------------------------------------------------------------------
      1          1           0        1.862778    2.256371    0.000000
      2          1           0        1.862778    1.016609    0.000000
      3          1           0        0.931389    1.438126    0.000000
      4          1           0        0.931389    0.198364   -0.000000
      5          1           0       -0.000000    0.619881    0.000000
      6          1           0       -0.000000   -0.619881    0.000000
      7          1           0       -0.931389   -0.198364   -0.000000
      8          1           0       -0.931389   -1.438126    0.000000
      9          1           0       -1.862778   -1.016609    0.000000
     10          1           0       -1.862778   -2.256371    0.000000
 ---------------------------------------------------------------------

 SCF Done:  E(RHF) =  -4.83101580016     A.U. after   10 cycles
 E2 =    -0.1204505176D+00 EUMP2 =    -0.49514663177463D+01

 The electronic state is 1-AG.
 Alpha  occ. eigenvalues --   -0.81203  -0.73285  -0.55334  -0.32924  -0.25759
 Alpha virt. eigenvalues --    0.02794   0.15070   0.23628   0.42404   0.59923

 Mulliken charges:
               1
     1  H   -0.030525
     2  H    0.116929
     3  H    0.112403
     4  H   -0.114627
     5  H   -0.084180
     6  H   -0.084180
     7  H   -0.114627
     8  H    0.112403
     9  H    0.116929
    10  H   -0.030525
 Sum of Mulliken charges =  -0.00000

 Dipole moment (field-independent basis, Debye):
    X=              0.0000    Y=             -0.0000    Z=              0.0000  Tot=              0.0000
 Quadrupole moment (field-independent basis, Debye-Ang):
   XX=            -12.0941   YY=            -13.2882   ZZ=            -13.1157
   XY=              1.8747   XZ=             -0.0000   YZ=              0.0000

 Normal termination of Gaussian 09 at Thu Feb  9 15:41:40 2017.
