 Gaussian 09, Revision E.01,
 Gaussian 09:  ES64L-G09RevE.01 30-Nov-2015

 ----------------------------------------------------------------------
 #rhf/gen scf(symm,tight,novaracc,noincfock,fulldiag) stable(crhf) geom
 =nocrowd test
 ----------------------------------------------------------------------

 hf stability analysis of h10 triangular lattice, y= 0.8955390333684565
 3
 ----------------------------------------------------------------------
 Symbolic Z-matrix:
 Charge =  0 Multiplicity = 1

                         Standard orientation:
 ---------------------------------------------------------------------
 Center     Atomic      Atomic             Coordinates (Angstroms)
 Number     Number       Type             X           Y           Z
 ---------------------------------------------------------------------
      1          1           0        2.092873    1.251995    0.000000
      2          1           0        2.092873    0.148536    0.000000
      3          1           0        1.046437    0.901863   -0.000000
      4          1           0        1.046437   -0.201597    0.000000
      5          1           0        0.000000    0.551730   -0.000000
      6          1           0       -0.000000   -0.551730   -0.000000
      7          1           0       -1.046437    0.201597    0.000000
      8          1           0       -1.046437   -0.901863    0.000000
      9          1           0       -2.092873   -0.148536    0.000000
     10          1           0       -2.092873   -1.251995    0.000000
 ---------------------------------------------------------------------

 SCF Done:  E(RHF) =  -4.85891117704     A.U. after   10 cycles
 E2 =    -0.1131373460D+00 EUMP2 =    -0.49720485230469D+01

 The electronic state is 1-AG.
 Alpha  occ. eigenvalues --   -0.85734  -0.73934  -0.54700  -0.38438  -0.29559
 Alpha virt. eigenvalues --   -0.02326   0.22013   0.28930   0.53381   0.76805

 Mulliken charges:
               1
     1  H   -0.087995
     2  H    0.125893
     3  H    0.075073
     4  H   -0.104527
     5  H   -0.008444
     6  H   -0.008444
     7  H   -0.104527
     8  H    0.075073
     9  H    0.125893
    10  H   -0.087995
 Sum of Mulliken charges =   0.00000

 Dipole moment (field-independent basis, Debye):
    X=              0.0000    Y=              0.0000    Z=              0.0000  Tot=              0.0000
 Quadrupole moment (field-independent basis, Debye-Ang):
   XX=            -15.0867   YY=            -14.7459   ZZ=            -12.8761
   XY=             -1.8200   XZ=              0.0000   YZ=              0.0000

 Normal termination of Gaussian 09 at Thu Feb  9 15:31:01 2017.
