 Gaussian 09, Revision E.01,
 Gaussian 09:  ES64L-G09RevE.01 30-Nov-2015

 ----------------------------------------------------------------------
 #rhf/gen scf(symm,tight,novaracc,noincfock,fulldiag) stable(crhf) geom
 =nocrowd test
 ----------------------------------------------------------------------

 ----------------------------------------------------------------------
 hf stability analysis of h10 triangular lattice, y= 1.3116886411449822
 ----------------------------------------------------------------------
 Symbolic Z-matrix:
 Charge =  0 Multiplicity = 1

                         Standard orientation:
 ---------------------------------------------------------------------
 Center     Atomic      Atomic             Coordinates (Angstroms)
 Number     Number       Type             X           Y           Z
 ---------------------------------------------------------------------
      1          1           0        1.669161    2.898812    0.000000
      2          1           0        1.669161    1.515241    0.000000
      3          1           0        0.834581    1.795298    0.000000
      4          1           0        0.834581    0.411728    0.000000
      5          1           0       -0.000000    0.691785    0.000000
      6          1           0       -0.000000   -0.691785    0.000000
      7          1           0       -0.834581   -0.411728   -0.000000
      8          1           0       -0.834581   -1.795298    0.000000
      9          1           0       -1.669161   -1.515241   -0.000000
     10          1           0       -1.669161   -2.898812    0.000000
 ---------------------------------------------------------------------

 SCF Done:  E(RHF) =  -4.74422558723     A.U. after   12 cycles
 E2 =    -0.2122603975D+00 EUMP2 =    -0.49564859847156D+01

 The electronic state is 1-AG.
 Alpha  occ. eigenvalues --   -0.83166  -0.73811  -0.59627  -0.41693  -0.11161
 Alpha virt. eigenvalues --    0.01793   0.08698   0.20478   0.39011   0.55577

 Mulliken charges:
               1
     1  H   -0.247423
     2  H    0.049231
     3  H    0.121356
     4  H    0.034563
     5  H    0.042272
     6  H    0.042272
     7  H    0.034563
     8  H    0.121356
     9  H    0.049231
    10  H   -0.247423
 Sum of Mulliken charges =  -0.00000

 Dipole moment (field-independent basis, Debye):
    X=              0.0000    Y=             -0.0000    Z=             -0.0000  Tot=              0.0000
 Quadrupole moment (field-independent basis, Debye-Ang):
   XX=            -17.3542   YY=            -31.9255   ZZ=            -12.7928
   XY=            -11.7774   XZ=             -0.0000   YZ=             -0.0000

 Normal termination of Gaussian 09 at Thu Feb  9 15:47:19 2017.
