 Gaussian 09, Revision E.01,
 Gaussian 09:  ES64L-G09RevE.01 30-Nov-2015

 ----------------------------------------------------------------------
 #rhf/gen scf(symm,tight,novaracc,noincfock,fulldiag) stable(crhf) geom
 =nocrowd test
 ----------------------------------------------------------------------

 hf stability analysis of h10 triangular lattice, y= 0.9269238868211169
 3
 ----------------------------------------------------------------------
 Symbolic Z-matrix:
 Charge =  0 Multiplicity = 1

                         Standard orientation:
 ---------------------------------------------------------------------
 Center     Atomic      Atomic             Coordinates (Angstroms)
 Number     Number       Type             X           Y           Z
 ---------------------------------------------------------------------
      1          1           0        2.067949    1.402294    0.000000
      2          1           0        2.067949    0.285535    0.000000
      3          1           0        1.033975    0.980337    0.000000
      4          1           0        1.033975   -0.136422   -0.000000
      5          1           0        0.000000    0.558380    0.000000
      6          1           0       -0.000000   -0.558380    0.000000
      7          1           0       -1.033975    0.136422   -0.000000
      8          1           0       -1.033975   -0.980337    0.000000
      9          1           0       -2.067949   -0.285535    0.000000
     10          1           0       -2.067949   -1.402294    0.000000
 ---------------------------------------------------------------------

 SCF Done:  E(RHF) =  -4.86408447759     A.U. after   10 cycles
 E2 =    -0.1125875147D+00 EUMP2 =    -0.49766719923151D+01

 The electronic state is 1-AG.
 Alpha  occ. eigenvalues --   -0.85369  -0.74017  -0.54834  -0.37268  -0.29966
 Alpha virt. eigenvalues --   -0.01778   0.22547   0.26898   0.54089   0.71101

 Mulliken charges:
               1
     1  H   -0.095610
     2  H    0.137178
     3  H    0.089079
     4  H   -0.112363
     5  H   -0.018284
     6  H   -0.018284
     7  H   -0.112363
     8  H    0.089079
     9  H    0.137178
    10  H   -0.095610
 Sum of Mulliken charges =   0.00000

 Dipole moment (field-independent basis, Debye):
    X=             -0.0000    Y=             -0.0000    Z=              0.0000  Tot=              0.0000
 Quadrupole moment (field-independent basis, Debye-Ang):
   XX=            -14.6442   YY=            -15.1272   ZZ=            -12.9087
   XY=             -1.7777   XZ=              0.0000   YZ=              0.0000

 Normal termination of Gaussian 09 at Thu Feb  9 15:32:37 2017.
