 Gaussian 09, Revision E.01,
 Gaussian 09:  ES64L-G09RevE.01 30-Nov-2015

 ----------------------------------------------------------------------
 #rhf/gen scf(symm,tight,novaracc,noincfock,fulldiag) stable(crhf) geom
 =nocrowd test
 ----------------------------------------------------------------------

 hf stability analysis of h10 triangular lattice, y= 0.7718674025216636
 4
 ----------------------------------------------------------------------
 Symbolic Z-matrix:
 Charge =  0 Multiplicity = 1

                         Standard orientation:
 ---------------------------------------------------------------------
 Center     Atomic      Atomic             Coordinates (Angstroms)
 Number     Number       Type             X           Y           Z
 ---------------------------------------------------------------------
      1          1           0        2.148610    0.604940    0.000000
      2          1           0        2.148610   -0.469895    0.000000
      3          1           0        1.074305    0.571179    0.000000
      4          1           0        1.074305   -0.503656    0.000000
      5          1           0       -0.000000    0.537418    0.000000
      6          1           0       -0.000000   -0.537418    0.000000
      7          1           0       -1.074305    0.503656    0.000000
      8          1           0       -1.074305   -0.571179    0.000000
      9          1           0       -2.148610    0.469895    0.000000
     10          1           0       -2.148610   -0.604940    0.000000
 ---------------------------------------------------------------------

 SCF Done:  E(RHF) =  -4.88621710651     A.U. after   10 cycles
 E2 =    -0.1049978234D+00 EUMP2 =    -0.49912149299381D+01

 The electronic state is 1-AG.
 Alpha  occ. eigenvalues --   -0.87759  -0.74524  -0.52643  -0.46850  -0.31197
 Alpha virt. eigenvalues --   -0.01323   0.15359   0.36764   0.51316   0.90215

 Mulliken charges:
               1
     1  H    0.050266
     2  H    0.030625
     3  H   -0.033121
     4  H   -0.033656
     5  H   -0.014114
     6  H   -0.014114
     7  H   -0.033656
     8  H   -0.033121
     9  H    0.030625
    10  H    0.050266
 Sum of Mulliken charges =  -0.00000

 Dipole moment (field-independent basis, Debye):
    X=             -0.0000    Y=             -0.0000    Z=              0.0000  Tot=              0.0000
 Quadrupole moment (field-independent basis, Debye-Ang):
   XX=            -10.0717   YY=            -17.3881   ZZ=            -12.9545
   XY=              0.4637   XZ=              0.0000   YZ=             -0.0000

 Normal termination of Gaussian 09 at Thu Feb  9 15:23:46 2017.
