 Gaussian 09, Revision E.01,
 Gaussian 09:  ES64L-G09RevE.01 30-Nov-2015

 ----------------------------------------------------------------------
 #rhf/gen scf(symm,tight,novaracc,noincfock,fulldiag) stable(crhf) geom
 =nocrowd test
 ----------------------------------------------------------------------

 hf stability analysis of h10 triangular lattice, y= 0.7624926854841530
 5
 ----------------------------------------------------------------------
 Symbolic Z-matrix:
 Charge =  0 Multiplicity = 1

                         Standard orientation:
 ---------------------------------------------------------------------
 Center     Atomic      Atomic             Coordinates (Angstroms)
 Number     Number       Type             X           Y           Z
 ---------------------------------------------------------------------
      1          1           0        2.149114    0.552295    0.000000
      2          1           0        2.149114   -0.522288    0.000000
      3          1           0        1.074557    0.544793    0.000000
      4          1           0        1.074557   -0.529790    0.000000
      5          1           0        0.000000    0.537292    0.000000
      6          1           0       -0.000000   -0.537292   -0.000000
      7          1           0       -1.074557    0.529790   -0.000000
      8          1           0       -1.074557   -0.544793   -0.000000
      9          1           0       -2.149114    0.522288   -0.000000
     10          1           0       -2.149114   -0.552295   -0.000000
 ---------------------------------------------------------------------

 SCF Done:  E(RHF) =  -4.88664293507     A.U. after   10 cycles
 E2 =    -0.1049708171D+00 EUMP2 =    -0.49916137521776D+01

 The electronic state is 1-AG.
 Alpha  occ. eigenvalues --   -0.87770  -0.74531  -0.52639  -0.46875  -0.31223
 Alpha virt. eigenvalues --   -0.01294   0.15325   0.36831   0.51282   0.90366

 Mulliken charges:
               1
     1  H    0.042665
     2  H    0.038299
     3  H   -0.033333
     4  H   -0.033449
     5  H   -0.014182
     6  H   -0.014182
     7  H   -0.033449
     8  H   -0.033333
     9  H    0.038299
    10  H    0.042665
 Sum of Mulliken charges =   0.00000

 Dipole moment (field-independent basis, Debye):
    X=             -0.0000    Y=              0.0000    Z=             -0.0000  Tot=              0.0000
 Quadrupole moment (field-independent basis, Debye-Ang):
   XX=            -10.0645   YY=            -17.4078   ZZ=            -12.9543
   XY=              0.1031   XZ=              0.0000   YZ=              0.0000

 Normal termination of Gaussian 09 at Thu Feb  9 15:23:11 2017.
