 Gaussian 09, Revision E.01,
 Gaussian 09:  ES64L-G09RevE.01 30-Nov-2015

 ----------------------------------------------------------------------
 #rhf/gen scf(symm,tight,novaracc,noincfock,fulldiag) stable(crhf) geom
 =nocrowd test
 ----------------------------------------------------------------------

 hf stability analysis of h10 triangular lattice, y= 0.8413687690539518
 6
 ----------------------------------------------------------------------
 Symbolic Z-matrix:
 Charge =  0 Multiplicity = 1

                         Standard orientation:
 ---------------------------------------------------------------------
 Center     Atomic      Atomic             Coordinates (Angstroms)
 Number     Number       Type             X           Y           Z
 ---------------------------------------------------------------------
      1          1           0        2.127079    0.979484    0.000000
      2          1           0        2.127079   -0.106231    0.000000
      3          1           0        1.063539    0.761171    0.000000
      4          1           0        1.063539   -0.324544    0.000000
      5          1           0        0.000000    0.542857    0.000000
      6          1           0       -0.000000   -0.542857   -0.000000
      7          1           0       -1.063539    0.324544   -0.000000
      8          1           0       -1.063539   -0.761171   -0.000000
      9          1           0       -2.127079    0.106231   -0.000000
     10          1           0       -2.127079   -0.979484   -0.000000
 ---------------------------------------------------------------------

 SCF Done:  E(RHF) =  -4.84833562483     A.U. after   10 cycles
 E2 =    -0.1147498116D+00 EUMP2 =    -0.49630854364324D+01

 The electronic state is 1-AG.
 Alpha  occ. eigenvalues --   -0.86160  -0.73730  -0.54490  -0.39970  -0.28936
 Alpha virt. eigenvalues --   -0.02985   0.21238   0.31951   0.52391   0.85745

 Mulliken charges:
               1
     1  H   -0.059127
     2  H    0.093784
     3  H    0.041324
     4  H   -0.082816
     5  H    0.006835
     6  H    0.006835
     7  H   -0.082816
     8  H    0.041324
     9  H    0.093784
    10  H   -0.059127
 Sum of Mulliken charges =  -0.00000

 Dipole moment (field-independent basis, Debye):
    X=              0.0000    Y=             -0.0000    Z=             -0.0000  Tot=              0.0000
 Quadrupole moment (field-independent basis, Debye-Ang):
   XX=            -15.7306   YY=            -13.9899   ZZ=            -12.8278
   XY=             -1.4471   XZ=             -0.0000   YZ=             -0.0000

 Normal termination of Gaussian 09 at Thu Feb  9 15:28:01 2017.
