 Gaussian 09, Revision E.01,
 Gaussian 09:  ES64L-G09RevE.01 30-Nov-2015

 ----------------------------------------------------------------------
 #rhf/gen scf(symm,tight,novaracc,noincfock,fulldiag) stable(crhf) geom
 =nocrowd test
 ----------------------------------------------------------------------

 ----------------------------------------------------------------------
 hf stability analysis of h10 triangular lattice, y= 1.8003407000701643
 ----------------------------------------------------------------------
 Symbolic Z-matrix:
 Charge =  0 Multiplicity = 1

                         Standard orientation:
 ---------------------------------------------------------------------
 Center     Atomic      Atomic             Coordinates (Angstroms)
 Number     Number       Type             X           Y           Z
 ---------------------------------------------------------------------
      1          1           0        1.262879    4.346745    0.000000
      2          1           0        1.262879    2.518066    0.000000
      3          1           0        0.631440    2.630543    0.000000
      4          1           0        0.631440    0.801863    0.000000
      5          1           0        0.000000    0.914340    0.000000
      6          1           0       -0.000000   -0.914340    0.000000
      7          1           0       -0.631440   -0.801863    0.000000
      8          1           0       -0.631440   -2.630543    0.000000
      9          1           0       -1.262879   -2.518066    0.000000
     10          1           0       -1.262879   -4.346745    0.000000
 ---------------------------------------------------------------------

 SCF Done:  E(RHF) =  -4.90001490567     A.U. after    7 cycles
 E2 =    -0.6920796412D+00 EUMP2 =    -0.55920945468692D+01

 The electronic state is 1-AG.
 Alpha  occ. eigenvalues --   -0.74006  -0.70284  -0.64341  -0.57582  -0.18827
 Alpha virt. eigenvalues --   -0.12750   0.34080   0.42345   0.54702   0.66787

 Mulliken charges:
               1
     1  H   -0.020260
     2  H    0.007653
     3  H    0.008851
     4  H    0.000592
     5  H    0.003164
     6  H    0.003164
     7  H    0.000592
     8  H    0.008851
     9  H    0.007653
    10  H   -0.020260
 Sum of Mulliken charges =  -0.00000

 Dipole moment (field-independent basis, Debye):
    X=             -0.0000    Y=             -0.0000    Z=              0.0000  Tot=              0.0000
 Quadrupole moment (field-independent basis, Debye-Ang):
   XX=            -12.3493   YY=            -19.5563   ZZ=            -13.1391
   XY=             -2.1363   XZ=              0.0000   YZ=              0.0000

 Normal termination of Gaussian 09 at Thu Feb  9 15:55:27 2017.
