 Gaussian 09, Revision E.01,
 Gaussian 09:  ES64L-G09RevE.01 30-Nov-2015

 ----------------------------------------------------------------------
 #rhf/gen scf(symm,tight,novaracc,noincfock,fulldiag) stable(crhf) geom
 =nocrowd test
 ----------------------------------------------------------------------

 ----------------------------------------------------------------------
 hf stability analysis of h10 triangular lattice, y= 1.5909090623208391
 ----------------------------------------------------------------------
 Symbolic Z-matrix:
 Charge =  0 Multiplicity = 1

                         Standard orientation:
 ---------------------------------------------------------------------
 Center     Atomic      Atomic             Coordinates (Angstroms)
 Number     Number       Type             X           Y           Z
 ---------------------------------------------------------------------
      1          1           0        1.415269    3.756599   -0.000000
      2          1           0        1.415269    2.124823   -0.000000
      3          1           0        0.707634    2.286244   -0.000000
      4          1           0        0.707634    0.654468   -0.000000
      5          1           0        0.000000    0.815888   -0.000000
      6          1           0       -0.000000   -0.815888   -0.000000
      7          1           0       -0.707634   -0.654468   -0.000000
      8          1           0       -0.707634   -2.286244   -0.000000
      9          1           0       -1.415269   -2.124823   -0.000000
     10          1           0       -1.415269   -3.756599   -0.000000
 ---------------------------------------------------------------------

 SCF Done:  E(RHF) =  -4.91400221692     A.U. after    8 cycles
 E2 =    -0.5121189382D+00 EUMP2 =    -0.54261211551154D+01

 The electronic state is 1-AG.
 Alpha  occ. eigenvalues --   -0.76181  -0.70711  -0.61932  -0.51173  -0.16398
 Alpha virt. eigenvalues --   -0.08791   0.24070   0.34072   0.49053   0.63778

 Mulliken charges:
               1
     1  H   -0.072523
     2  H    0.021465
     3  H    0.031578
     4  H    0.006836
     5  H    0.012644
     6  H    0.012644
     7  H    0.006836
     8  H    0.031578
     9  H    0.021465
    10  H   -0.072523
 Sum of Mulliken charges =  -0.00000

 Dipole moment (field-independent basis, Debye):
    X=              0.0000    Y=              0.0000    Z=              0.0000  Tot=              0.0000
 Quadrupole moment (field-independent basis, Debye-Ang):
   XX=            -12.9981   YY=            -24.6200   ZZ=            -12.9734
   XY=             -4.7998   XZ=             -0.0000   YZ=             -0.0000

 Normal termination of Gaussian 09 at Thu Feb  9 15:52:49 2017.
