 Gaussian 09, Revision E.01,
 Gaussian 09:  ES64L-G09RevE.01 30-Nov-2015

 ----------------------------------------------------------------------
 #rhf/gen scf(symm,tight,novaracc,noincfock,fulldiag) stable(crhf) geom
 =nocrowd test
 ----------------------------------------------------------------------

 hf stability analysis of h10 triangular lattice, y= 0.8721415768685929
 5
 ----------------------------------------------------------------------
 Symbolic Z-matrix:
 Charge =  0 Multiplicity = 1

                         Standard orientation:
 ---------------------------------------------------------------------
 Center     Atomic      Atomic             Coordinates (Angstroms)
 Number     Number       Type             X           Y           Z
 ---------------------------------------------------------------------
      1          1           0        2.109184    1.136358    0.000000
      2          1           0        2.109184    0.041432    0.000000
      3          1           0        1.054592    0.841911    0.000000
      4          1           0        1.054592   -0.253016    0.000000
      5          1           0        0.000000    0.547463    0.000000
      6          1           0       -0.000000   -0.547463    0.000000
      7          1           0       -1.054592    0.253016    0.000000
      8          1           0       -1.054592   -0.841911    0.000000
      9          1           0       -2.109184   -0.041432    0.000000
     10          1           0       -2.109184   -1.136358    0.000000
 ---------------------------------------------------------------------

 SCF Done:  E(RHF) =  -4.85437850036     A.U. after   11 cycles
 E2 =    -0.1137699847D+00 EUMP2 =    -0.49681484850436D+01

 The electronic state is 1-AG.
 Alpha  occ. eigenvalues --   -0.85949  -0.73851  -0.54604  -0.39180  -0.29272
 Alpha virt. eigenvalues --   -0.02655   0.21649   0.30334   0.52913   0.80892

 Mulliken charges:
               1
     1  H   -0.078006
     2  H    0.114046
     3  H    0.061973
     4  H   -0.096555
     5  H   -0.001458
     6  H   -0.001458
     7  H   -0.096555
     8  H    0.061973
     9  H    0.114046
    10  H   -0.078006
 Sum of Mulliken charges =  -0.00000

 Dipole moment (field-independent basis, Debye):
    X=              0.0000    Y=             -0.0000    Z=              0.0000  Tot=              0.0000
 Quadrupole moment (field-independent basis, Debye-Ang):
   XX=            -15.3892   YY=            -14.4198   ZZ=            -12.8537
   XY=             -1.7281   XZ=              0.0000   YZ=              0.0000

 Normal termination of Gaussian 09 at Thu Feb  9 15:29:44 2017.
