 Gaussian 09, Revision E.01,
 Gaussian 09:  ES64L-G09RevE.01 30-Nov-2015

 ----------------------------------------------------------------------
 #rhf/gen scf(symm,tight,novaracc,noincfock,fulldiag) stable(crhf) geom
 =nocrowd test
 ----------------------------------------------------------------------

 ----------------------------------------------------------------------
 hf stability analysis of h10 triangular lattice, y= 1.2232082178908650
 ----------------------------------------------------------------------
 Symbolic Z-matrix:
 Charge =  0 Multiplicity = 1

                         Standard orientation:
 ---------------------------------------------------------------------
 Center     Atomic      Atomic             Coordinates (Angstroms)
 Number     Number       Type             X           Y           Z
 ---------------------------------------------------------------------
      1          1           0        1.761404    2.598115   -0.000000
      2          1           0        1.761404    1.287001   -0.000000
      3          1           0        0.880702    1.626836   -0.000000
      4          1           0        0.880702    0.315722   -0.000000
      5          1           0        0.000000    0.655557   -0.000000
      6          1           0       -0.000000   -0.655557   -0.000000
      7          1           0       -0.880702   -0.315722    0.000000
      8          1           0       -0.880702   -1.626836   -0.000000
      9          1           0       -1.761404   -1.287001    0.000000
     10          1           0       -1.761404   -2.598115   -0.000000
 ---------------------------------------------------------------------

 SCF Done:  E(RHF) =  -4.76781662516     A.U. after   11 cycles
 E2 =    -0.1297805701D+00 EUMP2 =    -0.48975971953076D+01

 The electronic state is 1-AG.
 Alpha  occ. eigenvalues --   -0.78629  -0.72256  -0.55190  -0.34026  -0.19345
 Alpha virt. eigenvalues --    0.02013   0.14606   0.18471   0.39787   0.62856

 Mulliken charges:
               1
     1  H    0.034584
     2  H    0.066935
     3  H    0.112958
     4  H   -0.088732
     5  H   -0.125744
     6  H   -0.125744
     7  H   -0.088732
     8  H    0.112958
     9  H    0.066935
    10  H    0.034584
 Sum of Mulliken charges =  -0.00000

 Dipole moment (field-independent basis, Debye):
    X=              0.0000    Y=              0.0000    Z=             -0.0000  Tot=              0.0000
 Quadrupole moment (field-independent basis, Debye-Ang):
   XX=            -11.5723   YY=             -9.1538   ZZ=            -13.1803
   XY=              4.4285   XZ=              0.0000   YZ=             -0.0000

 Normal termination of Gaussian 09 at Thu Feb  9 15:44:50 2017.
