 Gaussian 09, Revision E.01,
 Gaussian 09:  ES64L-G09RevE.01 30-Nov-2015

 ----------------------------------------------------------------------
 #rhf/gen scf(symm,tight,novaracc,noincfock,fulldiag) stable(crhf) geom
 =nocrowd test
 ----------------------------------------------------------------------

 ----------------------------------------------------------------------
 hf stability analysis of h10 triangular lattice, y= 2.1303392641794385
 ----------------------------------------------------------------------
 Symbolic Z-matrix:
 Charge =  0 Multiplicity = 1

                         Standard orientation:
 ---------------------------------------------------------------------
 Center     Atomic      Atomic             Coordinates (Angstroms)
 Number     Number       Type             X           Y           Z
 ---------------------------------------------------------------------
      1          1           0        1.075386    5.231965   -0.000000
      2          1           0        1.075386    3.084457   -0.000000
      3          1           0        0.537693    3.152860   -0.000000
      4          1           0        0.537693    1.005351   -0.000000
      5          1           0        0.000000    1.073754   -0.000000
      6          1           0       -0.000000   -1.073754   -0.000000
      7          1           0       -0.537693   -1.005351   -0.000000
      8          1           0       -0.537693   -3.152860   -0.000000
      9          1           0       -1.075386   -3.084457   -0.000000
     10          1           0       -1.075386   -5.231965   -0.000000
 ---------------------------------------------------------------------

 SCF Done:  E(RHF) =  -4.69895261292     A.U. after    5 cycles
 E2 =    -0.8762020995D+00 EUMP2 =    -0.55751547124723D+01

 The electronic state is 1-AG.
 Alpha  occ. eigenvalues --   -0.73338  -0.71326  -0.68360  -0.65409  -0.20238
 Alpha virt. eigenvalues --   -0.15262   0.46740   0.52854   0.61569   0.69708

 Mulliken charges:
               1
     1  H   -0.000781
     2  H    0.001019
     3  H   -0.000454
     4  H   -0.000199
     5  H    0.000414
     6  H    0.000414
     7  H   -0.000199
     8  H   -0.000454
     9  H    0.001019
    10  H   -0.000781
 Sum of Mulliken charges =  -0.00000

 Dipole moment (field-independent basis, Debye):
    X=              0.0000    Y=             -0.0000    Z=              0.0000  Tot=              0.0000
 Quadrupole moment (field-independent basis, Debye-Ang):
   XX=            -12.4701   YY=            -16.0930   ZZ=            -13.3620
   XY=             -0.7064   XZ=             -0.0000   YZ=             -0.0000

 Normal termination of Gaussian 09 at Thu Feb  9 15:58:09 2017.
