 Gaussian 09, Revision E.01,
 Gaussian 09:  ES64L-G09RevE.01 30-Nov-2015

 ----------------------------------------------------------------------
 #rhf/gen scf(symm,tight,novaracc,noincfock,fulldiag) stable(crhf) geom
 =nocrowd test
 ----------------------------------------------------------------------

 ----------------------------------------------------------------------
 hf stability analysis of h10 triangular lattice, y= 1.1064166633763877
 ----------------------------------------------------------------------
 Symbolic Z-matrix:
 Charge =  0 Multiplicity = 1

                         Standard orientation:
 ---------------------------------------------------------------------
 Center     Atomic      Atomic             Coordinates (Angstroms)
 Number     Number       Type             X           Y           Z
 ---------------------------------------------------------------------
      1          1           0        1.887851    2.167872    0.000000
      2          1           0        1.887851    0.944576    0.000000
      3          1           0        0.943926    1.389760    0.000000
      4          1           0        0.943926    0.166464    0.000000
      5          1           0        0.000000    0.611648    0.000000
      6          1           0       -0.000000   -0.611648   -0.000000
      7          1           0       -0.943926   -0.166464    0.000000
      8          1           0       -0.943926   -1.389760   -0.000000
      9          1           0       -1.887851   -0.944576   -0.000000
     10          1           0       -1.887851   -2.167872   -0.000000
 ---------------------------------------------------------------------

 SCF Done:  E(RHF) =  -4.84203500395     A.U. after   10 cycles
 E2 =    -0.1186282688D+00 EUMP2 =    -0.49606632727742D+01

 The electronic state is 1-AG.
 Alpha  occ. eigenvalues --   -0.81798  -0.73481  -0.55331  -0.32672  -0.27233
 Alpha virt. eigenvalues --    0.02451   0.15929   0.24165   0.44251   0.59201

 Mulliken charges:
               1
     1  H   -0.044570
     2  H    0.125263
     3  H    0.112979
     4  H   -0.117481
     5  H   -0.076189
     6  H   -0.076189
     7  H   -0.117481
     8  H    0.112979
     9  H    0.125263
    10  H   -0.044570
 Sum of Mulliken charges =   0.00000

 Dipole moment (field-independent basis, Debye):
    X=             -0.0000    Y=             -0.0000    Z=             -0.0000  Tot=              0.0000
 Quadrupole moment (field-independent basis, Debye-Ang):
   XX=            -12.3032   YY=            -13.9785   ZZ=            -13.0955
   XY=              1.2693   XZ=              0.0000   YZ=             -0.0000

 Normal termination of Gaussian 09 at Thu Feb  9 15:40:47 2017.
