 Gaussian 09, Revision E.01,
 Gaussian 09:  ES64L-G09RevE.01 30-Nov-2015

 ----------------------------------------------------------------------
 #rhf/gen scf(symm,tight,novaracc,noincfock,fulldiag) stable(crhf) geom
 =nocrowd test
 ----------------------------------------------------------------------

 ----------------------------------------------------------------------
 hf stability analysis of h10 triangular lattice, y= 1.2410056843059762
 ----------------------------------------------------------------------
 Symbolic Z-matrix:
 Charge =  0 Multiplicity = 1

                         Standard orientation:
 ---------------------------------------------------------------------
 Center     Atomic      Atomic             Coordinates (Angstroms)
 Number     Number       Type             X           Y           Z
 ---------------------------------------------------------------------
      1          1           0        1.742494    2.660130    0.000000
      2          1           0        1.742494    1.334788    0.000000
      3          1           0        0.871247    1.661400    0.000000
      4          1           0        0.871247    0.336058    0.000000
      5          1           0        0.000000    0.662671    0.000000
      6          1           0       -0.000000   -0.662671   -0.000000
      7          1           0       -0.871247   -0.336058    0.000000
      8          1           0       -0.871247   -1.661400   -0.000000
      9          1           0       -1.742494   -1.334788   -0.000000
     10          1           0       -1.742494   -2.660130   -0.000000
 ---------------------------------------------------------------------

 SCF Done:  E(RHF) =  -4.75304547574     A.U. after   11 cycles
 E2 =    -0.1319826061D+00 EUMP2 =    -0.48850280818373D+01

 The electronic state is 1-AG.
 Alpha  occ. eigenvalues --   -0.78126  -0.72024  -0.55141  -0.34265  -0.18072
 Alpha virt. eigenvalues --    0.01465   0.15074   0.17181   0.39931   0.63393

 Mulliken charges:
               1
     1  H    0.047569
     2  H    0.052391
     3  H    0.115859
     4  H   -0.078118
     5  H   -0.137701
     6  H   -0.137701
     7  H   -0.078118
     8  H    0.115859
     9  H    0.052391
    10  H    0.047569
 Sum of Mulliken charges =   0.00000

 Dipole moment (field-independent basis, Debye):
    X=             -0.0000    Y=             -0.0000    Z=             -0.0000  Tot=              0.0000
 Quadrupole moment (field-independent basis, Debye-Ang):
   XX=            -11.5617   YY=             -8.1669   ZZ=            -13.1871
   XY=              4.8634   XZ=              0.0000   YZ=              0.0000

 Normal termination of Gaussian 09 at Thu Feb  9 15:45:22 2017.
