 Gaussian 09, Revision E.01,
 Gaussian 09:  ES64L-G09RevE.01 30-Nov-2015

 ----------------------------------------------------------------------
 #rhf/gen scf(symm,tight,novaracc,noincfock,fulldiag) stable(crhf) geom
 =nocrowd test
 ----------------------------------------------------------------------

 ----------------------------------------------------------------------
 hf stability analysis of h10 triangular lattice, y= 1.2509902265939778
 ----------------------------------------------------------------------
 Symbolic Z-matrix:
 Charge =  0 Multiplicity = 1

                         Standard orientation:
 ---------------------------------------------------------------------
 Center     Atomic      Atomic             Coordinates (Angstroms)
 Number     Number       Type             X           Y           Z
 ---------------------------------------------------------------------
      1          1           0        1.731956    2.694563    0.000000
      2          1           0        1.731956    1.361157    0.000000
      3          1           0        0.865978    1.680633    0.000000
      4          1           0        0.865978    0.347227    0.000000
      5          1           0        0.000000    0.666703    0.000000
      6          1           0       -0.000000   -0.666703    0.000000
      7          1           0       -0.865978   -0.347227    0.000000
      8          1           0       -0.865978   -1.680633    0.000000
      9          1           0       -1.731956   -1.361157    0.000000
     10          1           0       -1.731956   -2.694563    0.000000
 ---------------------------------------------------------------------

 SCF Done:  E(RHF) =  -4.74452110999     A.U. after   11 cycles
 E2 =    -0.1333407533D+00 EUMP2 =    -0.48778618632741D+01

 The electronic state is 1-AG.
 Alpha  occ. eigenvalues --   -0.77844  -0.71889  -0.55113  -0.34411  -0.17348
 Alpha virt. eigenvalues --    0.01114   0.15409   0.16451   0.40067   0.63686

 Mulliken charges:
               1
     1  H    0.054722
     2  H    0.042749
     3  H    0.118563
     4  H   -0.070345
     5  H   -0.145689
     6  H   -0.145689
     7  H   -0.070345
     8  H    0.118563
     9  H    0.042749
    10  H    0.054722
 Sum of Mulliken charges =  -0.00000

 Dipole moment (field-independent basis, Debye):
    X=              0.0000    Y=             -0.0000    Z=              0.0000  Tot=              0.0000
 Quadrupole moment (field-independent basis, Debye-Ang):
   XX=            -11.5789   YY=             -7.6031   ZZ=            -13.1892
   XY=              5.0783   XZ=              0.0000   YZ=              0.0000

 Normal termination of Gaussian 09 at Thu Feb  9 15:45:39 2017.
