 Gaussian 09, Revision E.01,
 Gaussian 09:  ES64L-G09RevE.01 30-Nov-2015

 ----------------------------------------------------------------------
 #rhf/gen scf(symm,tight,novaracc,noincfock,fulldiag) stable(crhf) geom
 =nocrowd test
 ----------------------------------------------------------------------

 hf stability analysis of h10 triangular lattice, y= 0.7847877396887753
 5
 ----------------------------------------------------------------------
 Symbolic Z-matrix:
 Charge =  0 Multiplicity = 1

                         Standard orientation:
 ---------------------------------------------------------------------
 Center     Atomic      Atomic             Coordinates (Angstroms)
 Number     Number       Type             X           Y           Z
 ---------------------------------------------------------------------
      1          1           0        2.146899    0.676680    0.000000
      2          1           0        2.146899   -0.399012    0.000000
      3          1           0        1.073449    0.607263    0.000000
      4          1           0        1.073449   -0.468429    0.000000
      5          1           0       -0.000000    0.537846    0.000000
      6          1           0       -0.000000   -0.537846    0.000000
      7          1           0       -1.073449    0.468429    0.000000
      8          1           0       -1.073449   -0.607263    0.000000
      9          1           0       -2.146899    0.399012    0.000000
     10          1           0       -2.146899   -0.676680    0.000000
 ---------------------------------------------------------------------

 SCF Done:  E(RHF) =  -4.88476826848     A.U. after   10 cycles
 E2 =    -0.1050899086D+00 EUMP2 =    -0.49898581771057D+01

 The electronic state is 1-AG.
 Alpha  occ. eigenvalues --   -0.87721  -0.74502  -0.52658  -0.46765  -0.31112
 Alpha virt. eigenvalues --   -0.01421   0.15475   0.36539   0.51428   0.89707

 Mulliken charges:
               1
     1  H    0.060478
     2  H    0.020164
     3  H   -0.032786
     4  H   -0.033977
     5  H   -0.013879
     6  H   -0.013879
     7  H   -0.033977
     8  H   -0.032786
     9  H    0.020164
    10  H    0.060478
 Sum of Mulliken charges =  -0.00000

 Dipole moment (field-independent basis, Debye):
    X=             -0.0000    Y=             -0.0000    Z=              0.0000  Tot=              0.0000
 Quadrupole moment (field-independent basis, Debye-Ang):
   XX=            -10.0961   YY=            -17.3213   ZZ=            -12.9550
   XY=              0.9520   XZ=             -0.0000   YZ=              0.0000

 Normal termination of Gaussian 09 at Thu Feb  9 15:24:35 2017.
