 Gaussian 09, Revision E.01,
 Gaussian 09:  ES64L-G09RevE.01 30-Nov-2015

 ----------------------------------------------------------------------
 #rhf/gen scf(symm,tight,novaracc,noincfock,fulldiag) stable(crhf) geom
 =nocrowd test
 ----------------------------------------------------------------------

 hf stability analysis of h10 triangular lattice, y= 0.7651590897986665
 4
 ----------------------------------------------------------------------
 Symbolic Z-matrix:
 Charge =  0 Multiplicity = 1

                         Standard orientation:
 ---------------------------------------------------------------------
 Center     Atomic      Atomic             Coordinates (Angstroms)
 Number     Number       Type             X           Y           Z
 ---------------------------------------------------------------------
      1          1           0        2.149035    0.567319   -0.000000
      2          1           0        2.149035   -0.507303   -0.000000
      3          1           0        1.074518    0.552315   -0.000000
      4          1           0        1.074518   -0.522307   -0.000000
      5          1           0        0.000000    0.537311    0.000000
      6          1           0       -0.000000   -0.537311   -0.000000
      7          1           0       -1.074518    0.522307   -0.000000
      8          1           0       -1.074518   -0.552315   -0.000000
      9          1           0       -2.149035    0.507303   -0.000000
     10          1           0       -2.149035   -0.567319   -0.000000
 ---------------------------------------------------------------------

 SCF Done:  E(RHF) =  -4.88657660812     A.U. after   10 cycles
 E2 =    -0.1049750219D+00 EUMP2 =    -0.49915516300125D+01

 The electronic state is 1-AG.
 Alpha  occ. eigenvalues --   -0.87768  -0.74530  -0.52639  -0.46871  -0.31219
 Alpha virt. eigenvalues --   -0.01298   0.15330   0.36821   0.51287   0.90342

 Mulliken charges:
               1
     1  H    0.044842
     2  H    0.036110
     3  H   -0.033274
     4  H   -0.033507
     5  H   -0.014171
     6  H   -0.014171
     7  H   -0.033507
     8  H   -0.033274
     9  H    0.036110
    10  H    0.044842
 Sum of Mulliken charges =  -0.00000

 Dipole moment (field-independent basis, Debye):
    X=             -0.0000    Y=              0.0000    Z=             -0.0000  Tot=              0.0000
 Quadrupole moment (field-independent basis, Debye-Ang):
   XX=            -10.0656   YY=            -17.4047   ZZ=            -12.9544
   XY=              0.2062   XZ=              0.0000   YZ=             -0.0000

 Normal termination of Gaussian 09 at Thu Feb  9 15:23:22 2017.
