 Gaussian 09, Revision E.01,
 Gaussian 09:  ES64L-G09RevE.01 30-Nov-2015

 ----------------------------------------------------------------------
 #rhf/gen scf(symm,tight,novaracc,noincfock,fulldiag) stable(crhf) geom
 =nocrowd test
 ----------------------------------------------------------------------

 hf stability analysis of h10 triangular lattice, y= 0.9410916948249209
 4
 ----------------------------------------------------------------------
 Symbolic Z-matrix:
 Charge =  0 Multiplicity = 1

                         Standard orientation:
 ---------------------------------------------------------------------
 Center     Atomic      Atomic             Coordinates (Angstroms)
 Number     Number       Type             X           Y           Z
 ---------------------------------------------------------------------
      1          1           0        2.055728    1.468383   -0.000000
      2          1           0        2.055728    0.344985   -0.000000
      3          1           0        1.027864    1.015041   -0.000000
      4          1           0        1.027864   -0.108357   -0.000000
      5          1           0       -0.000000    0.561699    0.000000
      6          1           0       -0.000000   -0.561699    0.000000
      7          1           0       -1.027864    0.108357   -0.000000
      8          1           0       -1.027864   -1.015041   -0.000000
      9          1           0       -2.055728   -0.344985   -0.000000
     10          1           0       -2.055728   -1.468383   -0.000000
 ---------------------------------------------------------------------

 SCF Done:  E(RHF) =  -4.86586118185     A.U. after   10 cycles
 E2 =    -0.1124812541D+00 EUMP2 =    -0.49783424359535D+01

 The electronic state is 1-AG.
 Alpha  occ. eigenvalues --   -0.85176  -0.74040  -0.54894  -0.36682  -0.30152
 Alpha virt. eigenvalues --   -0.01494   0.22797   0.25948   0.54435   0.68518

 Mulliken charges:
               1
     1  H   -0.097002
     2  H    0.140657
     3  H    0.094131
     4  H   -0.114976
     5  H   -0.022810
     6  H   -0.022810
     7  H   -0.114976
     8  H    0.094131
     9  H    0.140657
    10  H   -0.097002
 Sum of Mulliken charges =   0.00000

 Dipole moment (field-independent basis, Debye):
    X=              0.0000    Y=              0.0000    Z=             -0.0000  Tot=              0.0000
 Quadrupole moment (field-independent basis, Debye-Ang):
   XX=            -14.4372   YY=            -15.2638   ZZ=            -12.9240
   XY=             -1.6987   XZ=             -0.0000   YZ=             -0.0000

 Normal termination of Gaussian 09 at Thu Feb  9 15:33:20 2017.
