 Gaussian 09, Revision E.01,
 Gaussian 09:  ES64L-G09RevE.01 30-Nov-2015

 ----------------------------------------------------------------------
 #rhf/gen scf(symm,tight,novaracc,noincfock,fulldiag) stable(crhf) geom
 =nocrowd test
 ----------------------------------------------------------------------

 hf stability analysis of h10 triangular lattice, y= 0.9959855166101204
 7
 ----------------------------------------------------------------------
 Symbolic Z-matrix:
 Charge =  0 Multiplicity = 1

                         Standard orientation:
 ---------------------------------------------------------------------
 Center     Atomic      Atomic             Coordinates (Angstroms)
 Number     Number       Type             X           Y           Z
 ---------------------------------------------------------------------
      1          1           0        2.004002    1.714629   -0.000000
      2          1           0        2.004002    0.562235   -0.000000
      3          1           0        1.002001    1.145413   -0.000000
      4          1           0        1.002001   -0.006981   -0.000000
      5          1           0        0.000000    0.576197    0.000000
      6          1           0       -0.000000   -0.576197    0.000000
      7          1           0       -1.002001    0.006981   -0.000000
      8          1           0       -1.002001   -1.145413    0.000000
      9          1           0       -2.004002   -0.562235    0.000000
     10          1           0       -2.004002   -1.714629    0.000000
 ---------------------------------------------------------------------

 SCF Done:  E(RHF) =  -4.86798266304     A.U. after   10 cycles
 E2 =    -0.1130263780D+00 EUMP2 =    -0.49810090410121D+01

 The electronic state is 1-AG.
 Alpha  occ. eigenvalues --   -0.84266  -0.74029  -0.55106  -0.34162  -0.30800
 Alpha virt. eigenvalues --   -0.00221   0.22243   0.23735   0.55895   0.58922

 Mulliken charges:
               1
     1  H   -0.091883
     2  H    0.145797
     3  H    0.107273
     4  H   -0.120766
     5  H   -0.040422
     6  H   -0.040422
     7  H   -0.120766
     8  H    0.107273
     9  H    0.145797
    10  H   -0.091883
 Sum of Mulliken charges =  -0.00000

 Dipole moment (field-independent basis, Debye):
    X=             -0.0000    Y=             -0.0000    Z=             -0.0000  Tot=              0.0000
 Quadrupole moment (field-independent basis, Debye-Ang):
   XX=            -13.6388   YY=            -15.4882   ZZ=            -12.9840
   XY=             -1.0792   XZ=              0.0000   YZ=              0.0000

 Normal termination of Gaussian 09 at Thu Feb  9 15:36:00 2017.
