 Gaussian 09, Revision E.01,
 Gaussian 09:  ES64L-G09RevE.01 30-Nov-2015

 ----------------------------------------------------------------------
 #rhf/gen scf(symm,tight,novaracc,noincfock,fulldiag) stable(crhf) geom
 =nocrowd test
 ----------------------------------------------------------------------

 ----------------------------------------------------------------------
 hf stability analysis of h10 triangular lattice, y= 1.7649657119256603
 ----------------------------------------------------------------------
 Symbolic Z-matrix:
 Charge =  0 Multiplicity = 1

                         Standard orientation:
 ---------------------------------------------------------------------
 Center     Atomic      Atomic             Coordinates (Angstroms)
 Number     Number       Type             X           Y           Z
 ---------------------------------------------------------------------
      1          1           0        1.286558    4.249109    0.000000
      2          1           0        1.286558    2.454086    0.000000
      3          1           0        0.643279    2.573311    0.000000
      4          1           0        0.643279    0.778287    0.000000
      5          1           0        0.000000    0.897512    0.000000
      6          1           0       -0.000000   -0.897512    0.000000
      7          1           0       -0.643279   -0.778287    0.000000
      8          1           0       -0.643279   -2.573311    0.000000
      9          1           0       -1.286558   -2.454086    0.000000
     10          1           0       -1.286558   -4.249109    0.000000
 ---------------------------------------------------------------------

 SCF Done:  E(RHF) =  -4.90987788967     A.U. after    7 cycles
 E2 =    -0.6665110239D+00 EUMP2 =    -0.55763889136189D+01

 The electronic state is 1-AG.
 Alpha  occ. eigenvalues --   -0.74231  -0.70267  -0.63903  -0.56562  -0.18533
 Alpha virt. eigenvalues --   -0.12275   0.32537   0.41061   0.53849   0.66399

 Mulliken charges:
               1
     1  H   -0.025512
     2  H    0.009204
     3  H    0.011282
     4  H    0.001018
     5  H    0.004008
     6  H    0.004008
     7  H    0.001018
     8  H    0.011282
     9  H    0.009204
    10  H   -0.025512
 Sum of Mulliken charges =   0.00000

 Dipole moment (field-independent basis, Debye):
    X=             -0.0000    Y=             -0.0000    Z=             -0.0000  Tot=              0.0000
 Quadrupole moment (field-independent basis, Debye-Ang):
   XX=            -12.3860   YY=            -20.1976   ZZ=            -13.1113
   XY=             -2.4371   XZ=             -0.0000   YZ=             -0.0000

 Normal termination of Gaussian 09 at Thu Feb  9 15:55:04 2017.
