 Gaussian 09, Revision E.01,
 Gaussian 09:  ES64L-G09RevE.01 30-Nov-2015

 ----------------------------------------------------------------------
 #rhf/gen scf(symm,tight,novaracc,noincfock,fulldiag) stable(crhf) geom
 =nocrowd test
 ----------------------------------------------------------------------

 hf stability analysis of h10 triangular lattice, y= 0.9030066846805564
 5
 ----------------------------------------------------------------------
 Symbolic Z-matrix:
 Charge =  0 Multiplicity = 1

                         Standard orientation:
 ---------------------------------------------------------------------
 Center     Atomic      Atomic             Coordinates (Angstroms)
 Number     Number       Type             X           Y           Z
 ---------------------------------------------------------------------
      1          1           0        2.087237    1.288252   -0.000000
      2          1           0        2.087237    0.181813   -0.000000
      3          1           0        1.043619    0.920736   -0.000000
      4          1           0        1.043619   -0.185704   -0.000000
      5          1           0       -0.000000    0.553220   -0.000000
      6          1           0       -0.000000   -0.553220   -0.000000
      7          1           0       -1.043619    0.185704    0.000000
      8          1           0       -1.043619   -0.920736    0.000000
      9          1           0       -2.087237   -0.181813    0.000000
     10          1           0       -2.087237   -1.288252    0.000000
 ---------------------------------------------------------------------

 SCF Done:  E(RHF) =  -4.86026496047     A.U. after   10 cycles
 E2 =    -0.1129711224D+00 EUMP2 =    -0.49732360828329D+01

 The electronic state is 1-AG.
 Alpha  occ. eigenvalues --   -0.85655  -0.73957  -0.54732  -0.38177  -0.29655
 Alpha virt. eigenvalues --   -0.02206   0.22136   0.28459   0.53542   0.75461

 Mulliken charges:
               1
     1  H   -0.090395
     2  H    0.129044
     3  H    0.078771
     4  H   -0.106669
     5  H   -0.010750
     6  H   -0.010750
     7  H   -0.106669
     8  H    0.078771
     9  H    0.129044
    10  H   -0.090395
 Sum of Mulliken charges =   0.00000

 Dipole moment (field-independent basis, Debye):
    X=             -0.0000    Y=             -0.0000    Z=              0.0000  Tot=              0.0000
 Quadrupole moment (field-independent basis, Debye-Ang):
   XX=            -14.9844   YY=            -14.8443   ZZ=            -12.8837
   XY=             -1.8270   XZ=              0.0000   YZ=              0.0000

 Normal termination of Gaussian 09 at Thu Feb  9 15:31:24 2017.
