 Gaussian 09, Revision E.01,
 Gaussian 09:  ES64L-G09RevE.01 30-Nov-2015

 ----------------------------------------------------------------------
 #rhf/gen scf(symm,tight,novaracc,noincfock,fulldiag) stable(crhf) geom
 =nocrowd test
 ----------------------------------------------------------------------

 ----------------------------------------------------------------------
 hf stability analysis of h10 triangular lattice, y= 1.3232044396011293
 ----------------------------------------------------------------------
 Symbolic Z-matrix:
 Charge =  0 Multiplicity = 1

                         Standard orientation:
 ---------------------------------------------------------------------
 Center     Atomic      Atomic             Coordinates (Angstroms)
 Number     Number       Type             X           Y           Z
 ---------------------------------------------------------------------
      1          1           0        1.657519    2.936652   -0.000000
      2          1           0        1.657519    1.543364   -0.000000
      3          1           0        0.828759    1.816648   -0.000000
      4          1           0        0.828759    0.423360   -0.000000
      5          1           0        0.000000    0.696644   -0.000000
      6          1           0       -0.000000   -0.696644   -0.000000
      7          1           0       -0.828759   -0.423360   -0.000000
      8          1           0       -0.828759   -1.816648   -0.000000
      9          1           0       -1.657519   -1.543364   -0.000000
     10          1           0       -1.657519   -2.936652   -0.000000
 ---------------------------------------------------------------------

 SCF Done:  E(RHF) =  -4.75481602498     A.U. after   11 cycles
 E2 =    -0.2237394562D+00 EUMP2 =    -0.49785554811585D+01

 The electronic state is 1-AG.
 Alpha  occ. eigenvalues --   -0.82858  -0.73659  -0.59737  -0.42144  -0.11275
 Alpha virt. eigenvalues --    0.01614   0.08850   0.21031   0.39427   0.55962

 Mulliken charges:
               1
     1  H   -0.240744
     2  H    0.049443
     3  H    0.115015
     4  H    0.034577
     5  H    0.041708
     6  H    0.041708
     7  H    0.034577
     8  H    0.115015
     9  H    0.049443
    10  H   -0.240744
 Sum of Mulliken charges =  -0.00000

 Dipole moment (field-independent basis, Debye):
    X=             -0.0000    Y=             -0.0000    Z=              0.0000  Tot=              0.0000
 Quadrupole moment (field-independent basis, Debye-Ang):
   XX=            -17.0800   YY=            -32.0159   ZZ=            -12.7967
   XY=            -11.5959   XZ=             -0.0000   YZ=             -0.0000

 Normal termination of Gaussian 09 at Thu Feb  9 15:47:37 2017.
