 Gaussian 09, Revision E.01,
 Gaussian 09:  ES64L-G09RevE.01 30-Nov-2015

 ----------------------------------------------------------------------
 #rhf/gen scf(symm,tight,novaracc,noincfock,fulldiag) stable(crhf) geom
 =nocrowd test
 ----------------------------------------------------------------------

 ----------------------------------------------------------------------
 hf stability analysis of h10 triangular lattice, y= 1.1690935096038124
 ----------------------------------------------------------------------
 Symbolic Z-matrix:
 Charge =  0 Multiplicity = 1

                         Standard orientation:
 ---------------------------------------------------------------------
 Center     Atomic      Atomic             Coordinates (Angstroms)
 Number     Number       Type             X           Y           Z
 ---------------------------------------------------------------------
      1          1           0        1.819689    2.404130    0.000000
      2          1           0        1.819689    1.135011    0.000000
      3          1           0        0.909845    1.519344    0.000000
      4          1           0        0.909845    0.250226    0.000000
      5          1           0       -0.000000    0.634559    0.000000
      6          1           0       -0.000000   -0.634559   -0.000000
      7          1           0       -0.909845   -0.250226    0.000000
      8          1           0       -0.909845   -1.519344    0.000000
      9          1           0       -1.819689   -1.135011    0.000000
     10          1           0       -1.819689   -2.404130    0.000000
 ---------------------------------------------------------------------

 SCF Done:  E(RHF) =  -4.80771295726     A.U. after   10 cycles
 E2 =    -0.1240183618D+00 EUMP2 =    -0.49317313190315D+01

 The electronic state is 1-AG.
 Alpha  occ. eigenvalues --   -0.80139  -0.72892  -0.55302  -0.33374  -0.23114
 Alpha virt. eigenvalues --    0.02932   0.14241   0.21952   0.40432   0.61170

 Mulliken charges:
               1
     1  H   -0.004238
     2  H    0.099480
     3  H    0.111337
     4  H   -0.107361
     5  H   -0.099217
     6  H   -0.099217
     7  H   -0.107361
     8  H    0.111337
     9  H    0.099480
    10  H   -0.004238
 Sum of Mulliken charges =   0.00000

 Dipole moment (field-independent basis, Debye):
    X=              0.0000    Y=              0.0000    Z=              0.0000  Tot=              0.0000
 Quadrupole moment (field-independent basis, Debye-Ang):
   XX=            -11.8017   YY=            -11.7927   ZZ=            -13.1470
   XY=              2.9576   XZ=             -0.0000   YZ=             -0.0000

 Normal termination of Gaussian 09 at Thu Feb  9 15:43:06 2017.
