 Gaussian 09, Revision E.01,
 Gaussian 09:  ES64L-G09RevE.01 30-Nov-2015

 ----------------------------------------------------------------------
 #rhf/gen scf(symm,tight,novaracc,noincfock,fulldiag) stable(crhf) geom
 =nocrowd test
 ----------------------------------------------------------------------

 ----------------------------------------------------------------------
 hf stability analysis of h10 triangular lattice, y= 2.0204480116912382
 ----------------------------------------------------------------------
 Symbolic Z-matrix:
 Charge =  0 Multiplicity = 1

                         Standard orientation:
 ---------------------------------------------------------------------
 Center     Atomic      Atomic             Coordinates (Angstroms)
 Number     Number       Type             X           Y           Z
 ---------------------------------------------------------------------
      1          1           0        1.131752    4.941323    0.000000
      2          1           0        1.131752    2.900768    0.000000
      3          1           0        0.565876    2.980800    0.000000
      4          1           0        0.565876    0.940245    0.000000
      5          1           0        0.000000    1.020278    0.000000
      6          1           0       -0.000000   -1.020278    0.000000
      7          1           0       -0.565876   -0.940245    0.000000
      8          1           0       -0.565876   -2.980800    0.000000
      9          1           0       -1.131752   -2.900768    0.000000
     10          1           0       -1.131752   -4.941323    0.000000
 ---------------------------------------------------------------------

 SCF Done:  E(RHF) =  -4.78450485807     A.U. after    6 cycles
 E2 =    -0.8221565832D+00 EUMP2 =    -0.56066614412227D+01

 The electronic state is 1-AG.
 Alpha  occ. eigenvalues --   -0.73351  -0.70858  -0.67074  -0.63144  -0.19963
 Alpha virt. eigenvalues --   -0.14694   0.42808   0.49599   0.59441   0.68784

 Mulliken charges:
               1
     1  H   -0.003648
     2  H    0.002178
     3  H    0.000895
     4  H   -0.000204
     5  H    0.000780
     6  H    0.000780
     7  H   -0.000204
     8  H    0.000895
     9  H    0.002178
    10  H   -0.003648
 Sum of Mulliken charges =  -0.00000

 Dipole moment (field-independent basis, Debye):
    X=              0.0000    Y=              0.0000    Z=             -0.0000  Tot=              0.0000
 Quadrupole moment (field-independent basis, Debye-Ang):
   XX=            -12.3832   YY=            -16.8814   ZZ=            -13.2969
   XY=             -0.9988   XZ=             -0.0000   YZ=              0.0000

 Normal termination of Gaussian 09 at Thu Feb  9 15:57:24 2017.
