 Gaussian 09, Revision E.01,
 Gaussian 09:  ES64L-G09RevE.01 30-Nov-2015

 ----------------------------------------------------------------------
 #rhf/gen scf(symm,tight,novaracc,noincfock,fulldiag) stable(crhf) geom
 =nocrowd test
 ----------------------------------------------------------------------

 ----------------------------------------------------------------------
 hf stability analysis of h10 triangular lattice, y= 1.3511346402909867
 ----------------------------------------------------------------------
 Symbolic Z-matrix:
 Charge =  0 Multiplicity = 1

                         Standard orientation:
 ---------------------------------------------------------------------
 Center     Atomic      Atomic             Coordinates (Angstroms)
 Number     Number       Type             X           Y           Z
 ---------------------------------------------------------------------
      1          1           0        1.629674    3.027338    0.000000
      2          1           0        1.629674    1.610244    0.000000
      3          1           0        0.814837    1.867943    0.000000
      4          1           0        0.814837    0.450848    0.000000
      5          1           0        0.000000    0.708547    0.000000
      6          1           0       -0.000000   -0.708547   -0.000000
      7          1           0       -0.814837   -0.450848    0.000000
      8          1           0       -0.814837   -1.867943    0.000000
      9          1           0       -1.629674   -1.610244    0.000000
     10          1           0       -1.629674   -3.027338    0.000000
 ---------------------------------------------------------------------

 SCF Done:  E(RHF) =  -4.77997641529     A.U. after   11 cycles
 E2 =    -0.2523708046D+00 EUMP2 =    -0.50323472199243D+01

 The electronic state is 1-AG.
 Alpha  occ. eigenvalues --   -0.82058  -0.73269  -0.59974  -0.43188  -0.11685
 Alpha virt. eigenvalues --    0.00651   0.09906   0.22420   0.40474   0.56931

 Mulliken charges:
               1
     1  H   -0.221704
     2  H    0.048490
     3  H    0.100786
     4  H    0.032759
     5  H    0.039669
     6  H    0.039669
     7  H    0.032759
     8  H    0.100786
     9  H    0.048490
    10  H   -0.221704
 Sum of Mulliken charges =   0.00000

 Dipole moment (field-independent basis, Debye):
    X=             -0.0000    Y=              0.0000    Z=             -0.0000  Tot=              0.0000
 Quadrupole moment (field-independent basis, Debye-Ang):
   XX=            -16.4235   YY=            -31.8966   ZZ=            -12.8091
   XY=            -10.9842   XZ=             -0.0000   YZ=             -0.0000

 Normal termination of Gaussian 09 at Thu Feb  9 15:48:18 2017.
