 Gaussian 09, Revision E.01,
 Gaussian 09:  ES64L-G09RevE.01 30-Nov-2015

 ----------------------------------------------------------------------
 #rhf/gen scf(symm,tight,novaracc,noincfock,fulldiag) stable(crhf) geom
 =nocrowd test
 ----------------------------------------------------------------------

 ----------------------------------------------------------------------
 hf stability analysis of h10 triangular lattice, y= 1.4236587176208633
 ----------------------------------------------------------------------
 Symbolic Z-matrix:
 Charge =  0 Multiplicity = 1

                         Standard orientation:
 ---------------------------------------------------------------------
 Center     Atomic      Atomic             Coordinates (Angstroms)
 Number     Number       Type             X           Y           Z
 ---------------------------------------------------------------------
      1          1           0        1.560098    3.256326   -0.000000
      2          1           0        1.560098    1.776034   -0.000000
      3          1           0        0.780049    1.998236   -0.000000
      4          1           0        0.780049    0.517944   -0.000000
      5          1           0        0.000000    0.740146   -0.000000
      6          1           0       -0.000000   -0.740146   -0.000000
      7          1           0       -0.780049   -0.517944   -0.000000
      8          1           0       -0.780049   -1.998236   -0.000000
      9          1           0       -1.560098   -1.776034   -0.000000
     10          1           0       -1.560098   -3.256326   -0.000000
 ---------------------------------------------------------------------

 SCF Done:  E(RHF) =  -4.83782514032     A.U. after    9 cycles
 E2 =    -0.3298957891D+00 EUMP2 =    -0.51677209293748D+01

 The electronic state is 1-AG.
 Alpha  occ. eigenvalues --   -0.79930  -0.72272  -0.60510  -0.45702  -0.13151
 Alpha virt. eigenvalues --   -0.02732   0.14198   0.26116   0.43251   0.59410

 Mulliken charges:
               1
     1  H   -0.167584
     2  H    0.041072
     3  H    0.071716
     4  H    0.023560
     5  H    0.031235
     6  H    0.031235
     7  H    0.023560
     8  H    0.071716
     9  H    0.041072
    10  H   -0.167584
 Sum of Mulliken charges =   0.00000

 Dipole moment (field-independent basis, Debye):
    X=             -0.0000    Y=              0.0000    Z=              0.0000  Tot=              0.0000
 Quadrupole moment (field-independent basis, Debye-Ang):
   XX=            -14.9403   YY=            -30.2557   ZZ=            -12.8523
   XY=             -8.9346   XZ=             -0.0000   YZ=             -0.0000

 Normal termination of Gaussian 09 at Thu Feb  9 15:49:53 2017.
