 Gaussian 09, Revision E.01,
 Gaussian 09:  ES64L-G09RevE.01 30-Nov-2015

 ----------------------------------------------------------------------
 #rhf/gen scf(symm,tight,novaracc,noincfock,fulldiag) stable(crhf) geom
 =nocrowd test
 ----------------------------------------------------------------------

 ----------------------------------------------------------------------
 hf stability analysis of h10 triangular lattice, y= 1.5302699011377114
 ----------------------------------------------------------------------
 Symbolic Z-matrix:
 Charge =  0 Multiplicity = 1

                         Standard orientation:
 ---------------------------------------------------------------------
 Center     Atomic      Atomic             Coordinates (Angstroms)
 Number     Number       Type             X           Y           Z
 ---------------------------------------------------------------------
      1          1           0        1.465269    3.578973   -0.000000
      2          1           0        1.465269    2.002880   -0.000000
      3          1           0        0.732635    2.183510   -0.000000
      4          1           0        0.732635    0.607416   -0.000000
      5          1           0        0.000000    0.788047   -0.000000
      6          1           0       -0.000000   -0.788047   -0.000000
      7          1           0       -0.732635   -0.607416   -0.000000
      8          1           0       -0.732635   -2.183510   -0.000000
      9          1           0       -1.465269   -2.002880   -0.000000
     10          1           0       -1.465269   -3.578973   -0.000000
 ---------------------------------------------------------------------

 SCF Done:  E(RHF) =  -4.89598851203     A.U. after    8 cycles
 E2 =    -0.4477168913D+00 EUMP2 =    -0.53437054033206D+01

 The electronic state is 1-AG.
 Alpha  occ. eigenvalues --   -0.77303  -0.71136  -0.61360  -0.49211  -0.15342
 Alpha virt. eigenvalues --   -0.06960   0.20687   0.31326   0.47088   0.62443

 Mulliken charges:
               1
     1  H   -0.100577
     2  H    0.027892
     3  H    0.043088
     4  H    0.011367
     5  H    0.018230
     6  H    0.018230
     7  H    0.011367
     8  H    0.043088
     9  H    0.027892
    10  H   -0.100577
 Sum of Mulliken charges =  -0.00000

 Dipole moment (field-independent basis, Debye):
    X=              0.0000    Y=              0.0000    Z=              0.0000  Tot=              0.0000
 Quadrupole moment (field-independent basis, Debye-Ang):
   XX=            -13.4930   YY=            -26.6420   ZZ=            -12.9275
   XY=             -6.0824   XZ=             -0.0000   YZ=             -0.0000

 Normal termination of Gaussian 09 at Thu Feb  9 15:51:51 2017.
