 Gaussian 09, Revision E.01,
 Gaussian 09:  ES64L-G09RevE.01 30-Nov-2015

 ----------------------------------------------------------------------
 #rhf/gen scf(symm,tight,novaracc,noincfock,fulldiag) stable(crhf) geom
 =nocrowd test
 ----------------------------------------------------------------------

 ----------------------------------------------------------------------
 hf stability analysis of h10 triangular lattice, y= 2.0016329418668652
 ----------------------------------------------------------------------
 Symbolic Z-matrix:
 Charge =  0 Multiplicity = 1

                         Standard orientation:
 ---------------------------------------------------------------------
 Center     Atomic      Atomic             Coordinates (Angstroms)
 Number     Number       Type             X           Y           Z
 ---------------------------------------------------------------------
      1          1           0        1.141963    4.891212   -0.000000
      2          1           0        1.141963    2.868903    0.000000
      3          1           0        0.570982    2.951183   -0.000000
      4          1           0        0.570982    0.928875    0.000000
      5          1           0       -0.000000    1.011154   -0.000000
      6          1           0       -0.000000   -1.011154   -0.000000
      7          1           0       -0.570982   -0.928875   -0.000000
      8          1           0       -0.570982   -2.951183   -0.000000
      9          1           0       -1.141963   -2.868903   -0.000000
     10          1           0       -1.141963   -4.891212   -0.000000
 ---------------------------------------------------------------------

 SCF Done:  E(RHF) =  -4.79752723639     A.U. after    6 cycles
 E2 =    -0.8124077841D+00 EUMP2 =    -0.56099350205176D+01

 The electronic state is 1-AG.
 Alpha  occ. eigenvalues --   -0.73369  -0.70787  -0.66846  -0.62723  -0.19901
 Alpha virt. eigenvalues --   -0.14577   0.42110   0.49020   0.59064   0.68626

 Mulliken charges:
               1
     1  H   -0.004372
     2  H    0.002450
     3  H    0.001244
     4  H   -0.000195
     5  H    0.000874
     6  H    0.000874
     7  H   -0.000195
     8  H    0.001244
     9  H    0.002450
    10  H   -0.004372
 Sum of Mulliken charges =  -0.00000

 Dipole moment (field-independent basis, Debye):
    X=             -0.0000    Y=              0.0000    Z=              0.0000  Tot=              0.0000
 Quadrupole moment (field-independent basis, Debye-Ang):
   XX=            -12.3705   YY=            -17.0441   ZZ=            -13.2847
   XY=             -1.0619   XZ=              0.0000   YZ=             -0.0000

 Normal termination of Gaussian 09 at Thu Feb  9 15:57:15 2017.
