 Gaussian 09, Revision E.01,
 Gaussian 09:  ES64L-G09RevE.01 30-Nov-2015

 ----------------------------------------------------------------------
 #rhf/gen scf(symm,tight,novaracc,noincfock,fulldiag) stable(crhf) geom
 =nocrowd test
 ----------------------------------------------------------------------

 ----------------------------------------------------------------------
 hf stability analysis of h10 triangular lattice, y= 1.4502497985828720
 ----------------------------------------------------------------------
 Symbolic Z-matrix:
 Charge =  0 Multiplicity = 1

                         Standard orientation:
 ---------------------------------------------------------------------
 Center     Atomic      Atomic             Coordinates (Angstroms)
 Number     Number       Type             X           Y           Z
 ---------------------------------------------------------------------
      1          1           0        1.535610    3.338211    0.000000
      2          1           0        1.535610    1.834312    0.000000
      3          1           0        0.767805    2.045080    0.000000
      4          1           0        0.767805    0.541181    0.000000
      5          1           0        0.000000    0.751949    0.000000
      6          1           0       -0.000000   -0.751949    0.000000
      7          1           0       -0.767805   -0.541181   -0.000000
      8          1           0       -0.767805   -2.045080    0.000000
      9          1           0       -1.535610   -1.834312   -0.000000
     10          1           0       -1.535610   -3.338211    0.000000
 ---------------------------------------------------------------------

 SCF Done:  E(RHF) =  -4.85549365853     A.U. after    9 cycles
 E2 =    -0.3591818317D+00 EUMP2 =    -0.52146754902355D+01

 The electronic state is 1-AG.
 Alpha  occ. eigenvalues --   -0.79201  -0.71944  -0.60708  -0.46588  -0.13723
 Alpha virt. eigenvalues --   -0.03909   0.15862   0.27454   0.44247   0.60247

 Mulliken charges:
               1
     1  H   -0.148890
     2  H    0.037725
     3  H    0.063327
     4  H    0.020075
     5  H    0.027764
     6  H    0.027764
     7  H    0.020075
     8  H    0.063327
     9  H    0.037725
    10  H   -0.148890
 Sum of Mulliken charges =  -0.00000

 Dipole moment (field-independent basis, Debye):
    X=             -0.0000    Y=             -0.0000    Z=             -0.0000  Tot=              0.0000
 Quadrupole moment (field-independent basis, Debye-Ang):
   XX=            -14.4998   YY=            -29.4086   ZZ=            -12.8702
   XY=             -8.1676   XZ=             -0.0000   YZ=             -0.0000

 Normal termination of Gaussian 09 at Thu Feb  9 15:50:24 2017.
