 Gaussian 09, Revision E.01,
 Gaussian 09:  ES64L-G09RevE.01 30-Nov-2015

 ----------------------------------------------------------------------
 #rhf/gen scf(symm,tight,novaracc,noincfock,fulldiag) stable(crhf) geom
 =nocrowd test
 ----------------------------------------------------------------------

 ----------------------------------------------------------------------
 hf stability analysis of h10 triangular lattice, y= 1.4941379400594756
 ----------------------------------------------------------------------
 Symbolic Z-matrix:
 Charge =  0 Multiplicity = 1

                         Standard orientation:
 ---------------------------------------------------------------------
 Center     Atomic      Atomic             Coordinates (Angstroms)
 Number     Number       Type             X           Y           Z
 ---------------------------------------------------------------------
      1          1           0        1.496409    3.471241   -0.000000
      2          1           0        1.496409    1.927946   -0.000000
      3          1           0        0.748205    2.121444   -0.000000
      4          1           0        0.748205    0.578149   -0.000000
      5          1           0       -0.000000    0.771648    0.000000
      6          1           0       -0.000000   -0.771648    0.000000
      7          1           0       -0.748205   -0.578149   -0.000000
      8          1           0       -0.748205   -2.121444   -0.000000
      9          1           0       -1.496409   -1.927946   -0.000000
     10          1           0       -1.496409   -3.471241   -0.000000
 ---------------------------------------------------------------------

 SCF Done:  E(RHF) =  -4.88008056136     A.U. after    9 cycles
 E2 =    -0.4079034607D+00 EUMP2 =    -0.52879840221018D+01

 The electronic state is 1-AG.
 Alpha  occ. eigenvalues --   -0.78102  -0.71466  -0.61053  -0.48032  -0.14637
 Alpha virt. eigenvalues --   -0.05675   0.18554   0.29611   0.45838   0.61513

 Mulliken charges:
               1
     1  H   -0.120809
     2  H    0.032201
     3  H    0.051412
     4  H    0.014917
     5  H    0.022278
     6  H    0.022278
     7  H    0.014917
     8  H    0.051412
     9  H    0.032201
    10  H   -0.120809
 Sum of Mulliken charges =   0.00000

 Dipole moment (field-independent basis, Debye):
    X=             -0.0000    Y=              0.0000    Z=              0.0000  Tot=              0.0000
 Quadrupole moment (field-independent basis, Debye-Ang):
   XX=            -13.8919   YY=            -27.9033   ZZ=            -12.9011
   XY=             -6.9733   XZ=             -0.0000   YZ=             -0.0000

 Normal termination of Gaussian 09 at Thu Feb  9 15:51:14 2017.
