 Gaussian 09, Revision E.01,
 Gaussian 09:  ES64L-G09RevE.01 30-Nov-2015

 ----------------------------------------------------------------------
 #rhf/gen scf(symm,tight,novaracc,noincfock,fulldiag) stable(crhf) geom
 =nocrowd test
 ----------------------------------------------------------------------

 ----------------------------------------------------------------------
 hf stability analysis of h10 triangular lattice, y= 1.5389562589227139
 ----------------------------------------------------------------------
 Symbolic Z-matrix:
 Charge =  0 Multiplicity = 1

                         Standard orientation:
 ---------------------------------------------------------------------
 Center     Atomic      Atomic             Coordinates (Angstroms)
 Number     Number       Type             X           Y           Z
 ---------------------------------------------------------------------
      1          1           0        1.457934    3.604652   -0.000000
      2          1           0        1.457934    2.020629   -0.000000
      3          1           0        0.728967    2.198332   -0.000000
      4          1           0        0.728967    0.614309   -0.000000
      5          1           0        0.000000    0.792012    0.000000
      6          1           0       -0.000000   -0.792012    0.000000
      7          1           0       -0.728967   -0.614309   -0.000000
      8          1           0       -0.728967   -2.198332   -0.000000
      9          1           0       -1.457934   -2.020629   -0.000000
     10          1           0       -1.457934   -3.604652   -0.000000
 ---------------------------------------------------------------------

 SCF Done:  E(RHF) =  -4.89923155768     A.U. after    8 cycles
 E2 =    -0.4571698672D+00 EUMP2 =    -0.53564014248510D+01

 The electronic state is 1-AG.
 Alpha  occ. eigenvalues --   -0.77126  -0.71065  -0.61438  -0.49494  -0.15503
 Alpha virt. eigenvalues --   -0.07246   0.21187   0.31730   0.47380   0.62651

 Mulliken charges:
               1
     1  H   -0.096110
     2  H    0.026905
     3  H    0.041261
     4  H    0.010610
     5  H    0.017334
     6  H    0.017334
     7  H    0.010610
     8  H    0.041261
     9  H    0.026905
    10  H   -0.096110
 Sum of Mulliken charges =  -0.00000

 Dipole moment (field-independent basis, Debye):
    X=             -0.0000    Y=              0.0000    Z=              0.0000  Tot=              0.0000
 Quadrupole moment (field-independent basis, Debye-Ang):
   XX=            -13.4095   YY=            -26.3424   ZZ=            -12.9339
   XY=             -5.8821   XZ=             -0.0000   YZ=             -0.0000

 Normal termination of Gaussian 09 at Thu Feb  9 15:52:00 2017.
