 Gaussian 09, Revision E.01,
 Gaussian 09:  ES64L-G09RevE.01 30-Nov-2015

 ----------------------------------------------------------------------
 #rhf/gen scf(symm,tight,novaracc,noincfock,fulldiag) stable(crhf) geom
 =nocrowd test
 ----------------------------------------------------------------------

 ----------------------------------------------------------------------
 hf stability analysis of h10 triangular lattice, y= 2.4375523412504077
 ----------------------------------------------------------------------
 Symbolic Z-matrix:
 Charge =  0 Multiplicity = 1

                         Standard orientation:
 ---------------------------------------------------------------------
 Center     Atomic      Atomic             Coordinates (Angstroms)
 Number     Number       Type             X           Y           Z
 ---------------------------------------------------------------------
      1          1           0        0.942985    6.030953    0.000000
      2          1           0        0.942985    3.581920    0.000000
      3          1           0        0.471493    3.627735    0.000000
      4          1           0        0.471493    1.178702    0.000000
      5          1           0       -0.000000    1.224516   -0.000000
      6          1           0       -0.000000   -1.224516   -0.000000
      7          1           0       -0.471493   -1.178702    0.000000
      8          1           0       -0.471493   -3.627735    0.000000
      9          1           0       -0.942985   -3.581920    0.000000
     10          1           0       -0.942985   -6.030953    0.000000
 ---------------------------------------------------------------------

 SCF Done:  E(RHF) =  -4.39367965620     A.U. after    5 cycles
 E2 =    -0.1014440608D+01 EUMP2 =    -0.54081202645539D+01

 The electronic state is 1-AG.
 Alpha  occ. eigenvalues --   -0.73892  -0.72875  -0.71493  -0.70256  -0.20526
 Alpha virt. eigenvalues --   -0.16190   0.56579   0.61009   0.67069   0.72500

 Mulliken charges:
               1
     1  H    0.001267
     2  H   -0.000124
     3  H   -0.001151
     4  H   -0.000082
     5  H    0.000090
     6  H    0.000090
     7  H   -0.000082
     8  H   -0.001151
     9  H   -0.000124
    10  H    0.001267
 Sum of Mulliken charges =   0.00000

 Dipole moment (field-independent basis, Debye):
    X=             -0.0000    Y=              0.0000    Z=              0.0000  Tot=              0.0000
 Quadrupole moment (field-independent basis, Debye-Ang):
   XX=            -12.7295   YY=            -14.8125   ZZ=            -13.4924
   XY=             -0.2919   XZ=              0.0000   YZ=             -0.0000

 Normal termination of Gaussian 09 at Thu Feb  9 15:59:44 2017.
