 Gaussian 09, Revision E.01,
 Gaussian 09:  ES64L-G09RevE.01 30-Nov-2015

 ----------------------------------------------------------------------
 #rhf/gen scf(symm,tight,novaracc,noincfock,fulldiag) stable(crhf) geom
 =nocrowd test
 ----------------------------------------------------------------------

 hf stability analysis of h10 triangular lattice, y= 0.8729323240483911
 6
 ----------------------------------------------------------------------
 Symbolic Z-matrix:
 Charge =  0 Multiplicity = 1

                         Standard orientation:
 ---------------------------------------------------------------------
 Center     Atomic      Atomic             Coordinates (Angstroms)
 Number     Number       Type             X           Y           Z
 ---------------------------------------------------------------------
      1          1           0        2.108668    1.140317   -0.000000
      2          1           0        2.108668    0.045123   -0.000000
      3          1           0        1.054334    0.843957   -0.000000
      4          1           0        1.054334   -0.251237   -0.000000
      5          1           0       -0.000000    0.547597    0.000000
      6          1           0       -0.000000   -0.547597    0.000000
      7          1           0       -1.054334    0.251237   -0.000000
      8          1           0       -1.054334   -0.843957   -0.000000
      9          1           0       -2.108668   -0.045123   -0.000000
     10          1           0       -2.108668   -1.140317   -0.000000
 ---------------------------------------------------------------------

 SCF Done:  E(RHF) =  -4.85453589448     A.U. after   11 cycles
 E2 =    -0.1137463578D+00 EUMP2 =    -0.49682822523238D+01

 The electronic state is 1-AG.
 Alpha  occ. eigenvalues --   -0.85943  -0.73854  -0.54607  -0.39157  -0.29281
 Alpha virt. eigenvalues --   -0.02645   0.21660   0.30289   0.52928   0.80759

 Mulliken charges:
               1
     1  H   -0.078406
     2  H    0.114496
     3  H    0.062453
     4  H   -0.096858
     5  H   -0.001687
     6  H   -0.001687
     7  H   -0.096858
     8  H    0.062453
     9  H    0.114496
    10  H   -0.078406
 Sum of Mulliken charges =   0.00000

 Dipole moment (field-independent basis, Debye):
    X=              0.0000    Y=             -0.0000    Z=             -0.0000  Tot=              0.0000
 Quadrupole moment (field-independent basis, Debye-Ang):
   XX=            -15.3795   YY=            -14.4310   ZZ=            -12.8544
   XY=             -1.7329   XZ=             -0.0000   YZ=             -0.0000

 Normal termination of Gaussian 09 at Thu Feb  9 15:29:47 2017.
