 Gaussian 09, Revision E.01,
 Gaussian 09:  ES64L-G09RevE.01 30-Nov-2015

 ----------------------------------------------------------------------
 #rhf/gen scf(symm,tight,novaracc,noincfock,fulldiag) stable(crhf) geom
 =nocrowd test
 ----------------------------------------------------------------------

 ----------------------------------------------------------------------
 hf stability analysis of h10 triangular lattice, y= 1.2857983717814927
 ----------------------------------------------------------------------
 Symbolic Z-matrix:
 Charge =  0 Multiplicity = 1

                         Standard orientation:
 ---------------------------------------------------------------------
 Center     Atomic      Atomic             Coordinates (Angstroms)
 Number     Number       Type             X           Y           Z
 ---------------------------------------------------------------------
      1          1           0        1.695663    2.812713   -0.000000
      2          1           0        1.695663    1.450767   -0.000000
      3          1           0        0.847831    1.746843   -0.000000
      4          1           0        0.847831    0.384897   -0.000000
      5          1           0        0.000000    0.680973    0.000000
      6          1           0       -0.000000   -0.680973    0.000000
      7          1           0       -0.847831   -0.384897   -0.000000
      8          1           0       -0.847831   -1.746843   -0.000000
      9          1           0       -1.695663   -1.450767   -0.000000
     10          1           0       -1.695663   -2.812713   -0.000000
 ---------------------------------------------------------------------

 SCF Done:  E(RHF) =  -4.72052097576     A.U. after   12 cycles
 E2 =    -0.1878278815D+00 EUMP2 =    -0.49083488572544D+01

 The electronic state is 1-AG.
 Alpha  occ. eigenvalues --   -0.83774  -0.74110  -0.59332  -0.40625  -0.11080
 Alpha virt. eigenvalues --    0.01518   0.09211   0.19303   0.38134   0.54776

 Mulliken charges:
               1
     1  H   -0.258040
     2  H    0.046992
     3  H    0.136102
     4  H    0.031742
     5  H    0.043204
     6  H    0.043204
     7  H    0.031742
     8  H    0.136102
     9  H    0.046992
    10  H   -0.258040
 Sum of Mulliken charges =  -0.00000

 Dipole moment (field-independent basis, Debye):
    X=              0.0000    Y=              0.0000    Z=              0.0000  Tot=              0.0000
 Quadrupole moment (field-independent basis, Debye-Ang):
   XX=            -17.9506   YY=            -31.3315   ZZ=            -12.7877
   XY=            -11.9537   XZ=              0.0000   YZ=              0.0000

 Normal termination of Gaussian 09 at Thu Feb  9 15:46:38 2017.
