 Gaussian 09, Revision E.01,
 Gaussian 09:  ES64L-G09RevE.01 30-Nov-2015

 ----------------------------------------------------------------------
 #rhf/gen scf(symm,tight,novaracc,noincfock,fulldiag) stable(crhf) geom
 =nocrowd test
 ----------------------------------------------------------------------

 ----------------------------------------------------------------------
 hf stability analysis of h10 triangular lattice, y= 1.0269137823584431
 ----------------------------------------------------------------------
 Symbolic Z-matrix:
 Charge =  0 Multiplicity = 1

                         Standard orientation:
 ---------------------------------------------------------------------
 Center     Atomic      Atomic             Coordinates (Angstroms)
 Number     Number       Type             X           Y           Z
 ---------------------------------------------------------------------
      1          1           0        1.972592    1.846898    0.000000
      2          1           0        1.972592    0.676153    0.000000
      3          1           0        0.986296    1.216135    0.000000
      4          1           0        0.986296    0.045391    0.000000
      5          1           0        0.000000    0.585372    0.000000
      6          1           0       -0.000000   -0.585372    0.000000
      7          1           0       -0.986296   -0.045391    0.000000
      8          1           0       -0.986296   -1.216135    0.000000
      9          1           0       -1.972592   -0.676153    0.000000
     10          1           0       -1.972592   -1.846898    0.000000
 ---------------------------------------------------------------------

 SCF Done:  E(RHF) =  -4.86509975653     A.U. after   10 cycles
 E2 =    -0.1140181636D+00 EUMP2 =    -0.49791179201482D+01

 The electronic state is 1-AG.
 Alpha  occ. eigenvalues --   -0.83651  -0.73945  -0.55201  -0.32808  -0.30894
 Alpha virt. eigenvalues --    0.00574   0.20239   0.24162   0.54035   0.56784

 Mulliken charges:
               1
     1  H   -0.082784
     2  H    0.143669
     3  H    0.111013
     4  H   -0.121589
     5  H   -0.050310
     6  H   -0.050310
     7  H   -0.121589
     8  H    0.111013
     9  H    0.143669
    10  H   -0.082784
 Sum of Mulliken charges =  -0.00000

 Dipole moment (field-independent basis, Debye):
    X=             -0.0000    Y=             -0.0000    Z=              0.0000  Tot=              0.0000
 Quadrupole moment (field-independent basis, Debye-Ang):
   XX=            -13.2165   YY=            -15.3524   ZZ=            -13.0171
   XY=             -0.5431   XZ=              0.0000   YZ=              0.0000

 Normal termination of Gaussian 09 at Thu Feb  9 15:37:28 2017.
