 Gaussian 09, Revision E.01,
 Gaussian 09:  ES64L-G09RevE.01 30-Nov-2015

 ----------------------------------------------------------------------
 #rhf/gen scf(symm,tight,novaracc,noincfock,fulldiag) stable(crhf) geom
 =nocrowd test
 ----------------------------------------------------------------------

 ----------------------------------------------------------------------
 hf stability analysis of h10 triangular lattice, y= 1.0587704668665670
 ----------------------------------------------------------------------
 Symbolic Z-matrix:
 Charge =  0 Multiplicity = 1

                         Standard orientation:
 ---------------------------------------------------------------------
 Center     Atomic      Atomic             Coordinates (Angstroms)
 Number     Number       Type             X           Y           Z
 ---------------------------------------------------------------------
      1          1           0        1.939133    1.978643    0.000000
      2          1           0        1.939133    0.787698    0.000000
      3          1           0        0.969567    1.287058    0.000000
      4          1           0        0.969567    0.096113    0.000000
      5          1           0        0.000000    0.595472    0.000000
      6          1           0       -0.000000   -0.595472    0.000000
      7          1           0       -0.969567   -0.096113    0.000000
      8          1           0       -0.969567   -1.287058    0.000000
      9          1           0       -1.939133   -0.787698    0.000000
     10          1           0       -1.939133   -1.978643    0.000000
 ---------------------------------------------------------------------

 SCF Done:  E(RHF) =  -4.85863354659     A.U. after   10 cycles
 E2 =    -0.1155294595D+00 EUMP2 =    -0.49741630060699D+01

 The electronic state is 1-AG.
 Alpha  occ. eigenvalues --   -0.82951  -0.73801  -0.55274  -0.32308  -0.29961
 Alpha virt. eigenvalues --    0.01393   0.18324   0.24419   0.49563   0.57734

 Mulliken charges:
               1
     1  H   -0.069697
     2  H    0.138338
     3  H    0.112844
     4  H   -0.120963
     5  H   -0.060522
     6  H   -0.060522
     7  H   -0.120963
     8  H    0.112844
     9  H    0.138338
    10  H   -0.069697
 Sum of Mulliken charges =  -0.00000

 Dipole moment (field-independent basis, Debye):
    X=              0.0000    Y=             -0.0000    Z=              0.0000  Tot=              0.0000
 Quadrupole moment (field-independent basis, Debye-Ang):
   XX=            -12.8173   YY=            -14.9855   ZZ=            -13.0500
   XY=              0.1197   XZ=              0.0000   YZ=             -0.0000

 Normal termination of Gaussian 09 at Thu Feb  9 15:38:53 2017.
