 Gaussian 09, Revision E.01,
 Gaussian 09:  ES64L-G09RevE.01 30-Nov-2015

 ----------------------------------------------------------------------
 #rhf/gen scf(symm,tight,novaracc,noincfock,fulldiag) stable(crhf) geom
 =nocrowd test
 ----------------------------------------------------------------------

 ----------------------------------------------------------------------
 hf stability analysis of h10 triangular lattice, y= 2.2253182026402079
 ----------------------------------------------------------------------
 Symbolic Z-matrix:
 Charge =  0 Multiplicity = 1

                         Standard orientation:
 ---------------------------------------------------------------------
 Center     Atomic      Atomic             Coordinates (Angstroms)
 Number     Number       Type             X           Y           Z
 ---------------------------------------------------------------------
      1          1           0        1.030803    5.480799    0.000000
      2          1           0        1.030803    3.240407    0.000000
      3          1           0        0.515401    3.300497    0.000000
      4          1           0        0.515401    1.060106    0.000000
      5          1           0       -0.000000    1.120196    0.000000
      6          1           0       -0.000000   -1.120196    0.000000
      7          1           0       -0.515401   -1.060106    0.000000
      8          1           0       -0.515401   -3.300497    0.000000
      9          1           0       -1.030803   -3.240407    0.000000
     10          1           0       -1.030803   -5.480799    0.000000
 ---------------------------------------------------------------------

 SCF Done:  E(RHF) =  -4.61367303403     A.U. after    5 cycles
 E2 =    -0.9202171936D+00 EUMP2 =    -0.55338902276359D+01

 The electronic state is 1-AG.
 Alpha  occ. eigenvalues --   -0.73434  -0.71780  -0.69404  -0.67122  -0.20384
 Alpha virt. eigenvalues --   -0.15629   0.49953   0.55513   0.63328   0.70529

 Mulliken charges:
               1
     1  H    0.000452
     2  H    0.000437
     3  H   -0.000977
     4  H   -0.000161
     5  H    0.000249
     6  H    0.000249
     7  H   -0.000161
     8  H   -0.000977
     9  H    0.000437
    10  H    0.000452
 Sum of Mulliken charges =   0.00000

 Dipole moment (field-independent basis, Debye):
    X=             -0.0000    Y=              0.0000    Z=              0.0000  Tot=              0.0000
 Quadrupole moment (field-independent basis, Debye-Ang):
   XX=            -12.5528   YY=            -15.5831   ZZ=            -13.4102
   XY=             -0.5311   XZ=              0.0000   YZ=             -0.0000

 Normal termination of Gaussian 09 at Thu Feb  9 15:58:43 2017.
