 Gaussian 09, Revision E.01,
 Gaussian 09:  ES64L-G09RevE.01 30-Nov-2015

 ----------------------------------------------------------------------
 #rhf/gen scf(symm,tight,novaracc,noincfock,fulldiag) stable(crhf) geom
 =nocrowd test
 ----------------------------------------------------------------------

 ----------------------------------------------------------------------
 hf stability analysis of h10 triangular lattice, y= 1.6588015077637484
 ----------------------------------------------------------------------
 Symbolic Z-matrix:
 Charge =  0 Multiplicity = 1

                         Standard orientation:
 ---------------------------------------------------------------------
 Center     Atomic      Atomic             Coordinates (Angstroms)
 Number     Number       Type             X           Y           Z
 ---------------------------------------------------------------------
      1          1           0        1.362541    3.951416    0.000000
      2          1           0        1.362541    2.256493    0.000000
      3          1           0        0.681270    2.399439    0.000000
      4          1           0        0.681270    0.704516    0.000000
      5          1           0       -0.000000    0.847461    0.000000
      6          1           0       -0.000000   -0.847461    0.000000
      7          1           0       -0.681270   -0.704516    0.000000
      8          1           0       -0.681270   -2.399439    0.000000
      9          1           0       -1.362541   -2.256493    0.000000
     10          1           0       -1.362541   -3.951416    0.000000
 ---------------------------------------------------------------------

 SCF Done:  E(RHF) =  -4.92177206702     A.U. after    8 cycles
 E2 =    -0.5782614915D+00 EUMP2 =    -0.55000335585299D+01

 The electronic state is 1-AG.
 Alpha  occ. eigenvalues --   -0.75224  -0.70415  -0.62652  -0.53333  -0.17382
 Alpha virt. eigenvalues --   -0.10420   0.27571   0.36945   0.51061   0.64979

 Mulliken charges:
               1
     1  H   -0.049085
     2  H    0.015639
     3  H    0.021719
     4  H    0.003570
     5  H    0.008155
     6  H    0.008155
     7  H    0.003570
     8  H    0.021719
     9  H    0.015639
    10  H   -0.049085
 Sum of Mulliken charges =   0.00000

 Dipole moment (field-independent basis, Debye):
    X=              0.0000    Y=              0.0000    Z=             -0.0000  Tot=              0.0000
 Quadrupole moment (field-independent basis, Debye-Ang):
   XX=            -12.6477   YY=            -22.6293   ZZ=            -13.0267
   XY=             -3.6707   XZ=              0.0000   YZ=             -0.0000

 Normal termination of Gaussian 09 at Thu Feb  9 15:53:46 2017.
