 Gaussian 09, Revision E.01,
 Gaussian 09:  ES64L-G09RevE.01 30-Nov-2015

 ----------------------------------------------------------------------
 #rhf/gen scf(symm,tight,novaracc,noincfock,fulldiag) stable(crhf) geom
 =nocrowd test
 ----------------------------------------------------------------------

 hf stability analysis of h10 triangular lattice, y= 0.8737241767333666
 6
 ----------------------------------------------------------------------
 Symbolic Z-matrix:
 Charge =  0 Multiplicity = 1

                         Standard orientation:
 ---------------------------------------------------------------------
 Center     Atomic      Atomic             Coordinates (Angstroms)
 Number     Number       Type             X           Y           Z
 ---------------------------------------------------------------------
      1          1           0        2.108150    1.144278    0.000000
      2          1           0        2.108150    0.048814    0.000000
      3          1           0        1.054075    0.846005    0.000000
      4          1           0        1.054075   -0.249459   -0.000000
      5          1           0        0.000000    0.547732    0.000000
      6          1           0       -0.000000   -0.547732   -0.000000
      7          1           0       -1.054075    0.249459   -0.000000
      8          1           0       -1.054075   -0.846005   -0.000000
      9          1           0       -2.108150   -0.048814   -0.000000
     10          1           0       -2.108150   -1.144278   -0.000000
 ---------------------------------------------------------------------

 SCF Done:  E(RHF) =  -4.85469337109     A.U. after   11 cycles
 E2 =    -0.1137228262D+00 EUMP2 =    -0.49684161972729D+01

 The electronic state is 1-AG.
 Alpha  occ. eigenvalues --   -0.85936  -0.73857  -0.54610  -0.39133  -0.29291
 Alpha virt. eigenvalues --   -0.02635   0.21672   0.30243   0.52943   0.80624

 Mulliken charges:
               1
     1  H   -0.078801
     2  H    0.114944
     3  H    0.062932
     4  H   -0.097158
     5  H   -0.001916
     6  H   -0.001916
     7  H   -0.097158
     8  H    0.062932
     9  H    0.114944
    10  H   -0.078801
 Sum of Mulliken charges =   0.00000

 Dipole moment (field-independent basis, Debye):
    X=              0.0000    Y=             -0.0000    Z=             -0.0000  Tot=              0.0000
 Quadrupole moment (field-independent basis, Debye-Ang):
   XX=            -15.3698   YY=            -14.4423   ZZ=            -12.8551
   XY=             -1.7376   XZ=             -0.0000   YZ=             -0.0000

 Normal termination of Gaussian 09 at Thu Feb  9 15:29:49 2017.
