 Gaussian 09, Revision E.01,
 Gaussian 09:  ES64L-G09RevE.01 30-Nov-2015

 ----------------------------------------------------------------------
 #rhf/gen scf(symm,tight,novaracc,noincfock,fulldiag) stable(crhf) geom
 =nocrowd test
 ----------------------------------------------------------------------

 hf stability analysis of h10 triangular lattice, y= 0.8833142989544126
 0
 ----------------------------------------------------------------------
 Symbolic Z-matrix:
 Charge =  0 Multiplicity = 1

                         Standard orientation:
 ---------------------------------------------------------------------
 Center     Atomic      Atomic             Coordinates (Angstroms)
 Number     Number       Type             X           Y           Z
 ---------------------------------------------------------------------
      1          1           0        2.101662    1.191965   -0.000000
      2          1           0        2.101662    0.093120   -0.000000
      3          1           0        1.050831    0.870694   -0.000000
      4          1           0        1.050831   -0.228151   -0.000000
      5          1           0       -0.000000    0.549423    0.000000
      6          1           0       -0.000000   -0.549423    0.000000
      7          1           0       -1.050831    0.228151   -0.000000
      8          1           0       -1.050831   -0.870694   -0.000000
      9          1           0       -2.101662   -0.093120   -0.000000
     10          1           0       -2.101662   -1.191965   -0.000000
 ---------------------------------------------------------------------

 SCF Done:  E(RHF) =  -4.85658316047     A.U. after   10 cycles
 E2 =    -0.1134492557D+00 EUMP2 =    -0.49700324162044D+01

 The electronic state is 1-AG.
 Alpha  occ. eigenvalues --   -0.85853  -0.73892  -0.54649  -0.38840  -0.29407
 Alpha virt. eigenvalues --   -0.02506   0.21818   0.29679   0.53129   0.78970

 Mulliken charges:
               1
     1  H   -0.083247
     2  H    0.120081
     3  H    0.068516
     4  H   -0.100609
     5  H   -0.004741
     6  H   -0.004741
     7  H   -0.100609
     8  H    0.068516
     9  H    0.120081
    10  H   -0.083247
 Sum of Mulliken charges =  -0.00000

 Dipole moment (field-independent basis, Debye):
    X=              0.0000    Y=             -0.0000    Z=             -0.0000  Tot=              0.0000
 Quadrupole moment (field-independent basis, Debye-Ang):
   XX=            -15.2485   YY=            -14.5778   ZZ=            -12.8641
   XY=             -1.7853   XZ=             -0.0000   YZ=             -0.0000

 Normal termination of Gaussian 09 at Thu Feb  9 15:30:21 2017.
