 Gaussian 09, Revision E.01,
 Gaussian 09:  ES64L-G09RevE.01 30-Nov-2015

 ----------------------------------------------------------------------
 #rhf/gen scf(symm,tight,novaracc,noincfock,fulldiag) stable(crhf) geom
 =nocrowd test
 ----------------------------------------------------------------------

 ----------------------------------------------------------------------
 hf stability analysis of h10 triangular lattice, y= 2.3536400620558657
 ----------------------------------------------------------------------
 Symbolic Z-matrix:
 Charge =  0 Multiplicity = 1

                         Standard orientation:
 ---------------------------------------------------------------------
 Center     Atomic      Atomic             Coordinates (Angstroms)
 Number     Number       Type             X           Y           Z
 ---------------------------------------------------------------------
      1          1           0        0.975918    5.814259   -0.000000
      2          1           0        0.975918    3.447870   -0.000000
      3          1           0        0.487959    3.498727   -0.000000
      4          1           0        0.487959    1.132338   -0.000000
      5          1           0        0.000000    1.183194   -0.000000
      6          1           0       -0.000000   -1.183194   -0.000000
      7          1           0       -0.487959   -1.132338   -0.000000
      8          1           0       -0.487959   -3.498727   -0.000000
      9          1           0       -0.975918   -3.447870   -0.000000
     10          1           0       -0.975918   -5.814259   -0.000000
 ---------------------------------------------------------------------

 SCF Done:  E(RHF) =  -4.48489753378     A.U. after    5 cycles
 E2 =    -0.9775866999D+00 EUMP2 =    -0.54624842337216D+01

 The electronic state is 1-AG.
 Alpha  occ. eigenvalues --   -0.73678  -0.72434  -0.70707  -0.69119  -0.20493
 Alpha virt. eigenvalues --   -0.16001   0.54047   0.58905   0.65617   0.71696

 Mulliken charges:
               1
     1  H    0.001143
     2  H    0.000015
     3  H   -0.001181
     4  H   -0.000109
     5  H    0.000132
     6  H    0.000132
     7  H   -0.000109
     8  H   -0.001181
     9  H    0.000015
    10  H    0.001143
 Sum of Mulliken charges =  -0.00000

 Dipole moment (field-independent basis, Debye):
    X=              0.0000    Y=              0.0000    Z=             -0.0000  Tot=              0.0000
 Quadrupole moment (field-independent basis, Debye-Ang):
   XX=            -12.6626   YY=            -15.0692   ZZ=            -13.4639
   XY=             -0.3677   XZ=             -0.0000   YZ=             -0.0000

 Normal termination of Gaussian 09 at Thu Feb  9 15:59:21 2017.
