 Gaussian 09, Revision E.01,
 Gaussian 09:  ES64L-G09RevE.01 30-Nov-2015

 ----------------------------------------------------------------------
 #rhf/gen scf(symm,tight,novaracc,noincfock,fulldiag) stable(crhf) geom
 =nocrowd test
 ----------------------------------------------------------------------

 ----------------------------------------------------------------------
 hf stability analysis of h10 triangular lattice, y= 1.1634340914554704
 ----------------------------------------------------------------------
 Symbolic Z-matrix:
 Charge =  0 Multiplicity = 1

                         Standard orientation:
 ---------------------------------------------------------------------
 Center     Atomic      Atomic             Coordinates (Angstroms)
 Number     Number       Type             X           Y           Z
 ---------------------------------------------------------------------
      1          1           0        1.825833    2.383335    0.000000
      2          1           0        1.825833    1.118488    0.000000
      3          1           0        0.912917    1.507880    0.000000
      4          1           0        0.912917    0.243032    0.000000
      5          1           0        0.000000    0.632424    0.000000
      6          1           0       -0.000000   -0.632424   -0.000000
      7          1           0       -0.912917   -0.243032   -0.000000
      8          1           0       -0.912917   -1.507880   -0.000000
      9          1           0       -1.825833   -1.118488   -0.000000
     10          1           0       -1.825833   -2.383335   -0.000000
 ---------------------------------------------------------------------

 SCF Done:  E(RHF) =  -4.81136834561     A.U. after   10 cycles
 E2 =    -0.1234762133D+00 EUMP2 =    -0.49348445589237D+01

 The electronic state is 1-AG.
 Alpha  occ. eigenvalues --   -0.80294  -0.72952  -0.55310  -0.33309  -0.23499
 Alpha virt. eigenvalues --    0.02954   0.14303   0.22247   0.40625   0.60992

 Mulliken charges:
               1
     1  H   -0.008135
     2  H    0.102236
     3  H    0.111451
     4  H   -0.108627
     5  H   -0.096925
     6  H   -0.096925
     7  H   -0.108627
     8  H    0.111451
     9  H    0.102236
    10  H   -0.008135
 Sum of Mulliken charges =   0.00000

 Dipole moment (field-independent basis, Debye):
    X=             -0.0000    Y=              0.0000    Z=             -0.0000  Tot=              0.0000
 Quadrupole moment (field-independent basis, Debye-Ang):
   XX=            -11.8379   YY=            -12.0300   ZZ=            -13.1429
   XY=              2.8010   XZ=              0.0000   YZ=              0.0000

 Normal termination of Gaussian 09 at Thu Feb  9 15:42:54 2017.
