 Gaussian 09, Revision E.01,
 Gaussian 09:  ES64L-G09RevE.01 30-Nov-2015

 ----------------------------------------------------------------------
 #rhf/gen scf(symm,tight,novaracc,noincfock,fulldiag) stable(crhf) geom
 =nocrowd test
 ----------------------------------------------------------------------

 ----------------------------------------------------------------------
 hf stability analysis of h10 triangular lattice, y= 1.0184762030947627
 ----------------------------------------------------------------------
 Symbolic Z-matrix:
 Charge =  0 Multiplicity = 1

                         Standard orientation:
 ---------------------------------------------------------------------
 Center     Atomic      Atomic             Coordinates (Angstroms)
 Number     Number       Type             X           Y           Z
 ---------------------------------------------------------------------
      1          1           0        1.981284    1.811252    0.000000
      2          1           0        1.981284    0.645644    0.000000
      3          1           0        0.990642    1.197028    0.000000
      4          1           0        0.990642    0.031420    0.000000
      5          1           0       -0.000000    0.582804    0.000000
      6          1           0       -0.000000   -0.582804   -0.000000
      7          1           0       -0.990642   -0.031420    0.000000
      8          1           0       -0.990642   -1.197028   -0.000000
      9          1           0       -1.981284   -0.645644    0.000000
     10          1           0       -1.981284   -1.811252   -0.000000
 ---------------------------------------------------------------------

 SCF Done:  E(RHF) =  -4.86620842426     A.U. after   10 cycles
 E2 =    -0.1136997542D+00 EUMP2 =    -0.49799081784867D+01

 The electronic state is 1-AG.
 Alpha  occ. eigenvalues --   -0.83825  -0.73973  -0.55177  -0.33135  -0.30925
 Alpha virt. eigenvalues --    0.00355   0.20774   0.24058   0.55321   0.56537

 Mulliken charges:
               1
     1  H   -0.085648
     2  H    0.144566
     3  H    0.110208
     4  H   -0.121512
     5  H   -0.047614
     6  H   -0.047614
     7  H   -0.121512
     8  H    0.110208
     9  H    0.144566
    10  H   -0.085648
 Sum of Mulliken charges =  -0.00000

 Dipole moment (field-independent basis, Debye):
    X=              0.0000    Y=              0.0000    Z=              0.0000  Tot=              0.0000
 Quadrupole moment (field-independent basis, Debye-Ang):
   XX=            -13.3287   YY=            -15.4103   ZZ=            -13.0082
   XY=             -0.7008   XZ=             -0.0000   YZ=             -0.0000

 Normal termination of Gaussian 09 at Thu Feb  9 15:37:05 2017.
