 Gaussian 09, Revision E.01,
 Gaussian 09:  ES64L-G09RevE.01 30-Nov-2015

 ----------------------------------------------------------------------
 #rhf/gen scf(symm,tight,novaracc,noincfock,fulldiag) stable(crhf) geom
 =nocrowd test
 ----------------------------------------------------------------------

 hf stability analysis of h10 triangular lattice, y= 0.9949868959062069
 3
 ----------------------------------------------------------------------
 Symbolic Z-matrix:
 Charge =  0 Multiplicity = 1

                         Standard orientation:
 ---------------------------------------------------------------------
 Center     Atomic      Atomic             Coordinates (Angstroms)
 Number     Number       Type             X           Y           Z
 ---------------------------------------------------------------------
      1          1           0        2.004994    1.710283    0.000000
      2          1           0        2.004994    0.558459    0.000000
      3          1           0        1.002497    1.143098   -0.000000
      4          1           0        1.002497   -0.008727    0.000000
      5          1           0       -0.000000    0.575912   -0.000000
      6          1           0       -0.000000   -0.575912    0.000000
      7          1           0       -1.002497    0.008727    0.000000
      8          1           0       -1.002497   -1.143098    0.000000
      9          1           0       -2.004994   -0.558459    0.000000
     10          1           0       -2.004994   -1.710283    0.000000
 ---------------------------------------------------------------------

 SCF Done:  E(RHF) =  -4.86802287736     A.U. after   10 cycles
 E2 =    -0.1130024942D+00 EUMP2 =    -0.49810253715993D+01

 The electronic state is 1-AG.
 Alpha  occ. eigenvalues --   -0.84284  -0.74030  -0.55103  -0.34210  -0.30791
 Alpha virt. eigenvalues --   -0.00246   0.22309   0.23720   0.55867   0.59087

 Mulliken charges:
               1
     1  H   -0.092109
     2  H    0.145810
     3  H    0.107114
     4  H   -0.120713
     5  H   -0.040102
     6  H   -0.040102
     7  H   -0.120713
     8  H    0.107114
     9  H    0.145810
    10  H   -0.092109
 Sum of Mulliken charges =  -0.00000

 Dipole moment (field-independent basis, Debye):
    X=              0.0000    Y=             -0.0000    Z=              0.0000  Tot=              0.0000
 Quadrupole moment (field-independent basis, Debye-Ang):
   XX=            -13.6529   YY=            -15.4892   ZZ=            -12.9829
   XY=             -1.0945   XZ=              0.0000   YZ=              0.0000

 Normal termination of Gaussian 09 at Thu Feb  9 15:35:57 2017.
