 Gaussian 09, Revision E.01,
 Gaussian 09:  ES64L-G09RevE.01 30-Nov-2015

 ----------------------------------------------------------------------
 #rhf/gen scf(symm,tight,novaracc,noincfock,fulldiag) stable(crhf) geom
 =nocrowd test
 ----------------------------------------------------------------------

 hf stability analysis of h10 triangular lattice, y= 0.9384058608233425
 4
 ----------------------------------------------------------------------
 Symbolic Z-matrix:
 Charge =  0 Multiplicity = 1

                         Standard orientation:
 ---------------------------------------------------------------------
 Center     Atomic      Atomic             Coordinates (Angstroms)
 Number     Number       Type             X           Y           Z
 ---------------------------------------------------------------------
      1          1           0        2.058086    1.455937    0.000000
      2          1           0        2.058086    0.333826    0.000000
      3          1           0        1.029043    1.008496    0.000000
      4          1           0        1.029043   -0.113615   -0.000000
      5          1           0       -0.000000    0.561055    0.000000
      6          1           0       -0.000000   -0.561055    0.000000
      7          1           0       -1.029043    0.113615    0.000000
      8          1           0       -1.029043   -1.008496    0.000000
      9          1           0       -2.058086   -0.333826    0.000000
     10          1           0       -2.058086   -1.455937    0.000000
 ---------------------------------------------------------------------

 SCF Done:  E(RHF) =  -4.86555684321     A.U. after   10 cycles
 E2 =    -0.1124939988D+00 EUMP2 =    -0.49780508419746D+01

 The electronic state is 1-AG.
 Alpha  occ. eigenvalues --   -0.85214  -0.74037  -0.54883  -0.36796  -0.30117
 Alpha virt. eigenvalues --   -0.01550   0.22749   0.26129   0.54368   0.69006

 Mulliken charges:
               1
     1  H   -0.096831
     2  H    0.140071
     3  H    0.093231
     4  H   -0.114521
     5  H   -0.021950
     6  H   -0.021950
     7  H   -0.114521
     8  H    0.093231
     9  H    0.140071
    10  H   -0.096831
 Sum of Mulliken charges =   0.00000

 Dipole moment (field-independent basis, Debye):
    X=             -0.0000    Y=             -0.0000    Z=              0.0000  Tot=              0.0000
 Quadrupole moment (field-independent basis, Debye-Ang):
   XX=            -14.4766   YY=            -15.2400   ZZ=            -12.9211
   XY=             -1.7164   XZ=              0.0000   YZ=              0.0000

 Normal termination of Gaussian 09 at Thu Feb  9 15:33:12 2017.
