 Gaussian 09, Revision E.01,
 Gaussian 09:  ES64L-G09RevE.01 30-Nov-2015

 ----------------------------------------------------------------------
 #rhf/gen scf(symm,tight,novaracc,noincfock,fulldiag) stable(crhf) geom
 =nocrowd test
 ----------------------------------------------------------------------

 ----------------------------------------------------------------------
 hf stability analysis of h10 triangular lattice, y= 1.0143106775206405
 ----------------------------------------------------------------------
 Symbolic Z-matrix:
 Charge =  0 Multiplicity = 1

                         Standard orientation:
 ---------------------------------------------------------------------
 Center     Atomic      Atomic             Coordinates (Angstroms)
 Number     Number       Type             X           Y           Z
 ---------------------------------------------------------------------
      1          1           0        1.985543    1.793535    0.000000
      2          1           0        1.985543    0.630427    0.000000
      3          1           0        0.992772    1.187544    0.000000
      4          1           0        0.992772    0.024436    0.000000
      5          1           0        0.000000    0.581554    0.000000
      6          1           0       -0.000000   -0.581554    0.000000
      7          1           0       -0.992772   -0.024436    0.000000
      8          1           0       -0.992772   -1.187544    0.000000
      9          1           0       -1.985543   -0.630427    0.000000
     10          1           0       -1.985543   -1.793535    0.000000
 ---------------------------------------------------------------------

 SCF Done:  E(RHF) =  -4.86666514195     A.U. after   10 cycles
 E2 =    -0.1135556479D+00 EUMP2 =    -0.49802207898280D+01

 The electronic state is 1-AG.
 Alpha  occ. eigenvalues --   -0.83910  -0.73986  -0.55165  -0.33314  -0.30918
 Alpha virt. eigenvalues --    0.00247   0.21042   0.24003   0.55969   0.56417

 Mulliken charges:
               1
     1  H   -0.086961
     2  H    0.144924
     3  H    0.109754
     4  H   -0.121435
     5  H   -0.046283
     6  H   -0.046283
     7  H   -0.121435
     8  H    0.109754
     9  H    0.144924
    10  H   -0.086961
 Sum of Mulliken charges =  -0.00000

 Dipole moment (field-independent basis, Debye):
    X=             -0.0000    Y=              0.0000    Z=              0.0000  Tot=              0.0000
 Quadrupole moment (field-independent basis, Debye-Ang):
   XX=            -13.3849   YY=            -15.4330   ZZ=            -13.0037
   XY=             -0.7757   XZ=             -0.0000   YZ=             -0.0000

 Normal termination of Gaussian 09 at Thu Feb  9 15:36:53 2017.
