 Gaussian 09, Revision E.01,
 Gaussian 09:  ES64L-G09RevE.01 30-Nov-2015

 ----------------------------------------------------------------------
 #rhf/gen scf(symm,tight,novaracc,noincfock,fulldiag) stable(crhf) geom
 =nocrowd test
 ----------------------------------------------------------------------

 hf stability analysis of h10 triangular lattice, y= 0.7972534768479298
 0
 ----------------------------------------------------------------------
 Symbolic Z-matrix:
 Charge =  0 Multiplicity = 1

                         Standard orientation:
 ---------------------------------------------------------------------
 Center     Atomic      Atomic             Coordinates (Angstroms)
 Number     Number       Type             X           Y           Z
 ---------------------------------------------------------------------
      1          1           0        2.144187    0.744988    0.000000
      2          1           0        2.144187   -0.332064    0.000000
      3          1           0        1.072094    0.641757    0.000000
      4          1           0        1.072094   -0.435295    0.000000
      5          1           0        0.000000    0.538526    0.000000
      6          1           0       -0.000000   -0.538526    0.000000
      7          1           0       -1.072094    0.435295    0.000000
      8          1           0       -1.072094   -0.641757    0.000000
      9          1           0       -2.144187    0.332064    0.000000
     10          1           0       -2.144187   -0.744988    0.000000
 ---------------------------------------------------------------------

 SCF Done:  E(RHF) =  -4.88245948185     A.U. after   10 cycles
 E2 =    -0.1052372940D+00 EUMP2 =    -0.49876967758562D+01

 The electronic state is 1-AG.
 Alpha  occ. eigenvalues --   -0.87661  -0.74467  -0.52682  -0.46629  -0.30977
 Alpha virt. eigenvalues --   -0.01572   0.15656   0.36189   0.51599   0.88910

 Mulliken charges:
               1
     1  H    0.070013
     2  H    0.010228
     3  H   -0.032379
     4  H   -0.034364
     5  H   -0.013498
     6  H   -0.013498
     7  H   -0.034364
     8  H   -0.032379
     9  H    0.010228
    10  H    0.070013
 Sum of Mulliken charges =   0.00000

 Dipole moment (field-independent basis, Debye):
    X=             -0.0000    Y=              0.0000    Z=              0.0000  Tot=              0.0000
 Quadrupole moment (field-independent basis, Debye-Ang):
   XX=            -10.1350   YY=            -17.2154   ZZ=            -12.9559
   XY=              1.4124   XZ=             -0.0000   YZ=             -0.0000

 Normal termination of Gaussian 09 at Thu Feb  9 15:25:22 2017.
