 Gaussian 09, Revision E.01,
 Gaussian 09:  ES64L-G09RevE.01 30-Nov-2015

 ----------------------------------------------------------------------
 #rhf/gen scf(symm,tight,novaracc,noincfock,fulldiag) stable(crhf) geom
 =nocrowd test
 ----------------------------------------------------------------------

 hf stability analysis of h10 triangular lattice, y= 0.8106688916475531
 8
 ----------------------------------------------------------------------
 Symbolic Z-matrix:
 Charge =  0 Multiplicity = 1

                         Standard orientation:
 ---------------------------------------------------------------------
 Center     Atomic      Atomic             Coordinates (Angstroms)
 Number     Number       Type             X           Y           Z
 ---------------------------------------------------------------------
      1          1           0        2.140171    0.817496   -0.000000
      2          1           0        2.140171   -0.261577   -0.000000
      3          1           0        1.070086    0.678516   -0.000000
      4          1           0        1.070086   -0.400557   -0.000000
      5          1           0        0.000000    0.539537   -0.000000
      6          1           0       -0.000000   -0.539537   -0.000000
      7          1           0       -1.070086    0.400557    0.000000
      8          1           0       -1.070086   -0.678516    0.000000
      9          1           0       -2.140171    0.261577    0.000000
     10          1           0       -2.140171   -0.817496    0.000000
 ---------------------------------------------------------------------

 SCF Done:  E(RHF) =  -4.87901352280     A.U. after   10 cycles
 E2 =    -0.1054587696D+00 EUMP2 =    -0.49844722924305D+01

 The electronic state is 1-AG.
 Alpha  occ. eigenvalues --   -0.87573  -0.74415  -0.52716  -0.46429  -0.30777
 Alpha virt. eigenvalues --   -0.01791   0.15917   0.35687   0.51839   0.87748

 Mulliken charges:
               1
     1  H    0.079895
     2  H   -0.000260
     3  H   -0.031808
     4  H   -0.034912
     5  H   -0.012915
     6  H   -0.012915
     7  H   -0.034912
     8  H   -0.031808
     9  H   -0.000260
    10  H    0.079895
 Sum of Mulliken charges =  -0.00000

 Dipole moment (field-independent basis, Debye):
    X=              0.0000    Y=             -0.0000    Z=              0.0000  Tot=              0.0000
 Quadrupole moment (field-independent basis, Debye-Ang):
   XX=            -10.1932   YY=            -17.0584   ZZ=            -12.9571
   XY=              1.8946   XZ=             -0.0000   YZ=             -0.0000

 Normal termination of Gaussian 09 at Thu Feb  9 15:26:12 2017.
