 Gaussian 09, Revision E.01,
 Gaussian 09:  ES64L-G09RevE.01 30-Nov-2015

 ----------------------------------------------------------------------
 #rhf/gen scf(symm,tight,novaracc,noincfock,fulldiag) stable(crhf) geom
 =nocrowd test
 ----------------------------------------------------------------------

 hf stability analysis of h10 triangular lattice, y= 0.9339599336918161
 8
 ----------------------------------------------------------------------
 Symbolic Z-matrix:
 Charge =  0 Multiplicity = 1

                         Standard orientation:
 ---------------------------------------------------------------------
 Center     Atomic      Atomic             Coordinates (Angstroms)
 Number     Number       Type             X           Y           Z
 ---------------------------------------------------------------------
      1          1           0        2.061948    1.435250    0.000000
      2          1           0        2.061948    0.315240    0.000000
      3          1           0        1.030974    0.997627    0.000000
      4          1           0        1.030974   -0.122382    0.000000
      5          1           0       -0.000000    0.560005   -0.000000
      6          1           0       -0.000000   -0.560005   -0.000000
      7          1           0       -1.030974    0.122382    0.000000
      8          1           0       -1.030974   -0.997627    0.000000
      9          1           0       -2.061948   -0.315240    0.000000
     10          1           0       -2.061948   -1.435250    0.000000
 ---------------------------------------------------------------------

 SCF Done:  E(RHF) =  -4.86501876860     A.U. after   10 cycles
 E2 =    -0.1125227832D+00 EUMP2 =    -0.49775415518249D+01

 The electronic state is 1-AG.
 Alpha  occ. eigenvalues --   -0.85275  -0.74030  -0.54864  -0.36981  -0.30059
 Alpha virt. eigenvalues --   -0.01640   0.22670   0.26428   0.54259   0.69816

 Mulliken charges:
               1
     1  H   -0.096453
     2  H    0.139026
     3  H    0.091682
     4  H   -0.113727
     5  H   -0.020528
     6  H   -0.020528
     7  H   -0.113727
     8  H    0.091682
     9  H    0.139026
    10  H   -0.096453
 Sum of Mulliken charges =  -0.00000

 Dipole moment (field-independent basis, Debye):
    X=              0.0000    Y=             -0.0000    Z=              0.0000  Tot=              0.0000
 Quadrupole moment (field-independent basis, Debye-Ang):
   XX=            -14.5417   YY=            -15.1984   ZZ=            -12.9163
   XY=             -1.7429   XZ=              0.0000   YZ=             -0.0000

 Normal termination of Gaussian 09 at Thu Feb  9 15:32:58 2017.
