 Gaussian 09, Revision E.01,
 Gaussian 09:  ES64L-G09RevE.01 30-Nov-2015

 ----------------------------------------------------------------------
 #rhf/gen scf(symm,tight,novaracc,noincfock,fulldiag) stable(crhf) geom
 =nocrowd test
 ----------------------------------------------------------------------

 ----------------------------------------------------------------------
 hf stability analysis of h10 triangular lattice, y= 1.2200401651252133
 ----------------------------------------------------------------------
 Symbolic Z-matrix:
 Charge =  0 Multiplicity = 1

                         Standard orientation:
 ---------------------------------------------------------------------
 Center     Atomic      Atomic             Coordinates (Angstroms)
 Number     Number       Type             X           Y           Z
 ---------------------------------------------------------------------
      1          1           0        1.764786    2.586988    0.000000
      2          1           0        1.764786    1.278387    0.000000
      3          1           0        0.882393    1.620644    0.000000
      4          1           0        0.882393    0.312043    0.000000
      5          1           0        0.000000    0.654301    0.000000
      6          1           0       -0.000000   -0.654301    0.000000
      7          1           0       -0.882393   -0.312043   -0.000000
      8          1           0       -0.882393   -1.620644   -0.000000
      9          1           0       -1.764786   -1.278387   -0.000000
     10          1           0       -1.764786   -2.586988   -0.000000
 ---------------------------------------------------------------------

 SCF Done:  E(RHF) =  -4.77037439538     A.U. after   11 cycles
 E2 =    -0.1294095810D+00 EUMP2 =    -0.48997839763809D+01

 The electronic state is 1-AG.
 Alpha  occ. eigenvalues --   -0.78718  -0.72297  -0.55199  -0.33985  -0.19570
 Alpha virt. eigenvalues --    0.02099   0.14539   0.18697   0.39777   0.62759

 Mulliken charges:
               1
     1  H    0.032265
     2  H    0.069253
     3  H    0.112627
     4  H   -0.090294
     5  H   -0.123851
     6  H   -0.123851
     7  H   -0.090294
     8  H    0.112627
     9  H    0.069253
    10  H    0.032265
 Sum of Mulliken charges =  -0.00000

 Dipole moment (field-independent basis, Debye):
    X=              0.0000    Y=              0.0000    Z=             -0.0000  Tot=              0.0000
 Quadrupole moment (field-independent basis, Debye-Ang):
   XX=            -11.5785   YY=             -9.3248   ZZ=            -13.1787
   XY=              4.3466   XZ=              0.0000   YZ=              0.0000

 Normal termination of Gaussian 09 at Thu Feb  9 15:44:44 2017.
