 Gaussian 09, Revision E.01,
 Gaussian 09:  ES64L-G09RevE.01 30-Nov-2015

 ----------------------------------------------------------------------
 #rhf/gen scf(symm,tight,novaracc,noincfock,fulldiag) stable(crhf) geom
 =nocrowd test
 ----------------------------------------------------------------------

 ----------------------------------------------------------------------
 hf stability analysis of h10 triangular lattice, y= 1.2060309883170346
 ----------------------------------------------------------------------
 Symbolic Z-matrix:
 Charge =  0 Multiplicity = 1

                         Standard orientation:
 ---------------------------------------------------------------------
 Center     Atomic      Atomic             Coordinates (Angstroms)
 Number     Number       Type             X           Y           Z
 ---------------------------------------------------------------------
      1          1           0        1.779792    2.537453   -0.000000
      2          1           0        1.779792    1.239885   -0.000000
      3          1           0        0.889896    1.593119   -0.000000
      4          1           0        0.889896    0.295551   -0.000000
      5          1           0        0.000000    0.648784    0.000000
      6          1           0       -0.000000   -0.648784    0.000000
      7          1           0       -0.889896   -0.295551   -0.000000
      8          1           0       -0.889896   -1.593119   -0.000000
      9          1           0       -1.779792   -1.239885   -0.000000
     10          1           0       -1.779792   -2.537453   -0.000000
 ---------------------------------------------------------------------

 SCF Done:  E(RHF) =  -4.78138303444     A.U. after   11 cycles
 E2 =    -0.1278269929D+00 EUMP2 =    -0.49092100273553D+01

 The electronic state is 1-AG.
 Alpha  occ. eigenvalues --   -0.79113  -0.72470  -0.55233  -0.33811  -0.20558
 Alpha virt. eigenvalues --    0.02436   0.14309   0.19673   0.39791   0.62327

 Mulliken charges:
               1
     1  H    0.022041
     2  H    0.078750
     3  H    0.111644
     4  H   -0.096311
     5  H   -0.116124
     6  H   -0.116124
     7  H   -0.096311
     8  H    0.111644
     9  H    0.078750
    10  H    0.022041
 Sum of Mulliken charges =   0.00000

 Dipole moment (field-independent basis, Debye):
    X=              0.0000    Y=              0.0000    Z=             -0.0000  Tot=              0.0000
 Quadrupole moment (field-independent basis, Debye-Ang):
   XX=            -11.6186   YY=            -10.0591   ZZ=            -13.1713
   XY=              3.9745   XZ=             -0.0000   YZ=             -0.0000

 Normal termination of Gaussian 09 at Thu Feb  9 15:44:18 2017.
