 Gaussian 09, Revision E.01,
 Gaussian 09:  ES64L-G09RevE.01 30-Nov-2015

 ----------------------------------------------------------------------
 #rhf/gen scf(symm,tight,novaracc,noincfock,fulldiag) stable(crhf) geom
 =nocrowd test
 ----------------------------------------------------------------------

 ----------------------------------------------------------------------
 hf stability analysis of h10 triangular lattice, y= 1.3409831299114769
 ----------------------------------------------------------------------
 Symbolic Z-matrix:
 Charge =  0 Multiplicity = 1

                         Standard orientation:
 ---------------------------------------------------------------------
 Center     Atomic      Atomic             Coordinates (Angstroms)
 Number     Number       Type             X           Y           Z
 ---------------------------------------------------------------------
      1          1           0        1.639729    2.994551    0.000000
      2          1           0        1.639729    1.586147    0.000000
      3          1           0        0.819864    1.849377    0.000000
      4          1           0        0.819864    0.440972    0.000000
      5          1           0       -0.000000    0.704202    0.000000
      6          1           0       -0.000000   -0.704202   -0.000000
      7          1           0       -0.819864   -0.440972   -0.000000
      8          1           0       -0.819864   -1.849377   -0.000000
      9          1           0       -1.639729   -1.586147   -0.000000
     10          1           0       -1.639729   -2.994551   -0.000000
 ---------------------------------------------------------------------

 SCF Done:  E(RHF) =  -4.77095458430     A.U. after   11 cycles
 E2 =    -0.2418635092D+00 EUMP2 =    -0.50128180935330D+01

 The electronic state is 1-AG.
 Alpha  occ. eigenvalues --   -0.82355  -0.73413  -0.59892  -0.42816  -0.11518
 Alpha virt. eigenvalues --    0.01062   0.09439   0.21910   0.40089   0.56576

 Mulliken charges:
               1
     1  H   -0.228959
     2  H    0.049038
     3  H    0.105752
     4  H    0.033649
     5  H    0.040520
     6  H    0.040520
     7  H    0.033649
     8  H    0.105752
     9  H    0.049038
    10  H   -0.228959
 Sum of Mulliken charges =  -0.00000

 Dipole moment (field-independent basis, Debye):
    X=             -0.0000    Y=              0.0000    Z=              0.0000  Tot=              0.0000
 Quadrupole moment (field-independent basis, Debye-Ang):
   XX=            -16.6590   YY=            -31.9880   ZZ=            -12.8041
   XY=            -11.2287   XZ=             -0.0000   YZ=             -0.0000

 Normal termination of Gaussian 09 at Thu Feb  9 15:48:03 2017.
