 Gaussian 09, Revision E.01,
 Gaussian 09:  ES64L-G09RevE.01 30-Nov-2015

 ----------------------------------------------------------------------
 #rhf/gen scf(symm,tight,novaracc,noincfock,fulldiag) stable(crhf) geom
 =nocrowd test
 ----------------------------------------------------------------------

 ----------------------------------------------------------------------
 hf stability analysis of h10 triangular lattice, y= 1.8378354072926408
 ----------------------------------------------------------------------
 Symbolic Z-matrix:
 Charge =  0 Multiplicity = 1

                         Standard orientation:
 ---------------------------------------------------------------------
 Center     Atomic      Atomic             Coordinates (Angstroms)
 Number     Number       Type             X           Y           Z
 ---------------------------------------------------------------------
      1          1           0        1.238623    4.449506   -0.000000
      2          1           0        1.238623    2.585015   -0.000000
      3          1           0        0.619311    2.690876   -0.000000
      4          1           0        0.619311    0.826385   -0.000000
      5          1           0        0.000000    0.932246   -0.000000
      6          1           0       -0.000000   -0.932246   -0.000000
      7          1           0       -0.619311   -0.826385   -0.000000
      8          1           0       -0.619311   -2.690876   -0.000000
      9          1           0       -1.238623   -2.585015   -0.000000
     10          1           0       -1.238623   -4.449506   -0.000000
 ---------------------------------------------------------------------

 SCF Done:  E(RHF) =  -4.88663992621     A.U. after    7 cycles
 E2 =    -0.7174129445D+00 EUMP2 =    -0.56040528707261D+01

 The electronic state is 1-AG.
 Alpha  occ. eigenvalues --   -0.73812  -0.70331  -0.64810  -0.58627  -0.19098
 Alpha virt. eigenvalues --   -0.13191   0.35666   0.43665   0.55572   0.67167

 Mulliken charges:
               1
     1  H   -0.015735
     2  H    0.006267
     3  H    0.006720
     4  H    0.000281
     5  H    0.002467
     6  H    0.002467
     7  H    0.000281
     8  H    0.006720
     9  H    0.006267
    10  H   -0.015735
 Sum of Mulliken charges =  -0.00000

 Dipole moment (field-independent basis, Debye):
    X=              0.0000    Y=              0.0000    Z=              0.0000  Tot=              0.0000
 Quadrupole moment (field-independent basis, Debye-Ang):
   XX=            -12.3288   YY=            -18.9545   ZZ=            -13.1680
   XY=             -1.8634   XZ=              0.0000   YZ=              0.0000

 Normal termination of Gaussian 09 at Thu Feb  9 15:55:50 2017.
