 Gaussian 09, Revision E.01,
 Gaussian 09:  ES64L-G09RevE.01 30-Nov-2015

 ----------------------------------------------------------------------
 #rhf/gen scf(symm,tight,novaracc,noincfock,fulldiag) stable(crhf) geom
 =nocrowd test
 ----------------------------------------------------------------------

 ----------------------------------------------------------------------
 hf stability analysis of h10 triangular lattice, y= 1.7480104705916841
 ----------------------------------------------------------------------
 Symbolic Z-matrix:
 Charge =  0 Multiplicity = 1

                         Standard orientation:
 ---------------------------------------------------------------------
 Center     Atomic      Atomic             Coordinates (Angstroms)
 Number     Number       Type             X           Y           Z
 ---------------------------------------------------------------------
      1          1           0        1.298189    4.202058    0.000000
      2          1           0        1.298189    2.423117    0.000000
      3          1           0        0.649094    2.545764    0.000000
      4          1           0        0.649094    0.766823    0.000000
      5          1           0        0.000000    0.889471    0.000000
      6          1           0       -0.000000   -0.889471    0.000000
      7          1           0       -0.649094   -0.766823    0.000000
      8          1           0       -0.649094   -2.545764    0.000000
      9          1           0       -1.298189   -2.423117    0.000000
     10          1           0       -1.298189   -4.202058    0.000000
 ---------------------------------------------------------------------

 SCF Done:  E(RHF) =  -4.91360792640     A.U. after    7 cycles
 E2 =    -0.6536226418D+00 EUMP2 =    -0.55672305681765D+01

 The electronic state is 1-AG.
 Alpha  occ. eigenvalues --   -0.74356  -0.70269  -0.63696  -0.56062  -0.18377
 Alpha virt. eigenvalues --   -0.12025   0.31779   0.40431   0.53429   0.66200

 Mulliken charges:
               1
     1  H   -0.028425
     2  H    0.010041
     3  H    0.012611
     4  H    0.001281
     5  H    0.004491
     6  H    0.004491
     7  H    0.001281
     8  H    0.012611
     9  H    0.010041
    10  H   -0.028425
 Sum of Mulliken charges =  -0.00000

 Dipole moment (field-independent basis, Debye):
    X=             -0.0000    Y=              0.0000    Z=              0.0000  Tot=              0.0000
 Quadrupole moment (field-independent basis, Debye-Ang):
   XX=            -12.4109   YY=            -20.5328   ZZ=            -13.0978
   XY=             -2.5983   XZ=              0.0000   YZ=              0.0000

 Normal termination of Gaussian 09 at Thu Feb  9 15:54:52 2017.
