 Gaussian 09, Revision E.01,
 Gaussian 09:  ES64L-G09RevE.01 30-Nov-2015

 ----------------------------------------------------------------------
 #rhf/gen scf(symm,tight,novaracc,noincfock,fulldiag) stable(crhf) geom
 =nocrowd test
 ----------------------------------------------------------------------

 hf stability analysis of h10 triangular lattice, y= 0.8361446986694045
 5
 ----------------------------------------------------------------------
 Symbolic Z-matrix:
 Charge =  0 Multiplicity = 1

                         Standard orientation:
 ---------------------------------------------------------------------
 Center     Atomic      Atomic             Coordinates (Angstroms)
 Number     Number       Type             X           Y           Z
 ---------------------------------------------------------------------
      1          1           0        2.129665    0.952307   -0.000000
      2          1           0        2.129665   -0.132089    0.000000
      3          1           0        1.064833    0.747253   -0.000000
      4          1           0        1.064833   -0.337144    0.000000
      5          1           0       -0.000000    0.542198   -0.000000
      6          1           0       -0.000000   -0.542198    0.000000
      7          1           0       -1.064833    0.337144    0.000000
      8          1           0       -1.064833   -0.747253    0.000000
      9          1           0       -2.129665    0.132089    0.000000
     10          1           0       -2.129665   -0.952307    0.000000
 ---------------------------------------------------------------------

 SCF Done:  E(RHF) =  -4.84736807248     A.U. after   10 cycles
 E2 =    -0.1149185246D+00 EUMP2 =    -0.49622865970946D+01

 The electronic state is 1-AG.
 Alpha  occ. eigenvalues --   -0.86188  -0.73710  -0.54473  -0.40081  -0.28885
 Alpha virt. eigenvalues --   -0.03030   0.21177   0.32192   0.52314   0.86482

 Mulliken charges:
               1
     1  H   -0.055291
     2  H    0.089816
     3  H    0.037461
     4  H   -0.080082
     5  H    0.008097
     6  H    0.008097
     7  H   -0.080082
     8  H    0.037461
     9  H    0.089816
    10  H   -0.055291
 Sum of Mulliken charges =   0.00000

 Dipole moment (field-independent basis, Debye):
    X=              0.0000    Y=              0.0000    Z=              0.0000  Tot=              0.0000
 Quadrupole moment (field-independent basis, Debye-Ang):
   XX=            -15.7805   YY=            -13.9214   ZZ=            -12.8240
   XY=             -1.3821   XZ=              0.0000   YZ=              0.0000

 Normal termination of Gaussian 09 at Thu Feb  9 15:27:43 2017.
