 Gaussian 09, Revision E.01,
 Gaussian 09:  ES64L-G09RevE.01 30-Nov-2015

 ----------------------------------------------------------------------
 #rhf/gen scf(symm,tight,novaracc,noincfock,fulldiag) stable(crhf) geom
 =nocrowd test
 ----------------------------------------------------------------------

 hf stability analysis of h10 triangular lattice, y= 0.7986528468853468
 8
 ----------------------------------------------------------------------
 Symbolic Z-matrix:
 Charge =  0 Multiplicity = 1

                         Standard orientation:
 ---------------------------------------------------------------------
 Center     Atomic      Atomic             Coordinates (Angstroms)
 Number     Number       Type             X           Y           Z
 ---------------------------------------------------------------------
      1          1           0        2.143820    0.752600   -0.000000
      2          1           0        2.143820   -0.324636    0.000000
      3          1           0        1.071910    0.645609   -0.000000
      4          1           0        1.071910   -0.431627    0.000000
      5          1           0       -0.000000    0.538618   -0.000000
      6          1           0       -0.000000   -0.538618   -0.000000
      7          1           0       -1.071910    0.431627    0.000000
      8          1           0       -1.071910   -0.645609   -0.000000
      9          1           0       -2.143820    0.324636    0.000000
     10          1           0       -2.143820   -0.752600   -0.000000
 ---------------------------------------------------------------------

 SCF Done:  E(RHF) =  -4.88214597633     A.U. after   10 cycles
 E2 =    -0.1052573688D+00 EUMP2 =    -0.49874033450855D+01

 The electronic state is 1-AG.
 Alpha  occ. eigenvalues --   -0.87653  -0.74462  -0.52685  -0.46611  -0.30958
 Alpha virt. eigenvalues --   -0.01593   0.15680   0.36143   0.51621   0.88803

 Mulliken charges:
               1
     1  H    0.071063
     2  H    0.009123
     3  H   -0.032327
     4  H   -0.034414
     5  H   -0.013446
     6  H   -0.013446
     7  H   -0.034414
     8  H   -0.032327
     9  H    0.009123
    10  H    0.071063
 Sum of Mulliken charges =  -0.00000

 Dipole moment (field-independent basis, Debye):
    X=              0.0000    Y=             -0.0000    Z=             -0.0000  Tot=              0.0000
 Quadrupole moment (field-independent basis, Debye-Ang):
   XX=            -10.1403   YY=            -17.2010   ZZ=            -12.9560
   XY=              1.4633   XZ=              0.0000   YZ=             -0.0000

 Normal termination of Gaussian 09 at Thu Feb  9 15:25:27 2017.
