 Gaussian 09, Revision E.01,
 Gaussian 09:  ES64L-G09RevE.01 30-Nov-2015

 ----------------------------------------------------------------------
 #rhf/gen scf(symm,tight,novaracc,noincfock,fulldiag) stable(crhf) geom
 =nocrowd test
 ----------------------------------------------------------------------

 hf stability analysis of h10 triangular lattice, y= 0.7909921130102771
 6
 ----------------------------------------------------------------------
 Symbolic Z-matrix:
 Charge =  0 Multiplicity = 1

                         Standard orientation:
 ---------------------------------------------------------------------
 Center     Atomic      Atomic             Coordinates (Angstroms)
 Number     Number       Type             X           Y           Z
 ---------------------------------------------------------------------
      1          1           0        2.145676    0.710789    0.000000
      2          1           0        2.145676   -0.365515    0.000000
      3          1           0        1.072838    0.624471    0.000000
      4          1           0        1.072838   -0.451834    0.000000
      5          1           0       -0.000000    0.538152    0.000000
      6          1           0       -0.000000   -0.538152    0.000000
      7          1           0       -1.072838    0.451834    0.000000
      8          1           0       -1.072838   -0.624471    0.000000
      9          1           0       -2.145676    0.365515    0.000000
     10          1           0       -2.145676   -0.710789    0.000000
 ---------------------------------------------------------------------

 SCF Done:  E(RHF) =  -4.88372875059     A.U. after   10 cycles
 E2 =    -0.1051561696D+00 EUMP2 =    -0.49888849201510D+01

 The electronic state is 1-AG.
 Alpha  occ. eigenvalues --   -0.87694  -0.74486  -0.52669  -0.46704  -0.31051
 Alpha virt. eigenvalues --   -0.01489   0.15557   0.36380   0.51506   0.89346

 Mulliken charges:
               1
     1  H    0.065264
     2  H    0.015198
     3  H   -0.032596
     4  H   -0.034157
     5  H   -0.013709
     6  H   -0.013709
     7  H   -0.034157
     8  H   -0.032596
     9  H    0.015198
    10  H    0.065264
 Sum of Mulliken charges =  -0.00000

 Dipole moment (field-independent basis, Debye):
    X=              0.0000    Y=              0.0000    Z=              0.0000  Tot=              0.0000
 Quadrupole moment (field-independent basis, Debye-Ang):
   XX=            -10.1136   YY=            -17.2735   ZZ=            -12.9554
   XY=              1.1825   XZ=              0.0000   YZ=              0.0000

 Normal termination of Gaussian 09 at Thu Feb  9 15:24:59 2017.
