 Gaussian 09, Revision E.01,
 Gaussian 09:  ES64L-G09RevE.01 30-Nov-2015

 ----------------------------------------------------------------------
 #rhf/gen scf(symm,tight,novaracc,noincfock,fulldiag) stable(crhf) geom
 =nocrowd test
 ----------------------------------------------------------------------

 hf stability analysis of h10 triangular lattice, y= 0.9191187904611952
 7
 ----------------------------------------------------------------------
 Symbolic Z-matrix:
 Charge =  0 Multiplicity = 1

                         Standard orientation:
 ---------------------------------------------------------------------
 Center     Atomic      Atomic             Coordinates (Angstroms)
 Number     Number       Type             X           Y           Z
 ---------------------------------------------------------------------
      1          1           0        2.074439    1.365423    0.000000
      2          1           0        2.074439    0.252157    0.000000
      3          1           0        1.037220    0.961028    0.000000
      4          1           0        1.037220   -0.152238    0.000000
      5          1           0        0.000000    0.556633    0.000000
      6          1           0       -0.000000   -0.556633    0.000000
      7          1           0       -1.037220    0.152238    0.000000
      8          1           0       -1.037220   -0.961028    0.000000
      9          1           0       -2.074439   -0.252157    0.000000
     10          1           0       -2.074439   -1.365423    0.000000
 ---------------------------------------------------------------------

 SCF Done:  E(RHF) =  -4.86293889591     A.U. after   10 cycles
 E2 =    -0.1126858855D+00 EUMP2 =    -0.49756247814597D+01

 The electronic state is 1-AG.
 Alpha  occ. eigenvalues --   -0.85468  -0.74000  -0.54801  -0.37577  -0.29864
 Alpha virt. eigenvalues --   -0.01925   0.22410   0.27414   0.53906   0.72528

 Mulliken charges:
               1
     1  H   -0.094314
     2  H    0.134844
     3  H    0.085967
     4  H   -0.110691
     5  H   -0.015806
     6  H   -0.015806
     7  H   -0.110691
     8  H    0.085967
     9  H    0.134844
    10  H   -0.094314
 Sum of Mulliken charges =   0.00000

 Dipole moment (field-independent basis, Debye):
    X=              0.0000    Y=              0.0000    Z=              0.0000  Tot=              0.0000
 Quadrupole moment (field-independent basis, Debye-Ang):
   XX=            -14.7569   YY=            -15.0413   ZZ=            -12.9004
   XY=             -1.8056   XZ=              0.0000   YZ=              0.0000

 Normal termination of Gaussian 09 at Thu Feb  9 15:32:14 2017.
