 Gaussian 09, Revision E.01,
 Gaussian 09:  ES64L-G09RevE.01 30-Nov-2015

 ----------------------------------------------------------------------
 #rhf/gen scf(symm,tight,novaracc,noincfock,fulldiag) stable(crhf) geom
 =nocrowd test
 ----------------------------------------------------------------------

 ----------------------------------------------------------------------
 hf stability analysis of h10 triangular lattice, y= 1.0749229527178907
 ----------------------------------------------------------------------
 Symbolic Z-matrix:
 Charge =  0 Multiplicity = 1

                         Standard orientation:
 ---------------------------------------------------------------------
 Center     Atomic      Atomic             Coordinates (Angstroms)
 Number     Number       Type             X           Y           Z
 ---------------------------------------------------------------------
      1          1           0        1.921870    2.043802   -0.000000
      2          1           0        1.921870    0.842160   -0.000000
      3          1           0        0.960935    1.322312   -0.000000
      4          1           0        0.960935    0.120669   -0.000000
      5          1           0       -0.000000    0.600821   -0.000000
      6          1           0       -0.000000   -0.600821    0.000000
      7          1           0       -0.960935   -0.120669    0.000000
      8          1           0       -0.960935   -1.322312    0.000000
      9          1           0       -1.921870   -0.842160    0.000000
     10          1           0       -1.921870   -2.043802    0.000000
 ---------------------------------------------------------------------

 SCF Done:  E(RHF) =  -4.85394378641     A.U. after   10 cycles
 E2 =    -0.1164730546D+00 EUMP2 =    -0.49704168410345D+01

 The electronic state is 1-AG.
 Alpha  occ. eigenvalues --   -0.82573  -0.73706  -0.55301  -0.32380  -0.29115
 Alpha virt. eigenvalues --    0.01787   0.17436   0.24439   0.47557   0.58226

 Mulliken charges:
               1
     1  H   -0.061846
     2  H    0.134552
     3  H    0.113170
     4  H   -0.120124
     5  H   -0.065753
     6  H   -0.065753
     7  H   -0.120124
     8  H    0.113170
     9  H    0.134552
    10  H   -0.061846
 Sum of Mulliken charges =  -0.00000

 Dipole moment (field-independent basis, Debye):
    X=              0.0000    Y=             -0.0000    Z=              0.0000  Tot=              0.0000
 Quadrupole moment (field-independent basis, Debye-Ang):
   XX=            -12.6312   YY=            -14.7068   ZZ=            -13.0659
   XY=              0.4910   XZ=             -0.0000   YZ=              0.0000

 Normal termination of Gaussian 09 at Thu Feb  9 15:39:30 2017.
