 Gaussian 09, Revision E.01,
 Gaussian 09:  ES64L-G09RevE.01 30-Nov-2015

 ----------------------------------------------------------------------
 #rhf/gen scf(symm,tight,novaracc,noincfock,fulldiag) stable(crhf) geom
 =nocrowd test
 ----------------------------------------------------------------------

 hf stability analysis of h10 triangular lattice, y= 0.9979887501536832
 7
 ----------------------------------------------------------------------
 Symbolic Z-matrix:
 Charge =  0 Multiplicity = 1

                         Standard orientation:
 ---------------------------------------------------------------------
 Center     Atomic      Atomic             Coordinates (Angstroms)
 Number     Number       Type             X           Y           Z
 ---------------------------------------------------------------------
      1          1           0        2.002008    1.723332   -0.000000
      2          1           0        2.002008    0.569790   -0.000000
      3          1           0        1.001004    1.150052   -0.000000
      4          1           0        1.001004   -0.003491   -0.000000
      5          1           0       -0.000000    0.576771   -0.000000
      6          1           0       -0.000000   -0.576771    0.000000
      7          1           0       -1.001004    0.003491   -0.000000
      8          1           0       -1.001004   -1.150052   -0.000000
      9          1           0       -2.002008   -0.569790   -0.000000
     10          1           0       -2.002008   -1.723332   -0.000000
 ---------------------------------------------------------------------

 SCF Done:  E(RHF) =  -4.86789233927     A.U. after   10 cycles
 E2 =    -0.1130758444D+00 EUMP2 =    -0.49809681836716D+01

 The electronic state is 1-AG.
 Alpha  occ. eigenvalues --   -0.84228  -0.74025  -0.55113  -0.34067  -0.30818
 Alpha virt. eigenvalues --   -0.00170   0.22110   0.23766   0.55951   0.58592

 Mulliken charges:
               1
     1  H   -0.091415
     2  H    0.145759
     3  H    0.107585
     4  H   -0.120866
     5  H   -0.041063
     6  H   -0.041063
     7  H   -0.120866
     8  H    0.107585
     9  H    0.145759
    10  H   -0.091415
 Sum of Mulliken charges =  -0.00000

 Dipole moment (field-independent basis, Debye):
    X=             -0.0000    Y=              0.0000    Z=             -0.0000  Tot=              0.0000
 Quadrupole moment (field-independent basis, Debye-Ang):
   XX=            -13.6106   YY=            -15.4857   ZZ=            -12.9862
   XY=             -1.0481   XZ=              0.0000   YZ=              0.0000

 Normal termination of Gaussian 09 at Thu Feb  9 15:36:06 2017.
