 Gaussian 09, Revision E.01,
 Gaussian 09:  ES64L-G09RevE.01 30-Nov-2015

 ----------------------------------------------------------------------
 #rhf/gen scf(symm,tight,novaracc,noincfock,fulldiag) stable(crhf) geom
 =nocrowd test
 ----------------------------------------------------------------------

 hf stability analysis of h10 triangular lattice, y= 0.9455991146699473
 9
 ----------------------------------------------------------------------
 Symbolic Z-matrix:
 Charge =  0 Multiplicity = 1

                         Standard orientation:
 ---------------------------------------------------------------------
 Center     Atomic      Atomic             Coordinates (Angstroms)
 Number     Number       Type             X           Y           Z
 ---------------------------------------------------------------------
      1          1           0        2.051729    1.489185    0.000000
      2          1           0        2.051729    0.363597    0.000000
      3          1           0        1.025864    1.025989    0.000000
      4          1           0        1.025864   -0.099598    0.000000
      5          1           0        0.000000    0.562794    0.000000
      6          1           0       -0.000000   -0.562794    0.000000
      7          1           0       -1.025864    0.099598    0.000000
      8          1           0       -1.025864   -1.025989    0.000000
      9          1           0       -2.051729   -0.363597    0.000000
     10          1           0       -2.051729   -1.489185    0.000000
 ---------------------------------------------------------------------

 SCF Done:  E(RHF) =  -4.86633539012     A.U. after   10 cycles
 E2 =    -0.1124678445D+00 EUMP2 =    -0.49788032345960D+01

 The electronic state is 1-AG.
 Alpha  occ. eigenvalues --   -0.85110  -0.74046  -0.54913  -0.36489  -0.30210
 Alpha virt. eigenvalues --   -0.01400   0.22877   0.25643   0.54548   0.67701

 Mulliken charges:
               1
     1  H   -0.097193
     2  H    0.141565
     3  H    0.095583
     4  H   -0.115700
     5  H   -0.024255
     6  H   -0.024255
     7  H   -0.115700
     8  H    0.095583
     9  H    0.141565
    10  H   -0.097193
 Sum of Mulliken charges =  -0.00000

 Dipole moment (field-independent basis, Debye):
    X=             -0.0000    Y=             -0.0000    Z=              0.0000  Tot=              0.0000
 Quadrupole moment (field-independent basis, Debye-Ang):
   XX=            -14.3709   YY=            -15.3015   ZZ=            -12.9289
   XY=             -1.6662   XZ=              0.0000   YZ=              0.0000

 Normal termination of Gaussian 09 at Thu Feb  9 15:33:33 2017.
