 Gaussian 09, Revision E.01,
 Gaussian 09:  ES64L-G09RevE.01 30-Nov-2015

 ----------------------------------------------------------------------
 #rhf/gen scf(symm,tight,novaracc,noincfock,fulldiag) stable(crhf) geom
 =nocrowd test
 ----------------------------------------------------------------------

 ----------------------------------------------------------------------
 hf stability analysis of h10 triangular lattice, y= 1.7736219748641979
 ----------------------------------------------------------------------
 Symbolic Z-matrix:
 Charge =  0 Multiplicity = 1

                         Standard orientation:
 ---------------------------------------------------------------------
 Center     Atomic      Atomic             Coordinates (Angstroms)
 Number     Number       Type             X           Y           Z
 ---------------------------------------------------------------------
      1          1           0        1.280691    4.273066    0.000000
      2          1           0        1.280691    2.469819    0.000000
      3          1           0        0.640345    2.587345    0.000000
      4          1           0        0.640345    0.784098    0.000000
      5          1           0        0.000000    0.901623    0.000000
      6          1           0       -0.000000   -0.901623   -0.000000
      7          1           0       -0.640345   -0.784098   -0.000000
      8          1           0       -0.640345   -2.587345   -0.000000
      9          1           0       -1.280691   -2.469819   -0.000000
     10          1           0       -1.280691   -4.273066   -0.000000
 ---------------------------------------------------------------------

 SCF Done:  E(RHF) =  -4.90772074562     A.U. after    7 cycles
 E2 =    -0.6729285010D+00 EUMP2 =    -0.55806492466067D+01

 The electronic state is 1-AG.
 Alpha  occ. eigenvalues --   -0.74172  -0.70268  -0.64010  -0.56814  -0.18608
 Alpha virt. eigenvalues --   -0.12397   0.32919   0.41379   0.54061   0.66497

 Mulliken charges:
               1
     1  H   -0.024128
     2  H    0.008801
     3  H    0.010646
     4  H    0.000900
     5  H    0.003782
     6  H    0.003782
     7  H    0.000900
     8  H    0.010646
     9  H    0.008801
    10  H   -0.024128
 Sum of Mulliken charges =   0.00000

 Dipole moment (field-independent basis, Debye):
    X=              0.0000    Y=              0.0000    Z=              0.0000  Tot=              0.0000
 Quadrupole moment (field-independent basis, Debye-Ang):
   XX=            -12.3752   YY=            -20.0336   ZZ=            -13.1181
   XY=             -2.3592   XZ=             -0.0000   YZ=             -0.0000

 Normal termination of Gaussian 09 at Thu Feb  9 15:55:10 2017.
