 Gaussian 09, Revision E.01,
 Gaussian 09:  ES64L-G09RevE.01 30-Nov-2015

 ----------------------------------------------------------------------
 #rhf/gen scf(symm,tight,novaracc,noincfock,fulldiag) stable(crhf) geom
 =nocrowd test
 ----------------------------------------------------------------------

 ----------------------------------------------------------------------
 hf stability analysis of h10 triangular lattice, y= 1.8426822171706256
 ----------------------------------------------------------------------
 Symbolic Z-matrix:
 Charge =  0 Multiplicity = 1

                         Standard orientation:
 ---------------------------------------------------------------------
 Center     Atomic      Atomic             Coordinates (Angstroms)
 Number     Number       Type             X           Y           Z
 ---------------------------------------------------------------------
      1          1           0        1.235549    4.462739    0.000000
      2          1           0        1.235549    2.593609    0.000000
      3          1           0        0.617774    2.698652    0.000000
      4          1           0        0.617774    0.829522    0.000000
      5          1           0        0.000000    0.934565    0.000000
      6          1           0       -0.000000   -0.934565    0.000000
      7          1           0       -0.617774   -0.829522    0.000000
      8          1           0       -0.617774   -2.698652    0.000000
      9          1           0       -1.235549   -2.593609    0.000000
     10          1           0       -1.235549   -4.462739    0.000000
 ---------------------------------------------------------------------

 SCF Done:  E(RHF) =  -4.88470124922     A.U. after    7 cycles
 E2 =    -0.7205671356D+00 EUMP2 =    -0.56052683848547D+01

 The electronic state is 1-AG.
 Alpha  occ. eigenvalues --   -0.73790  -0.70339  -0.64871  -0.58759  -0.19130
 Alpha virt. eigenvalues --   -0.13244   0.35867   0.43832   0.55682   0.67215

 Mulliken charges:
               1
     1  H   -0.015219
     2  H    0.006105
     3  H    0.006475
     4  H    0.000249
     5  H    0.002390
     6  H    0.002390
     7  H    0.000249
     8  H    0.006475
     9  H    0.006105
    10  H   -0.015219
 Sum of Mulliken charges =   0.00000

 Dipole moment (field-independent basis, Debye):
    X=              0.0000    Y=              0.0000    Z=             -0.0000  Tot=              0.0000
 Quadrupole moment (field-independent basis, Debye-Ang):
   XX=            -12.3273   YY=            -18.8821   ZZ=            -13.1717
   XY=             -1.8311   XZ=              0.0000   YZ=              0.0000

 Normal termination of Gaussian 09 at Thu Feb  9 15:55:53 2017.
