 Gaussian 09, Revision E.01,
 Gaussian 09:  ES64L-G09RevE.01 30-Nov-2015

 ----------------------------------------------------------------------
 #rhf/gen scf(symm,tight,novaracc,noincfock,fulldiag) stable(crhf) geom
 =nocrowd test
 ----------------------------------------------------------------------

 hf stability analysis of h10 triangular lattice, y= 0.9492334587348514
 3
 ----------------------------------------------------------------------
 Symbolic Z-matrix:
 Charge =  0 Multiplicity = 1

                         Standard orientation:
 ---------------------------------------------------------------------
 Center     Atomic      Atomic             Coordinates (Angstroms)
 Number     Number       Type             X           Y           Z
 ---------------------------------------------------------------------
      1          1           0        2.048468    1.505880   -0.000000
      2          1           0        2.048468    0.378500   -0.000000
      3          1           0        1.024234    1.034785   -0.000000
      4          1           0        1.024234   -0.092595   -0.000000
      5          1           0       -0.000000    0.563690    0.000000
      6          1           0       -0.000000   -0.563690    0.000000
      7          1           0       -1.024234    0.092595   -0.000000
      8          1           0       -1.024234   -1.034785   -0.000000
      9          1           0       -2.048468   -0.378500   -0.000000
     10          1           0       -2.048468   -1.505880   -0.000000
 ---------------------------------------------------------------------

 SCF Done:  E(RHF) =  -4.86668319350     A.U. after   10 cycles
 E2 =    -0.1124644014D+00 EUMP2 =    -0.49791475948956D+01

 The electronic state is 1-AG.
 Alpha  occ. eigenvalues --   -0.85056  -0.74049  -0.54928  -0.36330  -0.30257
 Alpha virt. eigenvalues --   -0.01322   0.22941   0.25397   0.54640   0.67044

 Mulliken charges:
               1
     1  H   -0.097262
     2  H    0.142230
     3  H    0.096700
     4  H   -0.116248
     5  H   -0.025420
     6  H   -0.025420
     7  H   -0.116248
     8  H    0.096700
     9  H    0.142230
    10  H   -0.097262
 Sum of Mulliken charges =   0.00000

 Dipole moment (field-independent basis, Debye):
    X=             -0.0000    Y=              0.0000    Z=             -0.0000  Tot=              0.0000
 Quadrupole moment (field-independent basis, Debye-Ang):
   XX=            -14.3175   YY=            -15.3296   ZZ=            -12.9328
   XY=             -1.6374   XZ=             -0.0000   YZ=             -0.0000

 Normal termination of Gaussian 09 at Thu Feb  9 15:33:44 2017.
