 Gaussian 09, Revision E.01,
 Gaussian 09:  ES64L-G09RevE.01 30-Nov-2015

 ----------------------------------------------------------------------
 #rhf/gen scf(symm,tight,novaracc,noincfock,fulldiag) stable(crhf) geom
 =nocrowd test
 ----------------------------------------------------------------------

 hf stability analysis of h10 triangular lattice, y= 0.8996750916440937
 6
 ----------------------------------------------------------------------
 Symbolic Z-matrix:
 Charge =  0 Multiplicity = 1

                         Standard orientation:
 ---------------------------------------------------------------------
 Center     Atomic      Atomic             Coordinates (Angstroms)
 Number     Number       Type             X           Y           Z
 ---------------------------------------------------------------------
      1          1           0        2.089776    1.272115    0.000000
      2          1           0        2.089776    0.167020    0.000000
      3          1           0        1.044888    0.912331    0.000000
      4          1           0        1.044888   -0.192764    0.000000
      5          1           0        0.000000    0.552548    0.000000
      6          1           0       -0.000000   -0.552548   -0.000000
      7          1           0       -1.044888    0.192764    0.000000
      8          1           0       -1.044888   -0.912331    0.000000
      9          1           0       -2.089776   -0.167020    0.000000
     10          1           0       -2.089776   -1.272115    0.000000
 ---------------------------------------------------------------------

 SCF Done:  E(RHF) =  -4.85966859010     A.U. after   10 cycles
 E2 =    -0.1130428127D+00 EUMP2 =    -0.49727114027766D+01

 The electronic state is 1-AG.
 Alpha  occ. eigenvalues --   -0.85691  -0.73947  -0.54718  -0.38295  -0.29612
 Alpha virt. eigenvalues --   -0.02260   0.22080   0.28670   0.53469   0.76062

 Mulliken charges:
               1
     1  H   -0.089371
     2  H    0.127675
     3  H    0.077150
     4  H   -0.105736
     5  H   -0.009718
     6  H   -0.009718
     7  H   -0.105736
     8  H    0.077150
     9  H    0.127675
    10  H   -0.089371
 Sum of Mulliken charges =  -0.00000

 Dipole moment (field-independent basis, Debye):
    X=             -0.0000    Y=              0.0000    Z=              0.0000  Tot=              0.0000
 Quadrupole moment (field-independent basis, Debye-Ang):
   XX=            -15.0303   YY=            -14.8009   ZZ=            -12.8803
   XY=             -1.8252   XZ=              0.0000   YZ=              0.0000

 Normal termination of Gaussian 09 at Thu Feb  9 15:31:14 2017.
