 Gaussian 09, Revision E.01,
 Gaussian 09:  ES64L-G09RevE.01 30-Nov-2015

 ----------------------------------------------------------------------
 #rhf/gen scf(symm,tight,novaracc,noincfock,fulldiag) stable(crhf) geom
 =nocrowd test
 ----------------------------------------------------------------------

 ----------------------------------------------------------------------
 hf stability analysis of h10 triangular lattice, y= 1.2328363494960013
 ----------------------------------------------------------------------
 Symbolic Z-matrix:
 Charge =  0 Multiplicity = 1

                         Standard orientation:
 ---------------------------------------------------------------------
 Center     Atomic      Atomic             Coordinates (Angstroms)
 Number     Number       Type             X           Y           Z
 ---------------------------------------------------------------------
      1          1           0        1.751155    2.631767    0.000000
      2          1           0        1.751155    1.312980    0.000000
      3          1           0        0.875578    1.645580    0.000000
      4          1           0        0.875578    0.326793    0.000000
      5          1           0        0.000000    0.659394    0.000000
      6          1           0       -0.000000   -0.659394    0.000000
      7          1           0       -0.875578   -0.326793   -0.000000
      8          1           0       -0.875578   -1.645580   -0.000000
      9          1           0       -1.751155   -1.312980   -0.000000
     10          1           0       -1.751155   -2.631767   -0.000000
 ---------------------------------------------------------------------

 SCF Done:  E(RHF) =  -4.75990432039     A.U. after   11 cycles
 E2 =    -0.1309439307D+00 EUMP2 =    -0.48908482511297D+01

 The electronic state is 1-AG.
 Alpha  occ. eigenvalues --   -0.78357  -0.72132  -0.55164  -0.34152  -0.18658
 Alpha virt. eigenvalues --    0.01729   0.14839   0.17776   0.39849   0.63149

 Mulliken charges:
               1
     1  H    0.041627
     2  H    0.059422
     3  H    0.114277
     4  H   -0.083423
     5  H   -0.131904
     6  H   -0.131904
     7  H   -0.083423
     8  H    0.114277
     9  H    0.059422
    10  H    0.041627
 Sum of Mulliken charges =   0.00000

 Dipole moment (field-independent basis, Debye):
    X=              0.0000    Y=              0.0000    Z=             -0.0000  Tot=              0.0000
 Quadrupole moment (field-independent basis, Debye-Ang):
   XX=            -11.5609   YY=             -8.6245   ZZ=            -13.1843
   XY=              4.6701   XZ=              0.0000   YZ=              0.0000

 Normal termination of Gaussian 09 at Thu Feb  9 15:45:07 2017.
