 Gaussian 09, Revision E.01,
 Gaussian 09:  ES64L-G09RevE.01 30-Nov-2015

 ----------------------------------------------------------------------
 #rhf/gen scf(symm,tight,novaracc,noincfock,fulldiag) stable(crhf) geom
 =nocrowd test
 ----------------------------------------------------------------------

 ----------------------------------------------------------------------
 hf stability analysis of h10 triangular lattice, y= 1.4861289010746450
 ----------------------------------------------------------------------
 Symbolic Z-matrix:
 Charge =  0 Multiplicity = 1

                         Standard orientation:
 ---------------------------------------------------------------------
 Center     Atomic      Atomic             Coordinates (Angstroms)
 Number     Number       Type             X           Y           Z
 ---------------------------------------------------------------------
      1          1           0        1.503450    3.447150    0.000000
      2          1           0        1.503450    1.911082    0.000000
      3          1           0        0.751725    2.107592    0.000000
      4          1           0        0.751725    0.571524    0.000000
      5          1           0        0.000000    0.768034    0.000000
      6          1           0       -0.000000   -0.768034   -0.000000
      7          1           0       -0.751725   -0.571524   -0.000000
      8          1           0       -0.751725   -2.107592   -0.000000
      9          1           0       -1.503450   -1.911082   -0.000000
     10          1           0       -1.503450   -3.447150   -0.000000
 ---------------------------------------------------------------------

 SCF Done:  E(RHF) =  -4.87602410500     A.U. after    9 cycles
 E2 =    -0.3990132590D+00 EUMP2 =    -0.52750373640006D+01

 The electronic state is 1-AG.
 Alpha  occ. eigenvalues --   -0.78292  -0.71547  -0.60988  -0.47770  -0.14475
 Alpha virt. eigenvalues --   -0.05370   0.18071   0.29223   0.45553   0.61293

 Mulliken charges:
               1
     1  H   -0.125653
     2  H    0.033193
     3  H    0.053428
     4  H    0.015792
     5  H    0.023240
     6  H    0.023240
     7  H    0.015792
     8  H    0.053428
     9  H    0.033193
    10  H   -0.125653
 Sum of Mulliken charges =   0.00000

 Dipole moment (field-independent basis, Debye):
    X=              0.0000    Y=              0.0000    Z=              0.0000  Tot=              0.0000
 Quadrupole moment (field-independent basis, Debye-Ang):
   XX=            -13.9922   YY=            -28.1829   ZZ=            -12.8953
   XY=             -7.1828   XZ=             -0.0000   YZ=             -0.0000

 Normal termination of Gaussian 09 at Thu Feb  9 15:51:05 2017.
