 Gaussian 09, Revision E.01,
 Gaussian 09:  ES64L-G09RevE.01 30-Nov-2015

 ----------------------------------------------------------------------
 #rhf/gen scf(symm,tight,novaracc,noincfock,fulldiag) stable(crhf) geom
 =nocrowd test
 ----------------------------------------------------------------------

 hf stability analysis of h10 triangular lattice, y= 0.9870686609978258
 6
 ----------------------------------------------------------------------
 Symbolic Z-matrix:
 Charge =  0 Multiplicity = 1

                         Standard orientation:
 ---------------------------------------------------------------------
 Center     Atomic      Atomic             Coordinates (Angstroms)
 Number     Number       Type             X           Y           Z
 ---------------------------------------------------------------------
      1          1           0        2.012800    1.675655   -0.000000
      2          1           0        2.012800    0.528297   -0.000000
      3          1           0        1.006400    1.124667   -0.000000
      4          1           0        1.006400   -0.022691   -0.000000
      5          1           0       -0.000000    0.573679    0.000000
      6          1           0       -0.000000   -0.573679   -0.000000
      7          1           0       -1.006400    0.022691   -0.000000
      8          1           0       -1.006400   -1.124667   -0.000000
      9          1           0       -2.012800   -0.528297   -0.000000
     10          1           0       -2.012800   -1.675655   -0.000000
 ---------------------------------------------------------------------

 SCF Done:  E(RHF) =  -4.86823002900     A.U. after   10 cycles
 E2 =    -0.1128314413D+00 EUMP2 =    -0.49810614702949D+01

 The electronic state is 1-AG.
 Alpha  occ. eigenvalues --   -0.84430  -0.74042  -0.55075  -0.34587  -0.30712
 Alpha virt. eigenvalues --   -0.00443   0.22838   0.23593   0.55647   0.60413

 Mulliken charges:
               1
     1  H   -0.093744
     2  H    0.145786
     3  H    0.105757
     4  H   -0.120234
     5  H   -0.037565
     6  H   -0.037565
     7  H   -0.120234
     8  H    0.105757
     9  H    0.145786
    10  H   -0.093744
 Sum of Mulliken charges =  -0.00000

 Dipole moment (field-independent basis, Debye):
    X=             -0.0000    Y=             -0.0000    Z=             -0.0000  Tot=              0.0000
 Quadrupole moment (field-independent basis, Debye-Ang):
   XX=            -13.7656   YY=            -15.4898   ZZ=            -12.9743
   XY=             -1.2108   XZ=              0.0000   YZ=              0.0000

 Normal termination of Gaussian 09 at Thu Feb  9 15:35:32 2017.
