 Gaussian 09, Revision E.01,
 Gaussian 09:  ES64L-G09RevE.01 30-Nov-2015

 ----------------------------------------------------------------------
 #rhf/gen scf(symm,tight,novaracc,noincfock,fulldiag) stable(crhf) geom
 =nocrowd test
 ----------------------------------------------------------------------

 ----------------------------------------------------------------------
 hf stability analysis of h10 triangular lattice, y= 1.2344594529595776
 ----------------------------------------------------------------------
 Symbolic Z-matrix:
 Charge =  0 Multiplicity = 1

                         Standard orientation:
 ---------------------------------------------------------------------
 Center     Atomic      Atomic             Coordinates (Angstroms)
 Number     Number       Type             X           Y           Z
 ---------------------------------------------------------------------
      1          1           0        1.749432    2.637416   -0.000000
      2          1           0        1.749432    1.317329   -0.000000
      3          1           0        0.874716    1.648730   -0.000000
      4          1           0        0.874716    0.328643   -0.000000
      5          1           0        0.000000    0.660043    0.000000
      6          1           0       -0.000000   -0.660043    0.000000
      7          1           0       -0.874716   -0.328643   -0.000000
      8          1           0       -0.874716   -1.648730   -0.000000
      9          1           0       -1.749432   -1.317329   -0.000000
     10          1           0       -1.749432   -2.637416   -0.000000
 ---------------------------------------------------------------------

 SCF Done:  E(RHF) =  -4.75855139931     A.U. after   11 cycles
 E2 =    -0.1311460869D+00 EUMP2 =    -0.48896974862051D+01

 The electronic state is 1-AG.
 Alpha  occ. eigenvalues --   -0.78311  -0.72111  -0.55159  -0.34174  -0.18542
 Alpha virt. eigenvalues --    0.01679   0.14883   0.17658   0.39863   0.63198

 Mulliken charges:
               1
     1  H    0.042812
     2  H    0.058078
     3  H    0.114554
     4  H   -0.082433
     5  H   -0.133010
     6  H   -0.133010
     7  H   -0.082433
     8  H    0.114554
     9  H    0.058078
    10  H    0.042812
 Sum of Mulliken charges =  -0.00000

 Dipole moment (field-independent basis, Debye):
    X=             -0.0000    Y=             -0.0000    Z=             -0.0000  Tot=              0.0000
 Quadrupole moment (field-independent basis, Debye-Ang):
   XX=            -11.5603   YY=             -8.5341   ZZ=            -13.1849
   XY=              4.7095   XZ=             -0.0000   YZ=             -0.0000

 Normal termination of Gaussian 09 at Thu Feb  9 15:45:10 2017.
