 Gaussian 09, Revision E.01,
 Gaussian 09:  ES64L-G09RevE.01 30-Nov-2015

 ----------------------------------------------------------------------
 #rhf/gen scf(symm,tight,novaracc,noincfock,fulldiag) stable(crhf) geom
 =nocrowd test
 ----------------------------------------------------------------------

 ----------------------------------------------------------------------
 hf stability analysis of h10 triangular lattice, y= 1.0977354261044516
 ----------------------------------------------------------------------
 Symbolic Z-matrix:
 Charge =  0 Multiplicity = 1

                         Standard orientation:
 ---------------------------------------------------------------------
 Center     Atomic      Atomic             Coordinates (Angstroms)
 Number     Number       Type             X           Y           Z
 ---------------------------------------------------------------------
      1          1           0        1.897263    2.134053   -0.000000
      2          1           0        1.897263    0.916825   -0.000000
      3          1           0        0.948632    1.371333   -0.000000
      4          1           0        0.948632    0.154106   -0.000000
      5          1           0        0.000000    0.608614   -0.000000
      6          1           0       -0.000000   -0.608614   -0.000000
      7          1           0       -0.948632   -0.154106   -0.000000
      8          1           0       -0.948632   -1.371333   -0.000000
      9          1           0       -1.897263   -0.916825   -0.000000
     10          1           0       -1.897263   -2.134053   -0.000000
 ---------------------------------------------------------------------

 SCF Done:  E(RHF) =  -4.84568202479     A.U. after   10 cycles
 E2 =    -0.1179943628D+00 EUMP2 =    -0.49636763875374D+01

 The electronic state is 1-AG.
 Alpha  occ. eigenvalues --   -0.82016  -0.73548  -0.55325  -0.32583  -0.27770
 Alpha virt. eigenvalues --    0.02286   0.16310   0.24288   0.45076   0.58931

 Mulliken charges:
               1
     1  H   -0.049569
     2  H    0.128067
     3  H    0.113118
     4  H   -0.118347
     5  H   -0.073270
     6  H   -0.073270
     7  H   -0.118347
     8  H    0.113118
     9  H    0.128067
    10  H   -0.049569
 Sum of Mulliken charges =  -0.00000

 Dipole moment (field-independent basis, Debye):
    X=             -0.0000    Y=             -0.0000    Z=             -0.0000  Tot=              0.0000
 Quadrupole moment (field-independent basis, Debye-Ang):
   XX=            -12.3889   YY=            -14.2039   ZZ=            -13.0876
   XY=              1.0485   XZ=              0.0000   YZ=              0.0000

 Normal termination of Gaussian 09 at Thu Feb  9 15:40:26 2017.
