 Gaussian 09, Revision E.01,
 Gaussian 09:  ES64L-G09RevE.01 30-Nov-2015

 ----------------------------------------------------------------------
 #rhf/gen scf(symm,tight,novaracc,noincfock,fulldiag) stable(crhf) geom
 =nocrowd test
 ----------------------------------------------------------------------

 ----------------------------------------------------------------------
 hf stability analysis of h10 triangular lattice, y= 1.5877166265597418
 ----------------------------------------------------------------------
 Symbolic Z-matrix:
 Charge =  0 Multiplicity = 1

                         Standard orientation:
 ---------------------------------------------------------------------
 Center     Atomic      Atomic             Coordinates (Angstroms)
 Number     Number       Type             X           Y           Z
 ---------------------------------------------------------------------
      1          1           0        1.417832    3.747339    0.000000
      2          1           0        1.417832    2.118513    0.000000
      3          1           0        0.708916    2.280876    0.000000
      4          1           0        0.708916    0.652050    0.000000
      5          1           0        0.000000    0.814413    0.000000
      6          1           0       -0.000000   -0.814413    0.000000
      7          1           0       -0.708916   -0.652050   -0.000000
      8          1           0       -0.708916   -2.280876   -0.000000
      9          1           0       -1.417832   -2.118513   -0.000000
     10          1           0       -1.417832   -3.747339   -0.000000
 ---------------------------------------------------------------------

 SCF Done:  E(RHF) =  -4.91332003925     A.U. after    8 cycles
 E2 =    -0.5088368312D+00 EUMP2 =    -0.54221568704913D+01

 The electronic state is 1-AG.
 Alpha  occ. eigenvalues --   -0.76234  -0.70729  -0.61900  -0.51071  -0.16347
 Alpha virt. eigenvalues --   -0.08704   0.23898   0.33931   0.48954   0.63715

 Mulliken charges:
               1
     1  H   -0.073823
     2  H    0.021775
     3  H    0.032115
     4  H    0.007033
     5  H    0.012899
     6  H    0.012899
     7  H    0.007033
     8  H    0.032115
     9  H    0.021775
    10  H   -0.073823
 Sum of Mulliken charges =   0.00000

 Dipole moment (field-independent basis, Debye):
    X=             -0.0000    Y=             -0.0000    Z=              0.0000  Tot=              0.0000
 Quadrupole moment (field-independent basis, Debye-Ang):
   XX=            -13.0193   YY=            -24.7216   ZZ=            -12.9710
   XY=             -4.8606   XZ=             -0.0000   YZ=             -0.0000

 Normal termination of Gaussian 09 at Thu Feb  9 15:52:46 2017.
