 Gaussian 09, Revision E.01,
 Gaussian 09:  ES64L-G09RevE.01 30-Nov-2015

 ----------------------------------------------------------------------
 #rhf/gen scf(symm,tight,novaracc,noincfock,fulldiag) stable(crhf) geom
 =nocrowd test
 ----------------------------------------------------------------------

 hf stability analysis of h10 triangular lattice, y= 0.9920029105047211
 1
 ----------------------------------------------------------------------
 Symbolic Z-matrix:
 Charge =  0 Multiplicity = 1

                         Standard orientation:
 ---------------------------------------------------------------------
 Center     Atomic      Atomic             Coordinates (Angstroms)
 Number     Number       Type             X           Y           Z
 ---------------------------------------------------------------------
      1          1           0        2.007948    1.697269   -0.000000
      2          1           0        2.007948    0.547139   -0.000000
      3          1           0        1.003974    1.136167   -0.000000
      4          1           0        1.003974   -0.013963    0.000000
      5          1           0       -0.000000    0.575065   -0.000000
      6          1           0       -0.000000   -0.575065    0.000000
      7          1           0       -1.003974    0.013963   -0.000000
      8          1           0       -1.003974   -1.136167   -0.000000
      9          1           0       -2.007948   -0.547139   -0.000000
     10          1           0       -2.007948   -1.697269   -0.000000
 ---------------------------------------------------------------------

 SCF Done:  E(RHF) =  -4.86812411180     A.U. after   10 cycles
 E2 =    -0.1129342074D+00 EUMP2 =    -0.49810583191618D+01

 The electronic state is 1-AG.
 Alpha  occ. eigenvalues --   -0.84340  -0.74035  -0.55092  -0.34352  -0.30762
 Alpha virt. eigenvalues --   -0.00320   0.22508   0.23672   0.55784   0.59584

 Mulliken charges:
               1
     1  H   -0.092759
     2  H    0.145829
     3  H    0.106623
     4  H   -0.120546
     5  H   -0.039146
     6  H   -0.039146
     7  H   -0.120546
     8  H    0.106623
     9  H    0.145829
    10  H   -0.092759
 Sum of Mulliken charges =  -0.00000

 Dipole moment (field-independent basis, Debye):
    X=              0.0000    Y=             -0.0000    Z=             -0.0000  Tot=              0.0000
 Quadrupole moment (field-independent basis, Debye-Ang):
   XX=            -13.6952   YY=            -15.4909   ZZ=            -12.9796
   XY=             -1.1393   XZ=              0.0000   YZ=              0.0000

 Normal termination of Gaussian 09 at Thu Feb  9 15:35:48 2017.
