 Gaussian 09, Revision E.01,
 Gaussian 09:  ES64L-G09RevE.01 30-Nov-2015

 ----------------------------------------------------------------------
 #rhf/gen scf(symm,tight,novaracc,noincfock,fulldiag) stable(crhf) geom
 =nocrowd test
 ----------------------------------------------------------------------

 hf stability analysis of h10 triangular lattice, y= 0.8128126101135343
 4
 ----------------------------------------------------------------------
 Symbolic Z-matrix:
 Charge =  0 Multiplicity = 1

                         Standard orientation:
 ---------------------------------------------------------------------
 Center     Atomic      Atomic             Coordinates (Angstroms)
 Number     Number       Type             X           Y           Z
 ---------------------------------------------------------------------
      1          1           0        2.139429    0.828986    0.000000
      2          1           0        2.139429   -0.250462    0.000000
      3          1           0        1.069714    0.684355    0.000000
      4          1           0        1.069714   -0.395093    0.000000
      5          1           0        0.000000    0.539724    0.000000
      6          1           0       -0.000000   -0.539724    0.000000
      7          1           0       -1.069714    0.395093    0.000000
      8          1           0       -1.069714   -0.684355    0.000000
      9          1           0       -2.139429    0.250462    0.000000
     10          1           0       -2.139429   -0.828986    0.000000
 ---------------------------------------------------------------------

 SCF Done:  E(RHF) =  -4.87837288018     A.U. after   10 cycles
 E2 =    -0.1055001451D+00 EUMP2 =    -0.49838730252941D+01

 The electronic state is 1-AG.
 Alpha  occ. eigenvalues --   -0.87557  -0.74405  -0.52723  -0.46392  -0.30741
 Alpha virt. eigenvalues --   -0.01831   0.15964   0.35596   0.51881   0.87536

 Mulliken charges:
               1
     1  H    0.081435
     2  H   -0.001914
     3  H   -0.031701
     4  H   -0.035015
     5  H   -0.012804
     6  H   -0.012804
     7  H   -0.035015
     8  H   -0.031701
     9  H   -0.001914
    10  H    0.081435
 Sum of Mulliken charges =   0.00000

 Dipole moment (field-independent basis, Debye):
    X=              0.0000    Y=             -0.0000    Z=              0.0000  Tot=              0.0000
 Quadrupole moment (field-independent basis, Debye-Ang):
   XX=            -10.2040   YY=            -17.0294   ZZ=            -12.9573
   XY=              1.9703   XZ=             -0.0000   YZ=             -0.0000

 Normal termination of Gaussian 09 at Thu Feb  9 15:26:20 2017.
