 Gaussian 09, Revision E.01,
 Gaussian 09:  ES64L-G09RevE.01 30-Nov-2015

 ----------------------------------------------------------------------
 #rhf/gen scf(symm,tight,novaracc,noincfock,fulldiag) stable(crhf) geom
 =nocrowd test
 ----------------------------------------------------------------------

 hf stability analysis of h10 triangular lattice, y= 0.8250988443502007
 6
 ----------------------------------------------------------------------
 Symbolic Z-matrix:
 Charge =  0 Multiplicity = 1

                         Standard orientation:
 ---------------------------------------------------------------------
 Center     Atomic      Atomic             Coordinates (Angstroms)
 Number     Number       Type             X           Y           Z
 ---------------------------------------------------------------------
      1          1           0        2.134662    0.894320    0.000000
      2          1           0        2.134662   -0.187538    0.000000
      3          1           0        1.067331    0.717624    0.000000
      4          1           0        1.067331   -0.364233    0.000000
      5          1           0       -0.000000    0.540929    0.000000
      6          1           0       -0.000000   -0.540929    0.000000
      7          1           0       -1.067331    0.364233    0.000000
      8          1           0       -1.067331   -0.717624    0.000000
      9          1           0       -2.134662    0.187538    0.000000
     10          1           0       -2.134662   -0.894320    0.000000
 ---------------------------------------------------------------------

 SCF Done:  E(RHF) =  -4.87423398658     A.U. after   10 cycles
 E2 =    -0.1057689994D+00 EUMP2 =    -0.49800029859359D+01

 The electronic state is 1-AG.
 Alpha  occ. eigenvalues --   -0.87452  -0.74344  -0.52762  -0.46154  -0.30505
 Alpha virt. eigenvalues --   -0.02079   0.16264   0.35025   0.52145   0.86191

 Mulliken charges:
               1
     1  H    0.090043
     2  H   -0.011267
     3  H   -0.030994
     4  H   -0.035709
     5  H   -0.012073
     6  H   -0.012073
     7  H   -0.035709
     8  H   -0.030994
     9  H   -0.011267
    10  H    0.090043
 Sum of Mulliken charges =  -0.00000

 Dipole moment (field-independent basis, Debye):
    X=              0.0000    Y=             -0.0000    Z=              0.0000  Tot=              0.0000
 Quadrupole moment (field-independent basis, Debye-Ang):
   XX=            -10.2742   YY=            -16.8432   ZZ=            -12.9587
   XY=              2.3963   XZ=              0.0000   YZ=              0.0000

 Normal termination of Gaussian 09 at Thu Feb  9 15:27:06 2017.
