 Gaussian 09, Revision E.01,
 Gaussian 09:  ES64L-G09RevE.01 30-Nov-2015

 ----------------------------------------------------------------------
 #rhf/gen scf(symm,tight,novaracc,noincfock,fulldiag) stable(crhf) geom
 =nocrowd test
 ----------------------------------------------------------------------

 ----------------------------------------------------------------------
 hf stability analysis of h10 triangular lattice, y= 1.3429973740177321
 ----------------------------------------------------------------------
 Symbolic Z-matrix:
 Charge =  0 Multiplicity = 1

                         Standard orientation:
 ---------------------------------------------------------------------
 Center     Atomic      Atomic             Coordinates (Angstroms)
 Number     Number       Type             X           Y           Z
 ---------------------------------------------------------------------
      1          1           0        1.637728    3.001072    0.000000
      2          1           0        1.637728    1.590947    0.000000
      3          1           0        0.818864    1.853067    0.000000
      4          1           0        0.818864    0.442942    0.000000
      5          1           0       -0.000000    0.705063   -0.000000
      6          1           0       -0.000000   -0.705063   -0.000000
      7          1           0       -0.818864   -0.442942   -0.000000
      8          1           0       -0.818864   -1.853067   -0.000000
      9          1           0       -1.637728   -1.590947   -0.000000
     10          1           0       -1.637728   -3.001072   -0.000000
 ---------------------------------------------------------------------

 SCF Done:  E(RHF) =  -4.77275778744     A.U. after   11 cycles
 E2 =    -0.2439402737D+00 EUMP2 =    -0.50166980611280D+01

 The electronic state is 1-AG.
 Alpha  occ. eigenvalues --   -0.82297  -0.73385  -0.59909  -0.42891  -0.11550
 Alpha virt. eigenvalues --    0.00985   0.09526   0.22011   0.40165   0.56646

 Mulliken charges:
               1
     1  H   -0.227543
     2  H    0.048945
     3  H    0.104748
     4  H    0.033489
     5  H    0.040361
     6  H    0.040361
     7  H    0.033489
     8  H    0.104748
     9  H    0.048945
    10  H   -0.227543
 Sum of Mulliken charges =  -0.00000

 Dipole moment (field-independent basis, Debye):
    X=              0.0000    Y=             -0.0000    Z=              0.0000  Tot=              0.0000
 Quadrupole moment (field-independent basis, Debye-Ang):
   XX=            -16.6119   YY=            -31.9738   ZZ=            -12.8051
   XY=            -11.1819   XZ=             -0.0000   YZ=             -0.0000

 Normal termination of Gaussian 09 at Thu Feb  9 15:48:06 2017.
