 Gaussian 09, Revision E.01,
 Gaussian 09:  ES64L-G09RevE.01 30-Nov-2015

 ----------------------------------------------------------------------
 #rhf/gen scf(symm,tight,novaracc,noincfock,fulldiag) stable(crhf) geom
 =nocrowd test
 ----------------------------------------------------------------------

 ----------------------------------------------------------------------
 hf stability analysis of h10 triangular lattice, y= 1.8776764422526515
 ----------------------------------------------------------------------
 Symbolic Z-matrix:
 Charge =  0 Multiplicity = 1

                         Standard orientation:
 ---------------------------------------------------------------------
 Center     Atomic      Atomic             Coordinates (Angstroms)
 Number     Number       Type             X           Y           Z
 ---------------------------------------------------------------------
      1          1           0        1.213759    4.557954    0.000000
      2          1           0        1.213759    2.655268    0.000000
      3          1           0        0.606879    2.754649    0.000000
      4          1           0        0.606879    0.851963    0.000000
      5          1           0        0.000000    0.951343    0.000000
      6          1           0       -0.000000   -0.951343    0.000000
      7          1           0       -0.606879   -0.851963    0.000000
      8          1           0       -0.606879   -2.754649    0.000000
      9          1           0       -1.213759   -2.655268    0.000000
     10          1           0       -1.213759   -4.557954    0.000000
 ---------------------------------------------------------------------

 SCF Done:  E(RHF) =  -4.86934306473     A.U. after    7 cycles
 E2 =    -0.7426028063D+00 EUMP2 =    -0.56119458709817D+01

 The electronic state is 1-AG.
 Alpha  occ. eigenvalues --   -0.73649  -0.70408  -0.65310  -0.59694  -0.19345
 Alpha virt. eigenvalues --   -0.13601   0.37300   0.45025   0.56463   0.67546

 Mulliken charges:
               1
     1  H   -0.011891
     2  H    0.005042
     3  H    0.004884
     4  H    0.000064
     5  H    0.001902
     6  H    0.001902
     7  H    0.000064
     8  H    0.004884
     9  H    0.005042
    10  H   -0.011891
 Sum of Mulliken charges =  -0.00000

 Dipole moment (field-independent basis, Debye):
    X=              0.0000    Y=              0.0000    Z=              0.0000  Tot=              0.0000
 Quadrupole moment (field-independent basis, Debye-Ang):
   XX=            -12.3229   YY=            -18.3924   ZZ=            -13.1980
   XY=             -1.6169   XZ=              0.0000   YZ=              0.0000

 Normal termination of Gaussian 09 at Thu Feb  9 15:56:13 2017.
