 Gaussian 09, Revision E.01,
 Gaussian 09:  ES64L-G09RevE.01 30-Nov-2015

 ----------------------------------------------------------------------
 #rhf/gen scf(symm,tight,novaracc,noincfock,fulldiag) stable(crhf) geom
 =nocrowd test
 ----------------------------------------------------------------------

 hf stability analysis of h10 triangular lattice, y= 0.9640325951009897
 1
 ----------------------------------------------------------------------
 Symbolic Z-matrix:
 Charge =  0 Multiplicity = 1

                         Standard orientation:
 ---------------------------------------------------------------------
 Center     Atomic      Atomic             Coordinates (Angstroms)
 Number     Number       Type             X           Y           Z
 ---------------------------------------------------------------------
      1          1           0        2.034869    1.573152    0.000000
      2          1           0        2.034869    0.438238    0.000000
      3          1           0        1.017435    1.070304    0.000000
      4          1           0        1.017435   -0.064609   -0.000000
      5          1           0       -0.000000    0.567457    0.000000
      6          1           0       -0.000000   -0.567457   -0.000000
      7          1           0       -1.017435    0.064609    0.000000
      8          1           0       -1.017435   -1.070304    0.000000
      9          1           0       -2.034869   -0.438238    0.000000
     10          1           0       -2.034869   -1.573152    0.000000
 ---------------------------------------------------------------------

 SCF Done:  E(RHF) =  -4.86775872126     A.U. after   10 cycles
 E2 =    -0.1125196643D+00 EUMP2 =    -0.49802783855933D+01

 The electronic state is 1-AG.
 Alpha  occ. eigenvalues --   -0.84825  -0.74056  -0.54988  -0.35667  -0.30444
 Alpha virt. eigenvalues --   -0.00992   0.23202   0.24393   0.55024   0.64401

 Mulliken charges:
               1
     1  H   -0.096778
     2  H    0.144332
     3  H    0.100784
     4  H   -0.118164
     5  H   -0.030173
     6  H   -0.030173
     7  H   -0.118164
     8  H    0.100784
     9  H    0.144332
    10  H   -0.096778
 Sum of Mulliken charges =  -0.00000

 Dipole moment (field-independent basis, Debye):
    X=              0.0000    Y=             -0.0000    Z=              0.0000  Tot=              0.0000
 Quadrupole moment (field-independent basis, Debye-Ang):
   XX=            -14.0999   YY=            -15.4224   ZZ=            -12.9490
   XY=             -1.4973   XZ=              0.0000   YZ=             -0.0000

 Normal termination of Gaussian 09 at Thu Feb  9 15:34:25 2017.
