 Gaussian 09, Revision E.01,
 Gaussian 09:  ES64L-G09RevE.01 30-Nov-2015

 ----------------------------------------------------------------------
 #rhf/gen scf(symm,tight,novaracc,noincfock,fulldiag) stable(crhf) geom
 =nocrowd test
 ----------------------------------------------------------------------

 ----------------------------------------------------------------------
 hf stability analysis of h10 triangular lattice, y= 1.1039204800387612
 ----------------------------------------------------------------------
 Symbolic Z-matrix:
 Charge =  0 Multiplicity = 1

                         Standard orientation:
 ---------------------------------------------------------------------
 Center     Atomic      Atomic             Coordinates (Angstroms)
 Number     Number       Type             X           Y           Z
 ---------------------------------------------------------------------
      1          1           0        1.890559    2.158177   -0.000000
      2          1           0        1.890559    0.936633   -0.000000
      3          1           0        0.945280    1.384474   -0.000000
      4          1           0        0.945280    0.162931   -0.000000
      5          1           0        0.000000    0.610772   -0.000000
      6          1           0       -0.000000   -0.610772   -0.000000
      7          1           0       -0.945280   -0.162931   -0.000000
      8          1           0       -0.945280   -1.384474   -0.000000
      9          1           0       -1.890559   -0.936633   -0.000000
     10          1           0       -1.890559   -2.158177   -0.000000
 ---------------------------------------------------------------------

 SCF Done:  E(RHF) =  -4.84311194136     A.U. after   10 cycles
 E2 =    -0.1184429948D+00 EUMP2 =    -0.49615549361888D+01

 The electronic state is 1-AG.
 Alpha  occ. eigenvalues --   -0.81861  -0.73500  -0.55329  -0.32646  -0.27388
 Alpha virt. eigenvalues --    0.02406   0.16035   0.24204   0.44481   0.59123

 Mulliken charges:
               1
     1  H   -0.046025
     2  H    0.126088
     3  H    0.113024
     4  H   -0.117741
     5  H   -0.075346
     6  H   -0.075346
     7  H   -0.117741
     8  H    0.113024
     9  H    0.126088
    10  H   -0.046025
 Sum of Mulliken charges =  -0.00000

 Dipole moment (field-independent basis, Debye):
    X=              0.0000    Y=             -0.0000    Z=             -0.0000  Tot=              0.0000
 Quadrupole moment (field-independent basis, Debye-Ang):
   XX=            -12.3275   YY=            -14.0453   ZZ=            -13.0933
   XY=              1.2054   XZ=              0.0000   YZ=              0.0000

 Normal termination of Gaussian 09 at Thu Feb  9 15:40:41 2017.
