 Gaussian 09, Revision E.01,
 Gaussian 09:  ES64L-G09RevE.01 30-Nov-2015

 ----------------------------------------------------------------------
 #rhf/gen scf(symm,tight,novaracc,noincfock,fulldiag) stable(crhf) geom
 =nocrowd test
 ----------------------------------------------------------------------

 ----------------------------------------------------------------------
 hf stability analysis of h10 triangular lattice, y= 1.0344166766890379
 ----------------------------------------------------------------------
 Symbolic Z-matrix:
 Charge =  0 Multiplicity = 1

                         Standard orientation:
 ---------------------------------------------------------------------
 Center     Atomic      Atomic             Coordinates (Angstroms)
 Number     Number       Type             X           Y           Z
 ---------------------------------------------------------------------
      1          1           0        1.964797    1.878325    0.000000
      2          1           0        1.964797    0.702936    0.000000
      3          1           0        0.982399    1.233010    0.000000
      4          1           0        0.982399    0.057621    0.000000
      5          1           0        0.000000    0.587694    0.000000
      6          1           0       -0.000000   -0.587694    0.000000
      7          1           0       -0.982399   -0.057621    0.000000
      8          1           0       -0.982399   -1.233010    0.000000
      9          1           0       -1.964797   -0.702936    0.000000
     10          1           0       -1.964797   -1.878325    0.000000
 ---------------------------------------------------------------------

 SCF Done:  E(RHF) =  -4.86390436791     A.U. after   10 cycles
 E2 =    -0.1143306882D+00 EUMP2 =    -0.49782350560871D+01

 The electronic state is 1-AG.
 Alpha  occ. eigenvalues --   -0.83492  -0.73916  -0.55220  -0.32576  -0.30800
 Alpha virt. eigenvalues --    0.00769   0.19771   0.24243   0.52926   0.57005

 Mulliken charges:
               1
     1  H   -0.080014
     2  H    0.142683
     3  H    0.111608
     4  H   -0.121569
     5  H   -0.052709
     6  H   -0.052709
     7  H   -0.121569
     8  H    0.111608
     9  H    0.142683
    10  H   -0.080014
 Sum of Mulliken charges =  -0.00000

 Dipole moment (field-independent basis, Debye):
    X=              0.0000    Y=             -0.0000    Z=              0.0000  Tot=              0.0000
 Quadrupole moment (field-independent basis, Debye-Ang):
   XX=            -13.1188   YY=            -15.2873   ZZ=            -13.0250
   XY=             -0.3962   XZ=             -0.0000   YZ=             -0.0000

 Normal termination of Gaussian 09 at Thu Feb  9 15:37:48 2017.
