 Gaussian 09, Revision E.01,
 Gaussian 09:  ES64L-G09RevE.01 30-Nov-2015

 ----------------------------------------------------------------------
 #rhf/gen scf(symm,tight,novaracc,noincfock,fulldiag) stable(crhf) geom
 =nocrowd test
 ----------------------------------------------------------------------

 ----------------------------------------------------------------------
 hf stability analysis of h10 triangular lattice, y= 1.6552111303889363
 ----------------------------------------------------------------------
 Symbolic Z-matrix:
 Charge =  0 Multiplicity = 1

                         Standard orientation:
 ---------------------------------------------------------------------
 Center     Atomic      Atomic             Coordinates (Angstroms)
 Number     Number       Type             X           Y           Z
 ---------------------------------------------------------------------
      1          1           0        1.365246    3.941209    0.000000
      2          1           0        1.365246    2.249644    0.000000
      3          1           0        0.682623    2.393496    0.000000
      4          1           0        0.682623    0.701931    0.000000
      5          1           0        0.000000    0.845782    0.000000
      6          1           0       -0.000000   -0.845782    0.000000
      7          1           0       -0.682623   -0.701931    0.000000
      8          1           0       -0.682623   -2.393496    0.000000
      9          1           0       -1.365246   -2.249644    0.000000
     10          1           0       -1.365246   -3.941209    0.000000
 ---------------------------------------------------------------------

 SCF Done:  E(RHF) =  -4.92167572226     A.U. after    8 cycles
 E2 =    -0.5749504614D+00 EUMP2 =    -0.54966261836559D+01

 The electronic state is 1-AG.
 Alpha  occ. eigenvalues --   -0.75267  -0.70426  -0.62612  -0.53220  -0.17335
 Alpha virt. eigenvalues --   -0.10344   0.27393   0.36799   0.50959   0.64923

 Mulliken charges:
               1
     1  H   -0.050137
     2  H    0.015912
     3  H    0.022171
     4  H    0.003704
     5  H    0.008351
     6  H    0.008351
     7  H    0.003704
     8  H    0.022171
     9  H    0.015912
    10  H   -0.050137
 Sum of Mulliken charges =   0.00000

 Dipole moment (field-independent basis, Debye):
    X=              0.0000    Y=              0.0000    Z=             -0.0000  Tot=              0.0000
 Quadrupole moment (field-independent basis, Debye-Ang):
   XX=            -12.6618   YY=            -22.7261   ZZ=            -13.0239
   XY=             -3.7230   XZ=             -0.0000   YZ=              0.0000

 Normal termination of Gaussian 09 at Thu Feb  9 15:53:44 2017.
