 Gaussian 09, Revision E.01,
 Gaussian 09:  ES64L-G09RevE.01 30-Nov-2015

 ----------------------------------------------------------------------
 #rhf/gen scf(symm,tight,novaracc,noincfock,fulldiag) stable(crhf) geom
 =nocrowd test
 ----------------------------------------------------------------------

 ----------------------------------------------------------------------
 hf stability analysis of h10 triangular lattice, y= 1.9146669454608252
 ----------------------------------------------------------------------
 Symbolic Z-matrix:
 Charge =  0 Multiplicity = 1

                         Standard orientation:
 ---------------------------------------------------------------------
 Center     Atomic      Atomic             Coordinates (Angstroms)
 Number     Number       Type             X           Y           Z
 ---------------------------------------------------------------------
      1          1           0        1.191478    4.658020   -0.000000
      2          1           0        1.191478    2.719754   -0.000000
      3          1           0        0.595739    2.813577   -0.000000
      4          1           0        0.595739    0.875310   -0.000000
      5          1           0        0.000000    0.969133   -0.000000
      6          1           0       -0.000000   -0.969133   -0.000000
      7          1           0       -0.595739   -0.875310   -0.000000
      8          1           0       -0.595739   -2.813577   -0.000000
      9          1           0       -1.191478   -2.719754   -0.000000
     10          1           0       -1.191478   -4.658020   -0.000000
 ---------------------------------------------------------------------

 SCF Done:  E(RHF) =  -4.85062805541     A.U. after    6 cycles
 E2 =    -0.7646329709D+00 EUMP2 =    -0.56152610263149D+01

 The electronic state is 1-AG.
 Alpha  occ. eigenvalues --   -0.73533  -0.70502  -0.65773  -0.60645  -0.19542
 Alpha virt. eigenvalues --   -0.13935   0.38777   0.46252   0.57264   0.67879

 Mulliken charges:
               1
     1  H   -0.009041
     2  H    0.004097
     3  H    0.003508
     4  H   -0.000064
     5  H    0.001499
     6  H    0.001499
     7  H   -0.000064
     8  H    0.003508
     9  H    0.004097
    10  H   -0.009041
 Sum of Mulliken charges =   0.00000

 Dipole moment (field-independent basis, Debye):
    X=             -0.0000    Y=              0.0000    Z=              0.0000  Tot=              0.0000
 Quadrupole moment (field-independent basis, Debye-Ang):
   XX=            -12.3286   YY=            -17.9327   ZZ=            -13.2250
   XY=             -1.4217   XZ=              0.0000   YZ=              0.0000

 Normal termination of Gaussian 09 at Thu Feb  9 15:56:34 2017.
