 Gaussian 09, Revision E.01,
 Gaussian 09:  ES64L-G09RevE.01 30-Nov-2015

 ----------------------------------------------------------------------
 #rhf/gen scf(symm,tight,novaracc,noincfock,fulldiag) stable(crhf) geom
 =nocrowd test
 ----------------------------------------------------------------------

 hf stability analysis of h10 triangular lattice, y= 0.8243694372919010
 4
 ----------------------------------------------------------------------
 Symbolic Z-matrix:
 Charge =  0 Multiplicity = 1

                         Standard orientation:
 ---------------------------------------------------------------------
 Center     Atomic      Atomic             Coordinates (Angstroms)
 Number     Number       Type             X           Y           Z
 ---------------------------------------------------------------------
      1          1           0        2.134969    0.890466    0.000000
      2          1           0        2.134969   -0.191237    0.000000
      3          1           0        1.067484    0.715659    0.000000
      4          1           0        1.067484   -0.366044    0.000000
      5          1           0        0.000000    0.540851    0.000000
      6          1           0       -0.000000   -0.540851   -0.000000
      7          1           0       -1.067484    0.366044    0.000000
      8          1           0       -1.067484   -0.715659   -0.000000
      9          1           0       -2.134969    0.191237    0.000000
     10          1           0       -2.134969   -0.890466   -0.000000
 ---------------------------------------------------------------------

 SCF Done:  E(RHF) =  -4.87450167304     A.U. after   10 cycles
 E2 =    -0.1057515291D+00 EUMP2 =    -0.49802532021116D+01

 The electronic state is 1-AG.
 Alpha  occ. eigenvalues --   -0.87459  -0.74348  -0.52760  -0.46170  -0.30520
 Alpha virt. eigenvalues --   -0.02064   0.16245   0.35061   0.52128   0.86276

 Mulliken charges:
               1
     1  H    0.089543
     2  H   -0.010718
     3  H   -0.031041
     4  H   -0.035662
     5  H   -0.012122
     6  H   -0.012122
     7  H   -0.035662
     8  H   -0.031041
     9  H   -0.010718
    10  H    0.089543
 Sum of Mulliken charges =  -0.00000

 Dipole moment (field-independent basis, Debye):
    X=             -0.0000    Y=              0.0000    Z=             -0.0000  Tot=              0.0000
 Quadrupole moment (field-independent basis, Debye-Ang):
   XX=            -10.2696   YY=            -16.8552   ZZ=            -12.9586
   XY=              2.3714   XZ=              0.0000   YZ=             -0.0000

 Normal termination of Gaussian 09 at Thu Feb  9 15:27:03 2017.
