 Gaussian 09, Revision E.01,
 Gaussian 09:  ES64L-G09RevE.01 30-Nov-2015

 ----------------------------------------------------------------------
 #rhf/gen scf(symm,tight,novaracc,noincfock,fulldiag) stable(crhf) geom
 =nocrowd test
 ----------------------------------------------------------------------

 ----------------------------------------------------------------------
 hf stability analysis of h10 triangular lattice, y= 1.0237328119822167
 ----------------------------------------------------------------------
 Symbolic Z-matrix:
 Charge =  0 Multiplicity = 1

                         Standard orientation:
 ---------------------------------------------------------------------
 Center     Atomic      Atomic             Coordinates (Angstroms)
 Number     Number       Type             X           Y           Z
 ---------------------------------------------------------------------
      1          1           0        1.975879    1.833497    0.000000
      2          1           0        1.975879    0.664700    0.000000
      3          1           0        0.987939    1.208948    0.000000
      4          1           0        0.987939    0.040151    0.000000
      5          1           0        0.000000    0.584398    0.000000
      6          1           0       -0.000000   -0.584398    0.000000
      7          1           0       -0.987939   -0.040151    0.000000
      8          1           0       -0.987939   -1.208948    0.000000
      9          1           0       -1.975879   -0.664700    0.000000
     10          1           0       -1.975879   -1.833497    0.000000
 ---------------------------------------------------------------------

 SCF Done:  E(RHF) =  -4.86554680068     A.U. after   10 cycles
 E2 =    -0.1138939816D+00 EUMP2 =    -0.49794407822778D+01

 The electronic state is 1-AG.
 Alpha  occ. eigenvalues --   -0.83717  -0.73956  -0.55192  -0.32924  -0.30914
 Alpha virt. eigenvalues --    0.00492   0.20439   0.24124   0.54515   0.56690

 Mulliken charges:
               1
     1  H   -0.083895
     2  H    0.144034
     3  H    0.110727
     4  H   -0.121572
     5  H   -0.049293
     6  H   -0.049293
     7  H   -0.121572
     8  H    0.110727
     9  H    0.144034
    10  H   -0.083895
 Sum of Mulliken charges =   0.00000

 Dipole moment (field-independent basis, Debye):
    X=             -0.0000    Y=             -0.0000    Z=              0.0000  Tot=              0.0000
 Quadrupole moment (field-independent basis, Debye-Ang):
   XX=            -13.2585   YY=            -15.3761   ZZ=            -13.0138
   XY=             -0.6035   XZ=              0.0000   YZ=              0.0000

 Normal termination of Gaussian 09 at Thu Feb  9 15:37:19 2017.
