 Gaussian 09, Revision E.01,
 Gaussian 09:  ES64L-G09RevE.01 30-Nov-2015

 ----------------------------------------------------------------------
 #rhf/gen scf(symm,tight,novaracc,noincfock,fulldiag) stable(crhf) geom
 =nocrowd test
 ----------------------------------------------------------------------

 hf stability analysis of h10 triangular lattice, y= 0.8825088229169127
 9
 ----------------------------------------------------------------------
 Symbolic Z-matrix:
 Charge =  0 Multiplicity = 1

                         Standard orientation:
 ---------------------------------------------------------------------
 Center     Atomic      Atomic             Coordinates (Angstroms)
 Number     Number       Type             X           Y           Z
 ---------------------------------------------------------------------
      1          1           0        2.102221    1.187980    0.000000
      2          1           0        2.102221    0.089427    0.000000
      3          1           0        1.051110    0.868628    0.000000
      4          1           0        1.051110   -0.229925    0.000000
      5          1           0        0.000000    0.549277    0.000000
      6          1           0       -0.000000   -0.549277    0.000000
      7          1           0       -1.051110    0.229925    0.000000
      8          1           0       -1.051110   -0.868628    0.000000
      9          1           0       -2.102221   -0.089427    0.000000
     10          1           0       -2.102221   -1.187980    0.000000
 ---------------------------------------------------------------------

 SCF Done:  E(RHF) =  -4.85642606482     A.U. after   10 cycles
 E2 =    -0.1134713483D+00 EUMP2 =    -0.49698974131582D+01

 The electronic state is 1-AG.
 Alpha  occ. eigenvalues --   -0.85860  -0.73889  -0.54646  -0.38866  -0.29397
 Alpha virt. eigenvalues --   -0.02518   0.21805   0.29727   0.53113   0.79111

 Mulliken charges:
               1
     1  H   -0.082898
     2  H    0.119670
     3  H    0.068062
     4  H   -0.100332
     5  H   -0.004501
     6  H   -0.004501
     7  H   -0.100332
     8  H    0.068062
     9  H    0.119670
    10  H   -0.082898
 Sum of Mulliken charges =   0.00000

 Dipole moment (field-independent basis, Debye):
    X=              0.0000    Y=              0.0000    Z=              0.0000  Tot=              0.0000
 Quadrupole moment (field-independent basis, Debye-Ang):
   XX=            -15.2589   YY=            -14.5665   ZZ=            -12.8634
   XY=             -1.7820   XZ=              0.0000   YZ=              0.0000

 Normal termination of Gaussian 09 at Thu Feb  9 15:30:19 2017.
