 Gaussian 09, Revision E.01,
 Gaussian 09:  ES64L-G09RevE.01 30-Nov-2015

 ----------------------------------------------------------------------
 #rhf/gen scf(symm,tight,novaracc,noincfock,fulldiag) stable(crhf) geom
 =nocrowd test
 ----------------------------------------------------------------------

 ----------------------------------------------------------------------
 hf stability analysis of h10 triangular lattice, y= 1.8141413357799034
 ----------------------------------------------------------------------
 Symbolic Z-matrix:
 Charge =  0 Multiplicity = 1

                         Standard orientation:
 ---------------------------------------------------------------------
 Center     Atomic      Atomic             Coordinates (Angstroms)
 Number     Number       Type             X           Y           Z
 ---------------------------------------------------------------------
      1          1           0        1.253853    4.384652   -0.000000
      2          1           0        1.253853    2.542807   -0.000000
      3          1           0        0.626926    2.652787   -0.000000
      4          1           0        0.626926    0.810942   -0.000000
      5          1           0       -0.000000    0.920922    0.000000
      6          1           0       -0.000000   -0.920922   -0.000000
      7          1           0       -0.626926   -0.810942   -0.000000
      8          1           0       -0.626926   -2.652787   -0.000000
      9          1           0       -1.253853   -2.542807   -0.000000
     10          1           0       -1.253853   -4.384652   -0.000000
 ---------------------------------------------------------------------

 SCF Done:  E(RHF) =  -4.89543179937     A.U. after    7 cycles
 E2 =    -0.7016032844D+00 EUMP2 =    -0.55970350838091D+01

 The electronic state is 1-AG.
 Alpha  occ. eigenvalues --   -0.73929  -0.70298  -0.64513  -0.57971  -0.18931
 Alpha virt. eigenvalues --   -0.12919   0.34669   0.42835   0.55026   0.66930

 Mulliken charges:
               1
     1  H   -0.018480
     2  H    0.007114
     3  H    0.008017
     4  H    0.000463
     5  H    0.002886
     6  H    0.002886
     7  H    0.000463
     8  H    0.008017
     9  H    0.007114
    10  H   -0.018480
 Sum of Mulliken charges =  -0.00000

 Dipole moment (field-independent basis, Debye):
    X=              0.0000    Y=             -0.0000    Z=              0.0000  Tot=              0.0000
 Quadrupole moment (field-independent basis, Debye-Ang):
   XX=            -12.3398   YY=            -19.3259   ZZ=            -13.1498
   XY=             -2.0307   XZ=             -0.0000   YZ=             -0.0000

 Normal termination of Gaussian 09 at Thu Feb  9 15:55:35 2017.
