 Gaussian 09, Revision E.01,
 Gaussian 09:  ES64L-G09RevE.01 30-Nov-2015

 ----------------------------------------------------------------------
 #rhf/gen scf(symm,tight,novaracc,noincfock,fulldiag) stable(crhf) geom
 =nocrowd test
 ----------------------------------------------------------------------

 ----------------------------------------------------------------------
 hf stability analysis of h10 triangular lattice, y= 1.3573235344015393
 ----------------------------------------------------------------------
 Symbolic Z-matrix:
 Charge =  0 Multiplicity = 1

                         Standard orientation:
 ---------------------------------------------------------------------
 Center     Atomic      Atomic             Coordinates (Angstroms)
 Number     Number       Type             X           Y           Z
 ---------------------------------------------------------------------
      1          1           0        1.623580    3.047232    0.000000
      2          1           0        1.623580    1.624820    0.000000
      3          1           0        0.811790    1.879219    0.000000
      4          1           0        0.811790    0.456807    0.000000
      5          1           0        0.000000    0.711206    0.000000
      6          1           0       -0.000000   -0.711206   -0.000000
      7          1           0       -0.811790   -0.456807   -0.000000
      8          1           0       -0.811790   -1.879219   -0.000000
      9          1           0       -1.623580   -1.624820   -0.000000
     10          1           0       -1.623580   -3.047232   -0.000000
 ---------------------------------------------------------------------

 SCF Done:  E(RHF) =  -4.78538841725     A.U. after   11 cycles
 E2 =    -0.2588236134D+00 EUMP2 =    -0.50442120306123D+01

 The electronic state is 1-AG.
 Alpha  occ. eigenvalues --   -0.81875  -0.73181  -0.60022  -0.43412  -0.11794
 Alpha virt. eigenvalues --    0.00380   0.10222   0.22734   0.40710   0.57149

 Mulliken charges:
               1
     1  H   -0.217162
     2  H    0.048066
     3  H    0.097877
     4  H    0.032125
     5  H    0.039094
     6  H    0.039094
     7  H    0.032125
     8  H    0.097877
     9  H    0.048066
    10  H   -0.217162
 Sum of Mulliken charges =   0.00000

 Dipole moment (field-independent basis, Debye):
    X=             -0.0000    Y=             -0.0000    Z=              0.0000  Tot=              0.0000
 Quadrupole moment (field-independent basis, Debye-Ang):
   XX=            -16.2825   YY=            -31.8183   ZZ=            -12.8122
   XY=            -10.8259   XZ=             -0.0000   YZ=             -0.0000

 Normal termination of Gaussian 09 at Thu Feb  9 15:48:27 2017.
