 Gaussian 09, Revision E.01,
 Gaussian 09:  ES64L-G09RevE.01 30-Nov-2015

 ----------------------------------------------------------------------
 #rhf/gen scf(symm,tight,novaracc,noincfock,fulldiag) stable(crhf) geom
 =nocrowd test
 ----------------------------------------------------------------------

 ----------------------------------------------------------------------
 hf stability analysis of h10 triangular lattice, y= 1.7194282752814485
 ----------------------------------------------------------------------
 Symbolic Z-matrix:
 Charge =  0 Multiplicity = 1

                         Standard orientation:
 ---------------------------------------------------------------------
 Center     Atomic      Atomic             Coordinates (Angstroms)
 Number     Number       Type             X           Y           Z
 ---------------------------------------------------------------------
      1          1           0        1.318221    4.122340   -0.000000
      2          1           0        1.318221    2.370432   -0.000000
      3          1           0        0.659110    2.499147   -0.000000
      4          1           0        0.659110    0.747239   -0.000000
      5          1           0        0.000000    0.875954   -0.000000
      6          1           0       -0.000000   -0.875954   -0.000000
      7          1           0       -0.659110   -0.747239   -0.000000
      8          1           0       -0.659110   -2.499147   -0.000000
      9          1           0       -1.318221   -2.370432   -0.000000
     10          1           0       -1.318221   -4.122340   -0.000000
 ---------------------------------------------------------------------

 SCF Done:  E(RHF) =  -4.91836831262     A.U. after    7 cycles
 E2 =    -0.6308962005D+00 EUMP2 =    -0.55492645131514D+01

 The electronic state is 1-AG.
 Alpha  occ. eigenvalues --   -0.74593  -0.70290  -0.63352  -0.55205  -0.18092
 Alpha virt. eigenvalues --   -0.11568   0.30474   0.39347   0.52699   0.65845

 Mulliken charges:
               1
     1  H   -0.033999
     2  H    0.011606
     3  H    0.015121
     4  H    0.001830
     5  H    0.005442
     6  H    0.005442
     7  H    0.001830
     8  H    0.015121
     9  H    0.011606
    10  H   -0.033999
 Sum of Mulliken charges =  -0.00000

 Dipole moment (field-independent basis, Debye):
    X=             -0.0000    Y=             -0.0000    Z=              0.0000  Tot=              0.0000
 Quadrupole moment (field-independent basis, Debye-Ang):
   XX=            -12.4655   YY=            -21.1418   ZZ=            -13.0750
   XY=             -2.8984   XZ=              0.0000   YZ=              0.0000

 Normal termination of Gaussian 09 at Thu Feb  9 15:54:32 2017.
