 Gaussian 09, Revision E.01,
 Gaussian 09:  ES64L-G09RevE.01 30-Nov-2015

 ----------------------------------------------------------------------
 #rhf/gen scf(symm,tight,novaracc,noincfock,fulldiag) stable(crhf) geom
 =nocrowd test
 ----------------------------------------------------------------------

 ----------------------------------------------------------------------
 hf stability analysis of h10 triangular lattice, y= 1.0365814879045478
 ----------------------------------------------------------------------
 Symbolic Z-matrix:
 Charge =  0 Multiplicity = 1

                         Standard orientation:
 ---------------------------------------------------------------------
 Center     Atomic      Atomic             Coordinates (Angstroms)
 Number     Number       Type             X           Y           Z
 ---------------------------------------------------------------------
      1          1           0        1.962538    1.887346    0.000000
      2          1           0        1.962538    0.710604    0.000000
      3          1           0        0.981269    1.237859    0.000000
      4          1           0        0.981269    0.061116    0.000000
      5          1           0       -0.000000    0.588371    0.000000
      6          1           0       -0.000000   -0.588371    0.000000
      7          1           0       -0.981269   -0.061116    0.000000
      8          1           0       -0.981269   -1.237859    0.000000
      9          1           0       -1.962538   -0.710604    0.000000
     10          1           0       -1.962538   -1.887346    0.000000
 ---------------------------------------------------------------------

 SCF Done:  E(RHF) =  -4.86352236260     A.U. after   10 cycles
 E2 =    -0.1144259309D+00 EUMP2 =    -0.49779482935474D+01

 The electronic state is 1-AG.
 Alpha  occ. eigenvalues --   -0.83445  -0.73907  -0.55226  -0.32522  -0.30759
 Alpha virt. eigenvalues --    0.00826   0.19638   0.24265   0.52612   0.57069

 Mulliken charges:
               1
     1  H   -0.079177
     2  H    0.142367
     3  H    0.111759
     4  H   -0.121548
     5  H   -0.053401
     6  H   -0.053401
     7  H   -0.121548
     8  H    0.111759
     9  H    0.142367
    10  H   -0.079177
 Sum of Mulliken charges =   0.00000

 Dipole moment (field-independent basis, Debye):
    X=              0.0000    Y=              0.0000    Z=              0.0000  Tot=              0.0000
 Quadrupole moment (field-independent basis, Debye-Ang):
   XX=            -13.0911   YY=            -15.2662   ZZ=            -13.0273
   XY=             -0.3528   XZ=              0.0000   YZ=              0.0000

 Normal termination of Gaussian 09 at Thu Feb  9 15:37:54 2017.
