 Gaussian 09, Revision E.01,
 Gaussian 09:  ES64L-G09RevE.01 30-Nov-2015

 ----------------------------------------------------------------------
 #rhf/gen scf(symm,tight,novaracc,noincfock,fulldiag) stable(crhf) geom
 =nocrowd test
 ----------------------------------------------------------------------

 hf stability analysis of h10 triangular lattice, y= 0.9063588615356296
 1
 ----------------------------------------------------------------------
 Symbolic Z-matrix:
 Charge =  0 Multiplicity = 1

                         Standard orientation:
 ---------------------------------------------------------------------
 Center     Atomic      Atomic             Coordinates (Angstroms)
 Number     Number       Type             X           Y           Z
 ---------------------------------------------------------------------
      1          1           0        2.084644    1.304426   -0.000000
      2          1           0        2.084644    0.196610   -0.000000
      3          1           0        1.042322    0.929167   -0.000000
      4          1           0        1.042322   -0.178649    0.000000
      5          1           0        0.000000    0.553908   -0.000000
      6          1           0       -0.000000   -0.553908   -0.000000
      7          1           0       -1.042322    0.178649    0.000000
      8          1           0       -1.042322   -0.929167   -0.000000
      9          1           0       -2.084644   -0.196610    0.000000
     10          1           0       -2.084644   -1.304426   -0.000000
 ---------------------------------------------------------------------

 SCF Done:  E(RHF) =  -4.86085140459     A.U. after   10 cycles
 E2 =    -0.1129031881D+00 EUMP2 =    -0.49737545927199D+01

 The electronic state is 1-AG.
 Alpha  occ. eigenvalues --   -0.85618  -0.73967  -0.54746  -0.38056  -0.29698
 Alpha virt. eigenvalues --   -0.02150   0.22192   0.28244   0.53616   0.74853

 Mulliken charges:
               1
     1  H   -0.091351
     2  H    0.130362
     3  H    0.080355
     4  H   -0.107572
     5  H   -0.011794
     6  H   -0.011794
     7  H   -0.107572
     8  H    0.080355
     9  H    0.130362
    10  H   -0.091351
 Sum of Mulliken charges =   0.00000

 Dipole moment (field-independent basis, Debye):
    X=              0.0000    Y=              0.0000    Z=              0.0000  Tot=              0.0000
 Quadrupole moment (field-independent basis, Debye-Ang):
   XX=            -14.9377   YY=            -14.8872   ZZ=            -12.8871
   XY=             -1.8266   XZ=              0.0000   YZ=             -0.0000

 Normal termination of Gaussian 09 at Thu Feb  9 15:31:35 2017.
