 Gaussian 09, Revision E.01,
 Gaussian 09:  ES64L-G09RevE.01 30-Nov-2015

 ----------------------------------------------------------------------
 #rhf/gen scf(symm,tight,novaracc,noincfock,fulldiag) stable(crhf) geom
 =nocrowd test
 ----------------------------------------------------------------------

 hf stability analysis of h10 triangular lattice, y= 0.8436216253694736
 0
 ----------------------------------------------------------------------
 Symbolic Z-matrix:
 Charge =  0 Multiplicity = 1

                         Standard orientation:
 ---------------------------------------------------------------------
 Center     Atomic      Atomic             Coordinates (Angstroms)
 Number     Number       Type             X           Y           Z
 ---------------------------------------------------------------------
      1          1           0        2.125921    0.991155    0.000000
      2          1           0        2.125921   -0.095151    0.000000
      3          1           0        1.062960    0.767154    0.000000
      4          1           0        1.062960   -0.319152    0.000000
      5          1           0        0.000000    0.543153    0.000000
      6          1           0       -0.000000   -0.543153    0.000000
      7          1           0       -1.062960    0.319152    0.000000
      8          1           0       -1.062960   -0.767154    0.000000
      9          1           0       -2.125921    0.095151    0.000000
     10          1           0       -2.125921   -0.991155    0.000000
 ---------------------------------------------------------------------

 SCF Done:  E(RHF) =  -4.84876107021     A.U. after   10 cycles
 E2 =    -0.1146765857D+00 EUMP2 =    -0.49634376559536D+01

 The electronic state is 1-AG.
 Alpha  occ. eigenvalues --   -0.86147  -0.73739  -0.54498  -0.39919  -0.28958
 Alpha virt. eigenvalues --   -0.02965   0.21265   0.31844   0.52425   0.85419

 Mulliken charges:
               1
     1  H   -0.060726
     2  H    0.095448
     3  H    0.042960
     4  H   -0.083958
     5  H    0.006276
     6  H    0.006276
     7  H   -0.083958
     8  H    0.042960
     9  H    0.095448
    10  H   -0.060726
 Sum of Mulliken charges =   0.00000

 Dipole moment (field-independent basis, Debye):
    X=             -0.0000    Y=             -0.0000    Z=              0.0000  Tot=              0.0000
 Quadrupole moment (field-independent basis, Debye-Ang):
   XX=            -15.7082   YY=            -14.0200   ZZ=            -12.8295
   XY=             -1.4736   XZ=              0.0000   YZ=              0.0000

 Normal termination of Gaussian 09 at Thu Feb  9 15:28:09 2017.
