 Gaussian 09, Revision E.01,
 Gaussian 09:  ES64L-G09RevE.01 30-Nov-2015

 ----------------------------------------------------------------------
 #rhf/gen scf(symm,tight,novaracc,noincfock,fulldiag) stable(crhf) geom
 =nocrowd test
 ----------------------------------------------------------------------

 ----------------------------------------------------------------------
 hf stability analysis of h10 triangular lattice, y= 1.1509354590573304
 ----------------------------------------------------------------------
 Symbolic Z-matrix:
 Charge =  0 Multiplicity = 1

                         Standard orientation:
 ---------------------------------------------------------------------
 Center     Atomic      Atomic             Coordinates (Angstroms)
 Number     Number       Type             X           Y           Z
 ---------------------------------------------------------------------
      1          1           0        1.839421    2.337048    0.000000
      2          1           0        1.839421    1.081544    0.000000
      3          1           0        0.919711    1.482400    0.000000
      4          1           0        0.919711    0.226896    0.000000
      5          1           0        0.000000    0.627752    0.000000
      6          1           0       -0.000000   -0.627752    0.000000
      7          1           0       -0.919711   -0.226896    0.000000
      8          1           0       -0.919711   -1.482400    0.000000
      9          1           0       -1.839421   -1.081544    0.000000
     10          1           0       -1.839421   -2.337048    0.000000
 ---------------------------------------------------------------------

 SCF Done:  E(RHF) =  -4.81906207992     A.U. after   10 cycles
 E2 =    -0.1223168340D+00 EUMP2 =    -0.49413789138819D+01

 The electronic state is 1-AG.
 Alpha  occ. eigenvalues --   -0.80632  -0.73080  -0.55322  -0.33166  -0.24341
 Alpha virt. eigenvalues --    0.02951   0.14509   0.22836   0.41152   0.60598

 Mulliken charges:
               1
     1  H   -0.016584
     2  H    0.107998
     3  H    0.111770
     4  H   -0.111127
     5  H   -0.092056
     6  H   -0.092056
     7  H   -0.111127
     8  H    0.111770
     9  H    0.107998
    10  H   -0.016584
 Sum of Mulliken charges =   0.00000

 Dipole moment (field-independent basis, Debye):
    X=             -0.0000    Y=             -0.0000    Z=              0.0000  Tot=              0.0000
 Quadrupole moment (field-independent basis, Debye-Ang):
   XX=            -11.9247   YY=            -12.5263   ZZ=            -13.1333
   XY=              2.4567   XZ=             -0.0000   YZ=             -0.0000

 Normal termination of Gaussian 09 at Thu Feb  9 15:42:27 2017.
