 Gaussian 09, Revision E.01,
 Gaussian 09:  ES64L-G09RevE.01 30-Nov-2015

 ----------------------------------------------------------------------
 #rhf/gen scf(symm,tight,novaracc,noincfock,fulldiag) stable(crhf) geom
 =nocrowd test
 ----------------------------------------------------------------------

 ----------------------------------------------------------------------
 hf stability analysis of h10 triangular lattice, y= 1.3531893207273342
 ----------------------------------------------------------------------
 Symbolic Z-matrix:
 Charge =  0 Multiplicity = 1

                         Standard orientation:
 ---------------------------------------------------------------------
 Center     Atomic      Atomic             Coordinates (Angstroms)
 Number     Number       Type             X           Y           Z
 ---------------------------------------------------------------------
      1          1           0        1.627647    3.033951    0.000000
      2          1           0        1.627647    1.615092    0.000000
      3          1           0        0.813824    1.871690    0.000000
      4          1           0        0.813824    0.452832    0.000000
      5          1           0        0.000000    0.709429    0.000000
      6          1           0       -0.000000   -0.709429   -0.000000
      7          1           0       -0.813824   -0.452832   -0.000000
      8          1           0       -0.813824   -1.871690   -0.000000
      9          1           0       -1.627647   -1.615092   -0.000000
     10          1           0       -1.627647   -3.033951   -0.000000
 ---------------------------------------------------------------------

 SCF Done:  E(RHF) =  -4.78178107489     A.U. after   11 cycles
 E2 =    -0.2545093240D+00 EUMP2 =    -0.50362903989175D+01

 The electronic state is 1-AG.
 Alpha  occ. eigenvalues --   -0.81998  -0.73240  -0.59990  -0.43263  -0.11721
 Alpha virt. eigenvalues --    0.00563   0.10009   0.22524   0.40553   0.57004

 Mulliken charges:
               1
     1  H   -0.220204
     2  H    0.048356
     3  H    0.099810
     4  H    0.032555
     5  H    0.039482
     6  H    0.039482
     7  H    0.032555
     8  H    0.099810
     9  H    0.048356
    10  H   -0.220204
 Sum of Mulliken charges =  -0.00000

 Dipole moment (field-independent basis, Debye):
    X=              0.0000    Y=              0.0000    Z=              0.0000  Tot=              0.0000
 Quadrupole moment (field-independent basis, Debye-Ang):
   XX=            -16.3764   YY=            -31.8724   ZZ=            -12.8101
   XY=            -10.9323   XZ=             -0.0000   YZ=             -0.0000

 Normal termination of Gaussian 09 at Thu Feb  9 15:48:21 2017.
