 Gaussian 09, Revision E.01,
 Gaussian 09:  ES64L-G09RevE.01 30-Nov-2015

 ----------------------------------------------------------------------
 #rhf/gen scf(symm,tight,novaracc,noincfock,fulldiag) stable(crhf) geom
 =nocrowd test
 ----------------------------------------------------------------------

 ----------------------------------------------------------------------
 hf stability analysis of h10 triangular lattice, y= 1.4051278256041408
 ----------------------------------------------------------------------
 Symbolic Z-matrix:
 Charge =  0 Multiplicity = 1

                         Standard orientation:
 ---------------------------------------------------------------------
 Center     Atomic      Atomic             Coordinates (Angstroms)
 Number     Number       Type             X           Y           Z
 ---------------------------------------------------------------------
      1          1           0        1.577490    3.198639    0.000000
      2          1           0        1.577490    1.734667    0.000000
      3          1           0        0.788745    1.965312    0.000000
      4          1           0        0.788745    0.501341    0.000000
      5          1           0       -0.000000    0.731986    0.000000
      6          1           0       -0.000000   -0.731986   -0.000000
      7          1           0       -0.788745   -0.501341    0.000000
      8          1           0       -0.788745   -1.965312   -0.000000
      9          1           0       -1.577490   -1.734667    0.000000
     10          1           0       -1.577490   -3.198639   -0.000000
 ---------------------------------------------------------------------

 SCF Done:  E(RHF) =  -4.82432058053     A.U. after   10 cycles
 E2 =    -0.3097178885D+00 EUMP2 =    -0.51340384690340D+01

 The electronic state is 1-AG.
 Alpha  occ. eigenvalues --   -0.80460  -0.72515  -0.60376  -0.45076  -0.12754
 Alpha virt. eigenvalues --   -0.01872   0.13038   0.25174   0.42546   0.58799

 Mulliken charges:
               1
     1  H   -0.181202
     2  H    0.043311
     3  H    0.078195
     4  H    0.026071
     5  H    0.033625
     6  H    0.033625
     7  H    0.026071
     8  H    0.078195
     9  H    0.043311
    10  H   -0.181202
 Sum of Mulliken charges =  -0.00000

 Dipole moment (field-independent basis, Debye):
    X=             -0.0000    Y=              0.0000    Z=              0.0000  Tot=              0.0000
 Quadrupole moment (field-independent basis, Debye-Ang):
   XX=            -15.2809   YY=            -30.7917   ZZ=            -12.8403
   XY=             -9.4774   XZ=             -0.0000   YZ=             -0.0000

 Normal termination of Gaussian 09 at Thu Feb  9 15:49:30 2017.
