 Gaussian 09, Revision E.01,
 Gaussian 09:  ES64L-G09RevE.01 30-Nov-2015

 ----------------------------------------------------------------------
 #rhf/gen scf(symm,tight,novaracc,noincfock,fulldiag) stable(crhf) geom
 =nocrowd test
 ----------------------------------------------------------------------

 ----------------------------------------------------------------------
 hf stability analysis of h10 triangular lattice, y= 1.5941195507007735
 ----------------------------------------------------------------------
 Symbolic Z-matrix:
 Charge =  0 Multiplicity = 1

                         Standard orientation:
 ---------------------------------------------------------------------
 Center     Atomic      Atomic             Coordinates (Angstroms)
 Number     Number       Type             X           Y           Z
 ---------------------------------------------------------------------
      1          1           0        1.412699    3.765903   -0.000000
      2          1           0        1.412699    2.131159    0.000000
      3          1           0        0.706350    2.291637   -0.000000
      4          1           0        0.706350    0.656893    0.000000
      5          1           0       -0.000000    0.817372   -0.000000
      6          1           0       -0.000000   -0.817372   -0.000000
      7          1           0       -0.706350   -0.656893   -0.000000
      8          1           0       -0.706350   -2.291637   -0.000000
      9          1           0       -1.412699   -2.131159   -0.000000
     10          1           0       -1.412699   -3.765903   -0.000000
 ---------------------------------------------------------------------

 SCF Done:  E(RHF) =  -4.91465892902     A.U. after    8 cycles
 E2 =    -0.5154053903D+00 EUMP2 =    -0.54300643193194D+01

 The electronic state is 1-AG.
 Alpha  occ. eigenvalues --   -0.76129  -0.70693  -0.61964  -0.51277  -0.16449
 Alpha virt. eigenvalues --   -0.08878   0.24242   0.34212   0.49152   0.63842

 Mulliken charges:
               1
     1  H   -0.071235
     2  H    0.021157
     3  H    0.031044
     4  H    0.006642
     5  H    0.012391
     6  H    0.012391
     7  H    0.006642
     8  H    0.031044
     9  H    0.021157
    10  H   -0.071235
 Sum of Mulliken charges =  -0.00000

 Dipole moment (field-independent basis, Debye):
    X=              0.0000    Y=              0.0000    Z=              0.0000  Tot=              0.0000
 Quadrupole moment (field-independent basis, Debye-Ang):
   XX=            -12.9771   YY=            -24.5186   ZZ=            -12.9759
   XY=             -4.7393   XZ=             -0.0000   YZ=             -0.0000

 Normal termination of Gaussian 09 at Thu Feb  9 15:52:52 2017.
