 Gaussian 09, Revision E.01,
 Gaussian 09:  ES64L-G09RevE.01 30-Nov-2015

 ----------------------------------------------------------------------
 #rhf/gen scf(symm,tight,novaracc,noincfock,fulldiag) stable(crhf) geom
 =nocrowd test
 ----------------------------------------------------------------------

 ----------------------------------------------------------------------
 hf stability analysis of h10 triangular lattice, y= 1.8524876076138348
 ----------------------------------------------------------------------
 Symbolic Z-matrix:
 Charge =  0 Multiplicity = 1

                         Standard orientation:
 ---------------------------------------------------------------------
 Center     Atomic      Atomic             Coordinates (Angstroms)
 Number     Number       Type             X           Y           Z
 ---------------------------------------------------------------------
      1          1           0        1.229372    4.489475   -0.000000
      2          1           0        1.229372    2.610953   -0.000000
      3          1           0        0.614686    2.714368   -0.000000
      4          1           0        0.614686    0.835846   -0.000000
      5          1           0        0.000000    0.939261   -0.000000
      6          1           0       -0.000000   -0.939261   -0.000000
      7          1           0       -0.614686   -0.835846   -0.000000
      8          1           0       -0.614686   -2.714368   -0.000000
      9          1           0       -1.229372   -2.610953   -0.000000
     10          1           0       -1.229372   -4.489475   -0.000000
 ---------------------------------------------------------------------

 SCF Done:  E(RHF) =  -4.88063682970     A.U. after    7 cycles
 E2 =    -0.7268695516D+00 EUMP2 =    -0.56075063813300D+01

 The electronic state is 1-AG.
 Alpha  occ. eigenvalues --   -0.73747  -0.70356  -0.64994  -0.59025  -0.19193
 Alpha virt. eigenvalues --   -0.13348   0.36272   0.44170   0.55903   0.67309

 Mulliken charges:
               1
     1  H   -0.014217
     2  H    0.005789
     3  H    0.005998
     4  H    0.000189
     5  H    0.002241
     6  H    0.002241
     7  H    0.000189
     8  H    0.005998
     9  H    0.005789
    10  H   -0.014217
 Sum of Mulliken charges =  -0.00000

 Dipole moment (field-independent basis, Debye):
    X=              0.0000    Y=              0.0000    Z=              0.0000  Tot=              0.0000
 Quadrupole moment (field-independent basis, Debye-Ang):
   XX=            -12.3249   YY=            -18.7391   ZZ=            -13.1792
   XY=             -1.7679   XZ=              0.0000   YZ=              0.0000

 Normal termination of Gaussian 09 at Thu Feb  9 15:55:58 2017.
