 Gaussian 09, Revision E.01,
 Gaussian 09:  ES64L-G09RevE.01 30-Nov-2015

 ----------------------------------------------------------------------
 #rhf/gen scf(symm,tight,novaracc,noincfock,fulldiag) stable(crhf) geom
 =nocrowd test
 ----------------------------------------------------------------------

 ----------------------------------------------------------------------
 hf stability analysis of h10 triangular lattice, y= 1.4834853073917655
 ----------------------------------------------------------------------
 Symbolic Z-matrix:
 Charge =  0 Multiplicity = 1

                         Standard orientation:
 ---------------------------------------------------------------------
 Center     Atomic      Atomic             Coordinates (Angstroms)
 Number     Number       Type             X           Y           Z
 ---------------------------------------------------------------------
      1          1           0        1.505785    3.439181   -0.000000
      2          1           0        1.505785    1.905494   -0.000000
      3          1           0        0.752892    2.103012   -0.000000
      4          1           0        0.752892    0.569326   -0.000000
      5          1           0        0.000000    0.766843    0.000000
      6          1           0       -0.000000   -0.766843    0.000000
      7          1           0       -0.752892   -0.569326   -0.000000
      8          1           0       -0.752892   -2.103012   -0.000000
      9          1           0       -1.505785   -1.905494   -0.000000
     10          1           0       -1.505785   -3.439181   -0.000000
 ---------------------------------------------------------------------

 SCF Done:  E(RHF) =  -4.87464287221     A.U. after    9 cycles
 E2 =    -0.3960766526D+00 EUMP2 =    -0.52707195247972D+01

 The electronic state is 1-AG.
 Alpha  occ. eigenvalues --   -0.78356  -0.71575  -0.60966  -0.47683  -0.14420
 Alpha virt. eigenvalues --   -0.05268   0.17910   0.29094   0.45459   0.61220

 Mulliken charges:
               1
     1  H   -0.127281
     2  H    0.033523
     3  H    0.054108
     4  H    0.016088
     5  H    0.023562
     6  H    0.023562
     7  H    0.016088
     8  H    0.054108
     9  H    0.033523
    10  H   -0.127281
 Sum of Mulliken charges =   0.00000

 Dipole moment (field-independent basis, Debye):
    X=             -0.0000    Y=              0.0000    Z=              0.0000  Tot=              0.0000
 Quadrupole moment (field-independent basis, Debye-Ang):
   XX=            -14.0264   YY=            -28.2750   ZZ=            -12.8935
   XY=             -7.2528   XZ=             -0.0000   YZ=             -0.0000

 Normal termination of Gaussian 09 at Thu Feb  9 15:51:02 2017.
