 Gaussian 09, Revision E.01,
 Gaussian 09:  ES64L-G09RevE.01 30-Nov-2015

 ----------------------------------------------------------------------
 #rhf/gen scf(symm,tight,novaracc,noincfock,fulldiag) stable(crhf) geom
 =nocrowd test
 ----------------------------------------------------------------------

 hf stability analysis of h10 triangular lattice, y= 0.7685055944340305
 5
 ----------------------------------------------------------------------
 Symbolic Z-matrix:
 Charge =  0 Multiplicity = 1

                         Standard orientation:
 ---------------------------------------------------------------------
 Center     Atomic      Atomic             Coordinates (Angstroms)
 Number     Number       Type             X           Y           Z
 ---------------------------------------------------------------------
      1          1           0        2.148863    0.586119    0.000000
      2          1           0        2.148863   -0.488590    0.000000
      3          1           0        1.074432    0.561736    0.000000
      4          1           0        1.074432   -0.512972    0.000000
      5          1           0        0.000000    0.537354    0.000000
      6          1           0       -0.000000   -0.537354    0.000000
      7          1           0       -1.074432    0.512972    0.000000
      8          1           0       -1.074432   -0.561736    0.000000
      9          1           0       -2.148863    0.488590    0.000000
     10          1           0       -2.148863   -0.586119    0.000000
 ---------------------------------------------------------------------

 SCF Done:  E(RHF) =  -4.88643147159     A.U. after   10 cycles
 E2 =    -0.1049842250D+00 EUMP2 =    -0.49914156965678D+01

 The electronic state is 1-AG.
 Alpha  occ. eigenvalues --   -0.87764  -0.74528  -0.52641  -0.46863  -0.31210
 Alpha virt. eigenvalues --   -0.01308   0.15342   0.36798   0.51299   0.90291

 Mulliken charges:
               1
     1  H    0.047558
     2  H    0.033370
     3  H   -0.033199
     4  H   -0.033581
     5  H   -0.014148
     6  H   -0.014148
     7  H   -0.033581
     8  H   -0.033199
     9  H    0.033370
    10  H    0.047558
 Sum of Mulliken charges =   0.00000

 Dipole moment (field-independent basis, Debye):
    X=             -0.0000    Y=             -0.0000    Z=              0.0000  Tot=              0.0000
 Quadrupole moment (field-independent basis, Debye-Ang):
   XX=            -10.0681   YY=            -17.3980   ZZ=            -12.9544
   XY=              0.3350   XZ=              0.0000   YZ=              0.0000

 Normal termination of Gaussian 09 at Thu Feb  9 15:23:34 2017.
