 Gaussian 09, Revision E.01,
 Gaussian 09:  ES64L-G09RevE.01 30-Nov-2015

 ----------------------------------------------------------------------
 #rhf/gen scf(symm,tight,novaracc,noincfock,fulldiag) stable(crhf) geom
 =nocrowd test
 ----------------------------------------------------------------------

 hf stability analysis of h10 triangular lattice, y= 0.9021718699646021
 9
 ----------------------------------------------------------------------
 Symbolic Z-matrix:
 Charge =  0 Multiplicity = 1

                         Standard orientation:
 ---------------------------------------------------------------------
 Center     Atomic      Atomic             Coordinates (Angstroms)
 Number     Number       Type             X           Y           Z
 ---------------------------------------------------------------------
      1          1           0        2.087877    1.284214    0.000000
      2          1           0        2.087877    0.178114    0.000000
      3          1           0        1.043938    0.918632    0.000000
      4          1           0        1.043938   -0.187468    0.000000
      5          1           0       -0.000000    0.553050   -0.000000
      6          1           0       -0.000000   -0.553050    0.000000
      7          1           0       -1.043938    0.187468    0.000000
      8          1           0       -1.043938   -0.918632    0.000000
      9          1           0       -2.087877   -0.178114    0.000000
     10          1           0       -2.087877   -1.284214    0.000000
 ---------------------------------------------------------------------

 SCF Done:  E(RHF) =  -4.86011674646     A.U. after   10 cycles
 E2 =    -0.1129887020D+00 EUMP2 =    -0.49731054485109D+01

 The electronic state is 1-AG.
 Alpha  occ. eigenvalues --   -0.85664  -0.73955  -0.54728  -0.38207  -0.29644
 Alpha virt. eigenvalues --   -0.02220   0.22122   0.28512   0.53524   0.75612

 Mulliken charges:
               1
     1  H   -0.090146
     2  H    0.128707
     3  H    0.078369
     4  H   -0.106439
     5  H   -0.010491
     6  H   -0.010491
     7  H   -0.106439
     8  H    0.078369
     9  H    0.128707
    10  H   -0.090146
 Sum of Mulliken charges =   0.00000

 Dipole moment (field-independent basis, Debye):
    X=              0.0000    Y=              0.0000    Z=              0.0000  Tot=              0.0000
 Quadrupole moment (field-independent basis, Debye-Ang):
   XX=            -14.9959   YY=            -14.8335   ZZ=            -12.8828
   XY=             -1.8267   XZ=              0.0000   YZ=              0.0000

 Normal termination of Gaussian 09 at Thu Feb  9 15:31:22 2017.
