 Gaussian 09, Revision E.01,
 Gaussian 09:  ES64L-G09RevE.01 30-Nov-2015

 ----------------------------------------------------------------------
 #rhf/gen scf(symm,tight,novaracc,noincfock,fulldiag) stable(crhf) geom
 =nocrowd test
 ----------------------------------------------------------------------

 hf stability analysis of h10 triangular lattice, y= 0.8317024687072293
 0
 ----------------------------------------------------------------------
 Symbolic Z-matrix:
 Charge =  0 Multiplicity = 1

                         Standard orientation:
 ---------------------------------------------------------------------
 Center     Atomic      Atomic             Coordinates (Angstroms)
 Number     Number       Type             X           Y           Z
 ---------------------------------------------------------------------
      1          1           0        2.131753    0.929072    0.000000
      2          1           0        2.131753   -0.154262   -0.000000
      3          1           0        1.065876    0.735370    0.000000
      4          1           0        1.065876   -0.347965   -0.000000
      5          1           0       -0.000000    0.541667    0.000000
      6          1           0       -0.000000   -0.541667    0.000000
      7          1           0       -1.065876    0.347965   -0.000000
      8          1           0       -1.065876   -0.735370    0.000000
      9          1           0       -2.131753    0.154262   -0.000000
     10          1           0       -2.131753   -0.929072    0.000000
 ---------------------------------------------------------------------

 SCF Done:  E(RHF) =  -4.84656938448     A.U. after   10 cycles
 E2 =    -0.1150600238D+00 EUMP2 =    -0.49616294082479D+01

 The electronic state is 1-AG.
 Alpha  occ. eigenvalues --   -0.86211  -0.73693  -0.54459  -0.40171  -0.28844
 Alpha virt. eigenvalues --   -0.03065   0.21129   0.32388   0.52252   0.87083

 Mulliken charges:
               1
     1  H   -0.051891
     2  H    0.086323
     3  H    0.034101
     4  H   -0.077662
     5  H    0.009128
     6  H    0.009128
     7  H   -0.077662
     8  H    0.034101
     9  H    0.086323
    10  H   -0.051891
 Sum of Mulliken charges =  -0.00000

 Dipole moment (field-independent basis, Debye):
    X=              0.0000    Y=             -0.0000    Z=             -0.0000  Tot=              0.0000
 Quadrupole moment (field-independent basis, Debye-Ang):
   XX=            -15.8209   YY=            -13.8648   ZZ=            -12.8209
   XY=             -1.3232   XZ=             -0.0000   YZ=             -0.0000

 Normal termination of Gaussian 09 at Thu Feb  9 15:27:28 2017.
