 Gaussian 09, Revision E.01,
 Gaussian 09:  ES64L-G09RevE.01 30-Nov-2015

 ----------------------------------------------------------------------
 #rhf/gen scf(symm,tight,novaracc,noincfock,fulldiag) stable(crhf) geom
 =nocrowd test
 ----------------------------------------------------------------------

 ----------------------------------------------------------------------
 hf stability analysis of h10 triangular lattice, y= 1.3271019102789854
 ----------------------------------------------------------------------
 Symbolic Z-matrix:
 Charge =  0 Multiplicity = 1

                         Standard orientation:
 ---------------------------------------------------------------------
 Center     Atomic      Atomic             Coordinates (Angstroms)
 Number     Number       Type             X           Y           Z
 ---------------------------------------------------------------------
      1          1           0        1.653600    2.949398   -0.000000
      2          1           0        1.653600    1.552808   -0.000000
      3          1           0        0.826800    1.823847   -0.000000
      4          1           0        0.826800    0.427256   -0.000000
      5          1           0        0.000000    0.698295   -0.000000
      6          1           0       -0.000000   -0.698295   -0.000000
      7          1           0       -0.826800   -0.427256   -0.000000
      8          1           0       -0.826800   -1.823847   -0.000000
      9          1           0       -1.653600   -1.552808   -0.000000
     10          1           0       -1.653600   -2.949398   -0.000000
 ---------------------------------------------------------------------

 SCF Done:  E(RHF) =  -4.75838239755     A.U. after   11 cycles
 E2 =    -0.2276768368D+00 EUMP2 =    -0.49860592343789D+01

 The electronic state is 1-AG.
 Alpha  occ. eigenvalues --   -0.82750  -0.73606  -0.59773  -0.42294  -0.11322
 Alpha virt. eigenvalues --    0.01518   0.08947   0.21222   0.39571   0.56095

 Mulliken charges:
               1
     1  H   -0.238291
     2  H    0.049424
     3  H    0.112926
     4  H    0.034459
     5  H    0.041481
     6  H    0.041481
     7  H    0.034459
     8  H    0.112926
     9  H    0.049424
    10  H   -0.238291
 Sum of Mulliken charges =  -0.00000

 Dipole moment (field-independent basis, Debye):
    X=              0.0000    Y=              0.0000    Z=              0.0000  Tot=              0.0000
 Quadrupole moment (field-independent basis, Debye-Ang):
   XX=            -16.9872   YY=            -32.0259   ZZ=            -12.7982
   XY=            -11.5234   XZ=             -0.0000   YZ=             -0.0000

 Normal termination of Gaussian 09 at Thu Feb  9 15:47:43 2017.
