 Gaussian 09, Revision E.01,
 Gaussian 09:  ES64L-G09RevE.01 30-Nov-2015

 ----------------------------------------------------------------------
 #rhf/gen scf(symm,tight,novaracc,noincfock,fulldiag) stable(crhf) geom
 =nocrowd test
 ----------------------------------------------------------------------

 hf stability analysis of h10 triangular lattice, y= 0.8265602312909188
 2
 ----------------------------------------------------------------------
 Symbolic Z-matrix:
 Charge =  0 Multiplicity = 1

                         Standard orientation:
 ---------------------------------------------------------------------
 Center     Atomic      Atomic             Coordinates (Angstroms)
 Number     Number       Type             X           Y           Z
 ---------------------------------------------------------------------
      1          1           0        2.134039    0.902033    0.000000
      2          1           0        2.134039   -0.180141    0.000000
      3          1           0        1.067019    0.721560    0.000000
      4          1           0        1.067019   -0.360614    0.000000
      5          1           0        0.000000    0.541087    0.000000
      6          1           0       -0.000000   -0.541087   -0.000000
      7          1           0       -1.067019    0.360614    0.000000
      8          1           0       -1.067019   -0.721560   -0.000000
      9          1           0       -2.134039    0.180141    0.000000
     10          1           0       -2.134039   -0.902033   -0.000000
 ---------------------------------------------------------------------

 SCF Done:  E(RHF) =  -4.87368941550     A.U. after   10 cycles
 E2 =    -0.1058045756D+00 EUMP2 =    -0.49794939910967D+01

 The electronic state is 1-AG.
 Alpha  occ. eigenvalues --   -0.87439  -0.74336  -0.52767  -0.46123  -0.30475
 Alpha virt. eigenvalues --   -0.02111   0.16302   0.34952   0.52178   0.86017

 Mulliken charges:
               1
     1  H    0.091041
     2  H   -0.012364
     3  H   -0.030899
     4  H   -0.035803
     5  H   -0.011975
     6  H   -0.011975
     7  H   -0.035803
     8  H   -0.030899
     9  H   -0.012364
    10  H    0.091041
 Sum of Mulliken charges =   0.00000

 Dipole moment (field-independent basis, Debye):
    X=              0.0000    Y=             -0.0000    Z=             -0.0000  Tot=              0.0000
 Quadrupole moment (field-independent basis, Debye-Ang):
   XX=            -10.2834   YY=            -16.8188   ZZ=            -12.9589
   XY=              2.4461   XZ=              0.0000   YZ=             -0.0000

 Normal termination of Gaussian 09 at Thu Feb  9 15:27:10 2017.
