 Gaussian 09, Revision E.01,
 Gaussian 09:  ES64L-G09RevE.01 30-Nov-2015

 ----------------------------------------------------------------------
 #rhf/gen scf(symm,tight,novaracc,noincfock,fulldiag) stable(crhf) geom
 =nocrowd test
 ----------------------------------------------------------------------

 hf stability analysis of h10 triangular lattice, y= 0.7738919704515643
 3
 ----------------------------------------------------------------------
 Symbolic Z-matrix:
 Charge =  0 Multiplicity = 1

                         Standard orientation:
 ---------------------------------------------------------------------
 Center     Atomic      Atomic             Coordinates (Angstroms)
 Number     Number       Type             X           Y           Z
 ---------------------------------------------------------------------
      1          1           0        2.148418    0.616244    0.000000
      2          1           0        2.148418   -0.458687    0.000000
      3          1           0        1.074209    0.576855    0.000000
      4          1           0        1.074209   -0.498076    0.000000
      5          1           0        0.000000    0.537465    0.000000
      6          1           0       -0.000000   -0.537465    0.000000
      7          1           0       -1.074209    0.498076    0.000000
      8          1           0       -1.074209   -0.576855    0.000000
      9          1           0       -2.148418    0.458687    0.000000
     10          1           0       -2.148418   -0.616244    0.000000
 ---------------------------------------------------------------------

 SCF Done:  E(RHF) =  -4.88605520397     A.U. after   10 cycles
 E2 =    -0.1050080983D+00 EUMP2 =    -0.49910633022829D+01

 The electronic state is 1-AG.
 Alpha  occ. eigenvalues --   -0.87755  -0.74522  -0.52645  -0.46840  -0.31188
 Alpha virt. eigenvalues --   -0.01334   0.15372   0.36739   0.51328   0.90158

 Mulliken charges:
               1
     1  H    0.051887
     2  H    0.028977
     3  H   -0.033073
     4  H   -0.033703
     5  H   -0.014088
     6  H   -0.014088
     7  H   -0.033703
     8  H   -0.033073
     9  H    0.028977
    10  H    0.051887
 Sum of Mulliken charges =   0.00000

 Dipole moment (field-independent basis, Debye):
    X=             -0.0000    Y=             -0.0000    Z=              0.0000  Tot=              0.0000
 Quadrupole moment (field-independent basis, Debye-Ang):
   XX=            -10.0744   YY=            -17.3806   ZZ=            -12.9546
   XY=              0.5409   XZ=              0.0000   YZ=              0.0000

 Normal termination of Gaussian 09 at Thu Feb  9 15:23:54 2017.
