 Gaussian 09, Revision E.01,
 Gaussian 09:  ES64L-G09RevE.01 30-Nov-2015

 ----------------------------------------------------------------------
 #rhf/gen scf(symm,tight,novaracc,noincfock,fulldiag) stable(crhf) geom
 =nocrowd test
 ----------------------------------------------------------------------

 hf stability analysis of h10 triangular lattice, y= 0.8865479076884478
 2
 ----------------------------------------------------------------------
 Symbolic Z-matrix:
 Charge =  0 Multiplicity = 1

                         Standard orientation:
 ---------------------------------------------------------------------
 Center     Atomic      Atomic             Coordinates (Angstroms)
 Number     Number       Type             X           Y           Z
 ---------------------------------------------------------------------
      1          1           0        2.099392    1.207926   -0.000000
      2          1           0        2.099392    0.107893   -0.000000
      3          1           0        1.049696    0.878971   -0.000000
      4          1           0        1.049696   -0.221062   -0.000000
      5          1           0       -0.000000    0.550017   -0.000000
      6          1           0       -0.000000   -0.550017   -0.000000
      7          1           0       -1.049696    0.221062   -0.000000
      8          1           0       -1.049696   -0.878971   -0.000000
      9          1           0       -2.099392   -0.107893   -0.000000
     10          1           0       -2.099392   -1.207926   -0.000000
 ---------------------------------------------------------------------

 SCF Done:  E(RHF) =  -4.85720986770     A.U. after   10 cycles
 E2 =    -0.1133623698D+00 EUMP2 =    -0.49705722374528D+01

 The electronic state is 1-AG.
 Alpha  occ. eigenvalues --   -0.85823  -0.73904  -0.54662  -0.38737  -0.29447
 Alpha virt. eigenvalues --   -0.02460   0.21868   0.29484   0.53195   0.78403

 Mulliken charges:
               1
     1  H   -0.084603
     2  H    0.121698
     3  H    0.070311
     4  H   -0.101697
     5  H   -0.005710
     6  H   -0.005710
     7  H   -0.101697
     8  H    0.070311
     9  H    0.121698
    10  H   -0.084603
 Sum of Mulliken charges =   0.00000

 Dipole moment (field-independent basis, Debye):
    X=             -0.0000    Y=              0.0000    Z=             -0.0000  Tot=              0.0000
 Quadrupole moment (field-independent basis, Debye-Ang):
   XX=            -15.2065   YY=            -14.6229   ZZ=            -12.8673
   XY=             -1.7973   XZ=             -0.0000   YZ=             -0.0000

 Normal termination of Gaussian 09 at Thu Feb  9 15:30:32 2017.
