 Gaussian 09, Revision E.01,
 Gaussian 09:  ES64L-G09RevE.01 30-Nov-2015

 ----------------------------------------------------------------------
 #rhf/gen scf(symm,tight,novaracc,noincfock,fulldiag) stable(crhf) geom
 =nocrowd test
 ----------------------------------------------------------------------

 hf stability analysis of h10 triangular lattice, y= 0.8406196945607729
 0
 ----------------------------------------------------------------------
 Symbolic Z-matrix:
 Charge =  0 Multiplicity = 1

                         Standard orientation:
 ---------------------------------------------------------------------
 Center     Atomic      Atomic             Coordinates (Angstroms)
 Number     Number       Type             X           Y           Z
 ---------------------------------------------------------------------
      1          1           0        2.127458    0.975597   -0.000000
      2          1           0        2.127458   -0.109924   -0.000000
      3          1           0        1.063729    0.759179   -0.000000
      4          1           0        1.063729   -0.326342   -0.000000
      5          1           0        0.000000    0.542761    0.000000
      6          1           0       -0.000000   -0.542761    0.000000
      7          1           0       -1.063729    0.326342   -0.000000
      8          1           0       -1.063729   -0.759179   -0.000000
      9          1           0       -2.127458    0.109924   -0.000000
     10          1           0       -2.127458   -0.975597   -0.000000
 ---------------------------------------------------------------------

 SCF Done:  E(RHF) =  -4.84819519552     A.U. after   10 cycles
 E2 =    -0.1147741115D+00 EUMP2 =    -0.49629693070462D+01

 The electronic state is 1-AG.
 Alpha  occ. eigenvalues --   -0.86164  -0.73727  -0.54488  -0.39986  -0.28928
 Alpha virt. eigenvalues --   -0.02992   0.21229   0.31986   0.52380   0.85853

 Mulliken charges:
               1
     1  H   -0.058588
     2  H    0.093224
     3  H    0.040776
     4  H   -0.082432
     5  H    0.007019
     6  H    0.007019
     7  H   -0.082432
     8  H    0.040776
     9  H    0.093224
    10  H   -0.058588
 Sum of Mulliken charges =   0.00000

 Dipole moment (field-independent basis, Debye):
    X=             -0.0000    Y=              0.0000    Z=             -0.0000  Tot=              0.0000
 Quadrupole moment (field-independent basis, Debye-Ang):
   XX=            -15.7379   YY=            -13.9799   ZZ=            -12.8273
   XY=             -1.4381   XZ=             -0.0000   YZ=             -0.0000

 Normal termination of Gaussian 09 at Thu Feb  9 15:27:59 2017.
