 Gaussian 09, Revision E.01,
 Gaussian 09:  ES64L-G09RevE.01 30-Nov-2015

 ----------------------------------------------------------------------
 #rhf/gen scf(symm,tight,novaracc,noincfock,fulldiag) stable(crhf) geom
 =nocrowd test
 ----------------------------------------------------------------------

 ----------------------------------------------------------------------
 hf stability analysis of h10 triangular lattice, y= 1.6171137289532584
 ----------------------------------------------------------------------
 Symbolic Z-matrix:
 Charge =  0 Multiplicity = 1

                         Standard orientation:
 ---------------------------------------------------------------------
 Center     Atomic      Atomic             Coordinates (Angstroms)
 Number     Number       Type             X           Y           Z
 ---------------------------------------------------------------------
      1          1           0        1.394518    3.832261    0.000000
      2          1           0        1.394518    2.176204    0.000000
      3          1           0        0.697259    2.330145    0.000000
      4          1           0        0.697259    0.674088    0.000000
      5          1           0        0.000000    0.828028    0.000000
      6          1           0       -0.000000   -0.828028    0.000000
      7          1           0       -0.697259   -0.674088    0.000000
      8          1           0       -0.697259   -2.330145    0.000000
      9          1           0       -1.394518   -2.176204    0.000000
     10          1           0       -1.394518   -3.832261    0.000000
 ---------------------------------------------------------------------

 SCF Done:  E(RHF) =  -4.91851084818     A.U. after    8 cycles
 E2 =    -0.5385056223D+00 EUMP2 =    -0.54570164704577D+01

 The electronic state is 1-AG.
 Alpha  occ. eigenvalues --   -0.75777  -0.70575  -0.62200  -0.52013  -0.16803
 Alpha virt. eigenvalues --   -0.09468   0.25455   0.35205   0.49851   0.64275

 Mulliken charges:
               1
     1  H   -0.062553
     2  H    0.019044
     3  H    0.027428
     4  H    0.005377
     5  H    0.010704
     6  H    0.010704
     7  H    0.005377
     8  H    0.027428
     9  H    0.019044
    10  H   -0.062553
 Sum of Mulliken charges =  -0.00000

 Dipole moment (field-independent basis, Debye):
    X=              0.0000    Y=             -0.0000    Z=             -0.0000  Tot=              0.0000
 Quadrupole moment (field-independent basis, Debye-Ang):
   XX=            -12.8408   YY=            -23.8124   ZZ=            -12.9938
   XY=             -4.3275   XZ=             -0.0000   YZ=              0.0000

 Normal termination of Gaussian 09 at Thu Feb  9 15:53:12 2017.
