 Gaussian 09, Revision E.01,
 Gaussian 09:  ES64L-G09RevE.01 30-Nov-2015

 ----------------------------------------------------------------------
 #rhf/gen scf(symm,tight,novaracc,noincfock,fulldiag) stable(crhf) geom
 =nocrowd test
 ----------------------------------------------------------------------

 ----------------------------------------------------------------------
 hf stability analysis of h10 triangular lattice, y= 1.0420355127918348
 ----------------------------------------------------------------------
 Symbolic Z-matrix:
 Charge =  0 Multiplicity = 1

                         Standard orientation:
 ---------------------------------------------------------------------
 Center     Atomic      Atomic             Coordinates (Angstroms)
 Number     Number       Type             X           Y           Z
 ---------------------------------------------------------------------
      1          1           0        1.956824    1.909984    0.000000
      2          1           0        1.956824    0.729805    0.000000
      3          1           0        0.978412    1.250036    0.000000
      4          1           0        0.978412    0.069858   -0.000000
      5          1           0       -0.000000    0.590089    0.000000
      6          1           0       -0.000000   -0.590089    0.000000
      7          1           0       -0.978412   -0.069858   -0.000000
      8          1           0       -0.978412   -1.250036    0.000000
      9          1           0       -1.956824   -0.729805    0.000000
     10          1           0       -1.956824   -1.909984    0.000000
 ---------------------------------------------------------------------

 SCF Done:  E(RHF) =  -4.86248565325     A.U. after   10 cycles
 E2 =    -0.1146758243D+00 EUMP2 =    -0.49771614775891D+01

 The electronic state is 1-AG.
 Alpha  occ. eigenvalues --   -0.83326  -0.73884  -0.55239  -0.32416  -0.30622
 Alpha virt. eigenvalues --    0.00967   0.19306   0.24314   0.51833   0.57231

 Mulliken charges:
               1
     1  H   -0.076997
     2  H    0.141508
     3  H    0.112103
     4  H   -0.121467
     5  H   -0.055147
     6  H   -0.055147
     7  H   -0.121467
     8  H    0.112103
     9  H    0.141508
    10  H   -0.076997
 Sum of Mulliken charges =  -0.00000

 Dipole moment (field-independent basis, Debye):
    X=              0.0000    Y=             -0.0000    Z=              0.0000  Tot=              0.0000
 Quadrupole moment (field-independent basis, Debye-Ang):
   XX=            -13.0219   YY=            -15.2080   ZZ=            -13.0329
   XY=             -0.2410   XZ=              0.0000   YZ=              0.0000

 Normal termination of Gaussian 09 at Thu Feb  9 15:38:08 2017.
