 Gaussian 09, Revision E.01,
 Gaussian 09:  ES64L-G09RevE.01 30-Nov-2015

 ----------------------------------------------------------------------
 #rhf/gen scf(symm,tight,novaracc,noincfock,fulldiag) stable(crhf) geom
 =nocrowd test
 ----------------------------------------------------------------------

 hf stability analysis of h10 triangular lattice, y= 0.8947155610204194
 9
 ----------------------------------------------------------------------
 Symbolic Z-matrix:
 Charge =  0 Multiplicity = 1

                         Standard orientation:
 ---------------------------------------------------------------------
 Center     Atomic      Atomic             Coordinates (Angstroms)
 Number     Number       Type             X           Y           Z
 ---------------------------------------------------------------------
      1          1           0        2.093483    1.247978    0.000000
      2          1           0        2.093483    0.144840    0.000000
      3          1           0        1.046741    0.899774    0.000000
      4          1           0        1.046741   -0.203365   -0.000000
      5          1           0       -0.000000    0.551569    0.000000
      6          1           0       -0.000000   -0.551569    0.000000
      7          1           0       -1.046741    0.203365   -0.000000
      8          1           0       -1.046741   -0.899774   -0.000000
      9          1           0       -2.093483   -0.144840   -0.000000
     10          1           0       -2.093483   -1.247978   -0.000000
 ---------------------------------------------------------------------

 SCF Done:  E(RHF) =  -4.85875830363     A.U. after   10 cycles
 E2 =    -0.1131568715D+00 EUMP2 =    -0.49719151750889D+01

 The electronic state is 1-AG.
 Alpha  occ. eigenvalues --   -0.85743  -0.73931  -0.54697  -0.38466  -0.29549
 Alpha virt. eigenvalues --   -0.02338   0.21999   0.28981   0.53364   0.76953

 Mulliken charges:
               1
     1  H   -0.087707
     2  H    0.125527
     3  H    0.074651
     4  H   -0.104279
     5  H   -0.008191
     6  H   -0.008191
     7  H   -0.104279
     8  H    0.074651
     9  H    0.125527
    10  H   -0.087707
 Sum of Mulliken charges =  -0.00000

 Dipole moment (field-independent basis, Debye):
    X=             -0.0000    Y=              0.0000    Z=             -0.0000  Tot=              0.0000
 Quadrupole moment (field-independent basis, Debye-Ang):
   XX=            -15.0978   YY=            -14.7348   ZZ=            -12.8753
   XY=             -1.8186   XZ=             -0.0000   YZ=             -0.0000

 Normal termination of Gaussian 09 at Thu Feb  9 15:30:58 2017.
