 Gaussian 09, Revision E.01,
 Gaussian 09:  ES64L-G09RevE.01 30-Nov-2015

 ----------------------------------------------------------------------
 #rhf/gen scf(symm,tight,novaracc,noincfock,fulldiag) stable(crhf) geom
 =nocrowd test
 ----------------------------------------------------------------------

 hf stability analysis of h10 triangular lattice, y= 0.8287587961981892
 6
 ----------------------------------------------------------------------
 Symbolic Z-matrix:
 Charge =  0 Multiplicity = 1

                         Standard orientation:
 ---------------------------------------------------------------------
 Center     Atomic      Atomic             Coordinates (Angstroms)
 Number     Number       Type             X           Y           Z
 ---------------------------------------------------------------------
      1          1           0        2.133079    0.913612    0.000000
      2          1           0        2.133079   -0.169049    0.000000
      3          1           0        1.066539    0.727471    0.000000
      4          1           0        1.066539   -0.355190    0.000000
      5          1           0        0.000000    0.541330    0.000000
      6          1           0       -0.000000   -0.541330    0.000000
      7          1           0       -1.066539    0.355190   -0.000000
      8          1           0       -1.066539   -0.727471   -0.000000
      9          1           0       -2.133079    0.169049   -0.000000
     10          1           0       -2.133079   -0.913612   -0.000000
 ---------------------------------------------------------------------

 SCF Done:  E(RHF) =  -4.87284946766     A.U. after   10 cycles
 E2 =    -0.1058595418D+00 EUMP2 =    -0.49787090095035D+01

 The electronic state is 1-AG.
 Alpha  occ. eigenvalues --   -0.87418  -0.74323  -0.52775  -0.46075  -0.30428
 Alpha virt. eigenvalues --   -0.02160   0.16361   0.34840   0.52228   0.85751

 Mulliken charges:
               1
     1  H    0.092532
     2  H   -0.014009
     3  H   -0.030749
     4  H   -0.035952
     5  H   -0.011823
     6  H   -0.011823
     7  H   -0.035952
     8  H   -0.030749
     9  H   -0.014009
    10  H    0.092532
 Sum of Mulliken charges =   0.00000

 Dipole moment (field-independent basis, Debye):
    X=             -0.0000    Y=              0.0000    Z=             -0.0000  Tot=              0.0000
 Quadrupole moment (field-independent basis, Debye-Ang):
   XX=            -10.2977   YY=            -16.7813   ZZ=            -12.9592
   XY=              2.5206   XZ=              0.0000   YZ=              0.0000

 Normal termination of Gaussian 09 at Thu Feb  9 15:27:18 2017.
