 Gaussian 09, Revision E.01,
 Gaussian 09:  ES64L-G09RevE.01 30-Nov-2015

 ----------------------------------------------------------------------
 #rhf/gen scf(symm,tight,novaracc,noincfock,fulldiag) stable(crhf) geom
 =nocrowd test
 ----------------------------------------------------------------------

 hf stability analysis of h10 triangular lattice, y= 0.8049868118336639
 4
 ----------------------------------------------------------------------
 Symbolic Z-matrix:
 Charge =  0 Multiplicity = 1

                         Standard orientation:
 ---------------------------------------------------------------------
 Center     Atomic      Atomic             Coordinates (Angstroms)
 Number     Number       Type             X           Y           Z
 ---------------------------------------------------------------------
      1          1           0        2.142007    0.786913    0.000000
      2          1           0        2.142007   -0.291236    0.000000
      3          1           0        1.071003    0.662994    0.000000
      4          1           0        1.071003   -0.415155    0.000000
      5          1           0        0.000000    0.539074    0.000000
      6          1           0       -0.000000   -0.539074   -0.000000
      7          1           0       -1.071003    0.415155   -0.000000
      8          1           0       -1.071003   -0.662994   -0.000000
      9          1           0       -2.142007    0.291236   -0.000000
     10          1           0       -2.142007   -0.786913   -0.000000
 ---------------------------------------------------------------------

 SCF Done:  E(RHF) =  -4.88059243128     A.U. after   10 cycles
 E2 =    -0.1053570667D+00 EUMP2 =    -0.49859494979669D+01

 The electronic state is 1-AG.
 Alpha  occ. eigenvalues --   -0.87613  -0.74439  -0.52701  -0.46521  -0.30868
 Alpha virt. eigenvalues --   -0.01692   0.15798   0.35915   0.51731   0.88276

 Mulliken charges:
               1
     1  H    0.075760
     2  H    0.004154
     3  H   -0.032069
     4  H   -0.034660
     5  H   -0.013184
     6  H   -0.013184
     7  H   -0.034660
     8  H   -0.032069
     9  H    0.004154
    10  H    0.075760
 Sum of Mulliken charges =   0.00000

 Dipole moment (field-independent basis, Debye):
    X=              0.0000    Y=             -0.0000    Z=             -0.0000  Tot=              0.0000
 Quadrupole moment (field-independent basis, Debye-Ang):
   XX=            -10.1665   YY=            -17.1302   ZZ=            -12.9565
   XY=              1.6921   XZ=              0.0000   YZ=              0.0000

 Normal termination of Gaussian 09 at Thu Feb  9 15:25:51 2017.
