 Gaussian 09, Revision E.01,
 Gaussian 09:  ES64L-G09RevE.01 30-Nov-2015

 ----------------------------------------------------------------------
 #rhf/gen scf(symm,tight,novaracc,noincfock,fulldiag) stable(crhf) geom
 =nocrowd test
 ----------------------------------------------------------------------

 ----------------------------------------------------------------------
 hf stability analysis of h10 triangular lattice, y= 1.0952832261973782
 ----------------------------------------------------------------------
 Symbolic Z-matrix:
 Charge =  0 Multiplicity = 1

                         Standard orientation:
 ---------------------------------------------------------------------
 Center     Atomic      Atomic             Coordinates (Angstroms)
 Number     Number       Type             X           Y           Z
 ---------------------------------------------------------------------
      1          1           0        1.899918    2.124448    0.000000
      2          1           0        1.899918    0.908921    0.000000
      3          1           0        0.949959    1.366106    0.000000
      4          1           0        0.949959    0.150579    0.000000
      5          1           0       -0.000000    0.607763    0.000000
      6          1           0       -0.000000   -0.607763    0.000000
      7          1           0       -0.949959   -0.150579    0.000000
      8          1           0       -0.949959   -1.366106    0.000000
      9          1           0       -1.899918   -0.908921    0.000000
     10          1           0       -1.899918   -2.124448    0.000000
 ---------------------------------------------------------------------

 SCF Done:  E(RHF) =  -4.84666210537     A.U. after   10 cycles
 E2 =    -0.1178206642D+00 EUMP2 =    -0.49644827695684D+01

 The electronic state is 1-AG.
 Alpha  occ. eigenvalues --   -0.82077  -0.73566  -0.55323  -0.32558  -0.27920
 Alpha virt. eigenvalues --    0.02237   0.16423   0.24316   0.45322   0.58855

 Mulliken charges:
               1
     1  H   -0.050950
     2  H    0.128826
     3  H    0.113147
     4  H   -0.118572
     5  H   -0.072452
     6  H   -0.072452
     7  H   -0.118572
     8  H    0.113147
     9  H    0.128826
    10  H   -0.050950
 Sum of Mulliken charges =  -0.00000

 Dipole moment (field-independent basis, Debye):
    X=             -0.0000    Y=              0.0000    Z=              0.0000  Tot=              0.0000
 Quadrupole moment (field-independent basis, Debye-Ang):
   XX=            -12.4137   YY=            -14.2642   ZZ=            -13.0853
   XY=              0.9869   XZ=             -0.0000   YZ=              0.0000

 Normal termination of Gaussian 09 at Thu Feb  9 15:40:20 2017.
