 Gaussian 09, Revision E.01,
 Gaussian 09:  ES64L-G09RevE.01 30-Nov-2015

 ----------------------------------------------------------------------
 #rhf/gen scf(symm,tight,novaracc,noincfock,fulldiag) stable(crhf) geom
 =nocrowd test
 ----------------------------------------------------------------------

 ----------------------------------------------------------------------
 hf stability analysis of h10 triangular lattice, y= 1.0808235704374589
 ----------------------------------------------------------------------
 Symbolic Z-matrix:
 Charge =  0 Multiplicity = 1

                         Standard orientation:
 ---------------------------------------------------------------------
 Center     Atomic      Atomic             Coordinates (Angstroms)
 Number     Number       Type             X           Y           Z
 ---------------------------------------------------------------------
      1          1           0        1.915527    2.067342    0.000000
      2          1           0        1.915527    0.861720    0.000000
      3          1           0        0.957764    1.335076    0.000000
      4          1           0        0.957764    0.129455    0.000000
      5          1           0       -0.000000    0.602811    0.000000
      6          1           0       -0.000000   -0.602811    0.000000
      7          1           0       -0.957764   -0.129455    0.000000
      8          1           0       -0.957764   -1.335076    0.000000
      9          1           0       -1.915527   -0.861720    0.000000
     10          1           0       -1.915527   -2.067342    0.000000
 ---------------------------------------------------------------------

 SCF Done:  E(RHF) =  -4.85199086100     A.U. after   10 cycles
 E2 =    -0.1168458932D+00 EUMP2 =    -0.49688367541757D+01

 The electronic state is 1-AG.
 Alpha  occ. eigenvalues --   -0.82431  -0.73667  -0.55308  -0.32426  -0.28779
 Alpha virt. eigenvalues --    0.01923   0.17129   0.24422   0.46874   0.58408

 Mulliken charges:
               1
     1  H   -0.058797
     2  H    0.133000
     3  H    0.113208
     4  H   -0.119731
     5  H   -0.067680
     6  H   -0.067680
     7  H   -0.119731
     8  H    0.113208
     9  H    0.133000
    10  H   -0.058797
 Sum of Mulliken charges =  -0.00000

 Dipole moment (field-independent basis, Debye):
    X=              0.0000    Y=              0.0000    Z=              0.0000  Tot=              0.0000
 Quadrupole moment (field-independent basis, Debye-Ang):
   XX=            -12.5662   YY=            -14.5891   ZZ=            -13.0717
   XY=              0.6317   XZ=             -0.0000   YZ=              0.0000

 Normal termination of Gaussian 09 at Thu Feb  9 15:39:45 2017.
