 Gaussian 09, Revision E.01,
 Gaussian 09:  ES64L-G09RevE.01 30-Nov-2015

 ----------------------------------------------------------------------
 #rhf/gen scf(symm,tight,novaracc,noincfock,fulldiag) stable(crhf) geom
 =nocrowd test
 ----------------------------------------------------------------------

 ----------------------------------------------------------------------
 hf stability analysis of h10 triangular lattice, y= 1.4552307619668963
 ----------------------------------------------------------------------
 Symbolic Z-matrix:
 Charge =  0 Multiplicity = 1

                         Standard orientation:
 ---------------------------------------------------------------------
 Center     Atomic      Atomic             Coordinates (Angstroms)
 Number     Number       Type             X           Y           Z
 ---------------------------------------------------------------------
      1          1           0        1.531084    3.353437   -0.000000
      2          1           0        1.531084    1.845094   -0.000000
      3          1           0        0.765542    2.053805   -0.000000
      4          1           0        0.765542    0.545461   -0.000000
      5          1           0        0.000000    0.754172   -0.000000
      6          1           0       -0.000000   -0.754172   -0.000000
      7          1           0       -0.765542   -0.545461    0.000000
      8          1           0       -0.765542   -2.053805   -0.000000
      9          1           0       -1.531084   -1.845094   -0.000000
     10          1           0       -1.531084   -3.353437   -0.000000
 ---------------------------------------------------------------------

 SCF Done:  E(RHF) =  -4.85857311624     A.U. after    9 cycles
 E2 =    -0.3646990764D+00 EUMP2 =    -0.52232721926318D+01

 The electronic state is 1-AG.
 Alpha  occ. eigenvalues --   -0.79070  -0.71886  -0.60746  -0.46753  -0.13829
 Alpha virt. eigenvalues --   -0.04121   0.16172   0.27702   0.44432   0.60398

 Mulliken charges:
               1
     1  H   -0.145520
     2  H    0.037092
     3  H    0.061861
     4  H    0.019448
     5  H    0.027119
     6  H    0.027119
     7  H    0.019448
     8  H    0.061861
     9  H    0.037092
    10  H   -0.145520
 Sum of Mulliken charges =   0.00000

 Dipole moment (field-independent basis, Debye):
    X=              0.0000    Y=              0.0000    Z=              0.0000  Tot=              0.0000
 Quadrupole moment (field-independent basis, Debye-Ang):
   XX=            -14.4235   YY=            -29.2426   ZZ=            -12.8736
   XY=             -8.0269   XZ=             -0.0000   YZ=             -0.0000

 Normal termination of Gaussian 09 at Thu Feb  9 15:50:30 2017.
