 Gaussian 09, Revision E.01,
 Gaussian 09:  ES64L-G09RevE.01 30-Nov-2015

 ----------------------------------------------------------------------
 #rhf/gen scf(symm,tight,novaracc,noincfock,fulldiag) stable(crhf) geom
 =nocrowd test
 ----------------------------------------------------------------------

 ----------------------------------------------------------------------
 hf stability analysis of h10 triangular lattice, y= 2.4157467869858533
 ----------------------------------------------------------------------
 Symbolic Z-matrix:
 Charge =  0 Multiplicity = 1

                         Standard orientation:
 ---------------------------------------------------------------------
 Center     Atomic      Atomic             Coordinates (Angstroms)
 Number     Number       Type             X           Y           Z
 ---------------------------------------------------------------------
      1          1           0        0.951334    5.974733    0.000000
      2          1           0        0.951334    3.547193    0.000000
      3          1           0        0.475667    3.594251    0.000000
      4          1           0        0.475667    1.166711   -0.000000
      5          1           0       -0.000000    1.213770    0.000000
      6          1           0       -0.000000   -1.213770    0.000000
      7          1           0       -0.475667   -1.166711   -0.000000
      8          1           0       -0.475667   -3.594251    0.000000
      9          1           0       -0.951334   -3.547193    0.000000
     10          1           0       -0.951334   -5.974733    0.000000
 ---------------------------------------------------------------------

 SCF Done:  E(RHF) =  -4.41786026441     A.U. after    5 cycles
 E2 =    -0.1004893072D+01 EUMP2 =    -0.54227533368157D+01

 The electronic state is 1-AG.
 Alpha  occ. eigenvalues --   -0.73833  -0.72760  -0.71294  -0.69972  -0.20520
 Alpha virt. eigenvalues --   -0.16144   0.55931   0.60470   0.66694   0.72288

 Mulliken charges:
               1
     1  H    0.001251
     2  H   -0.000095
     3  H   -0.001166
     4  H   -0.000088
     5  H    0.000099
     6  H    0.000099
     7  H   -0.000088
     8  H   -0.001166
     9  H   -0.000095
    10  H    0.001251
 Sum of Mulliken charges =  -0.00000

 Dipole moment (field-independent basis, Debye):
    X=              0.0000    Y=              0.0000    Z=              0.0000  Tot=              0.0000
 Quadrupole moment (field-independent basis, Debye-Ang):
   XX=            -12.7126   YY=            -14.8743   ZZ=            -13.4854
   XY=             -0.3097   XZ=              0.0000   YZ=             -0.0000

 Normal termination of Gaussian 09 at Thu Feb  9 15:59:38 2017.
