 Gaussian 09, Revision E.01,
 Gaussian 09:  ES64L-G09RevE.01 30-Nov-2015

 ----------------------------------------------------------------------
 #rhf/gen scf(symm,tight,novaracc,noincfock,fulldiag) stable(crhf) geom
 =nocrowd test
 ----------------------------------------------------------------------

 hf stability analysis of h10 triangular lattice, y= 0.9630950393493746
 8
 ----------------------------------------------------------------------
 Symbolic Z-matrix:
 Charge =  0 Multiplicity = 1

                         Standard orientation:
 ---------------------------------------------------------------------
 Center     Atomic      Atomic             Coordinates (Angstroms)
 Number     Number       Type             X           Y           Z
 ---------------------------------------------------------------------
      1          1           0        2.035745    1.568924    0.000000
      2          1           0        2.035745    0.434498    0.000000
      3          1           0        1.017873    1.068068    0.000000
      4          1           0        1.017873   -0.066357   -0.000000
      5          1           0       -0.000000    0.567213    0.000000
      6          1           0       -0.000000   -0.567213    0.000000
      7          1           0       -1.017873    0.066357   -0.000000
      8          1           0       -1.017873   -1.068068    0.000000
      9          1           0       -2.035745   -0.434498    0.000000
     10          1           0       -2.035745   -1.568924    0.000000
 ---------------------------------------------------------------------

 SCF Done:  E(RHF) =  -4.86770758072     A.U. after   10 cycles
 E2 =    -0.1125128246D+00 EUMP2 =    -0.49802204053300D+01

 The electronic state is 1-AG.
 Alpha  occ. eigenvalues --   -0.84841  -0.74056  -0.54984  -0.35710  -0.30433
 Alpha virt. eigenvalues --   -0.01013   0.23185   0.24457   0.54999   0.64566

 Mulliken charges:
               1
     1  H   -0.096844
     2  H    0.144226
     3  H    0.100546
     4  H   -0.118057
     5  H   -0.029872
     6  H   -0.029872
     7  H   -0.118057
     8  H    0.100546
     9  H    0.144226
    10  H   -0.096844
 Sum of Mulliken charges =   0.00000

 Dipole moment (field-independent basis, Debye):
    X=              0.0000    Y=              0.0000    Z=              0.0000  Tot=              0.0000
 Quadrupole moment (field-independent basis, Debye-Ang):
   XX=            -14.1136   YY=            -15.4177   ZZ=            -12.9480
   XY=             -1.5072   XZ=              0.0000   YZ=              0.0000

 Normal termination of Gaussian 09 at Thu Feb  9 15:34:22 2017.
