 Gaussian 09, Revision E.01,
 Gaussian 09:  ES64L-G09RevE.01 30-Nov-2015

 ----------------------------------------------------------------------
 #rhf/gen scf(symm,tight,novaracc,noincfock,fulldiag) stable(crhf) geom
 =nocrowd test
 ----------------------------------------------------------------------

 hf stability analysis of h10 triangular lattice, y= 0.8120972424142406
 4
 ----------------------------------------------------------------------
 Symbolic Z-matrix:
 Charge =  0 Multiplicity = 1

                         Standard orientation:
 ---------------------------------------------------------------------
 Center     Atomic      Atomic             Coordinates (Angstroms)
 Number     Number       Type             X           Y           Z
 ---------------------------------------------------------------------
      1          1           0        2.139680    0.825155    0.000000
      2          1           0        2.139680   -0.254166    0.000000
      3          1           0        1.069840    0.682408    0.000000
      4          1           0        1.069840   -0.396913    0.000000
      5          1           0        0.000000    0.539661    0.000000
      6          1           0       -0.000000   -0.539661    0.000000
      7          1           0       -1.069840    0.396913    0.000000
      8          1           0       -1.069840   -0.682408    0.000000
      9          1           0       -2.139680    0.254166    0.000000
     10          1           0       -2.139680   -0.825155    0.000000
 ---------------------------------------------------------------------

 SCF Done:  E(RHF) =  -4.87858938684     A.U. after   10 cycles
 E2 =    -0.1054861551D+00 EUMP2 =    -0.49840755419086D+01

 The electronic state is 1-AG.
 Alpha  occ. eigenvalues --   -0.87562  -0.74409  -0.52721  -0.46404  -0.30753
 Alpha virt. eigenvalues --   -0.01817   0.15948   0.35627   0.51867   0.87608

 Mulliken charges:
               1
     1  H    0.080922
     2  H   -0.001363
     3  H   -0.031738
     4  H   -0.034980
     5  H   -0.012842
     6  H   -0.012842
     7  H   -0.034980
     8  H   -0.031738
     9  H   -0.001363
    10  H    0.080922
 Sum of Mulliken charges =   0.00000

 Dipole moment (field-independent basis, Debye):
    X=             -0.0000    Y=             -0.0000    Z=              0.0000  Tot=              0.0000
 Quadrupole moment (field-independent basis, Debye-Ang):
   XX=            -10.2003   YY=            -17.0392   ZZ=            -12.9572
   XY=              1.9451   XZ=              0.0000   YZ=              0.0000

 Normal termination of Gaussian 09 at Thu Feb  9 15:26:17 2017.
