 Gaussian 09, Revision E.01,
 Gaussian 09:  ES64L-G09RevE.01 30-Nov-2015

 ----------------------------------------------------------------------
 #rhf/gen scf(symm,tight,novaracc,noincfock,fulldiag) stable(crhf) geom
 =nocrowd test
 ----------------------------------------------------------------------

 ----------------------------------------------------------------------
 hf stability analysis of h10 triangular lattice, y= 2.1922886470187501
 ----------------------------------------------------------------------
 Symbolic Z-matrix:
 Charge =  0 Multiplicity = 1

                         Standard orientation:
 ---------------------------------------------------------------------
 Center     Atomic      Atomic             Coordinates (Angstroms)
 Number     Number       Type             X           Y           Z
 ---------------------------------------------------------------------
      1          1           0        1.045901    5.394483   -0.000000
      2          1           0        1.045901    3.186433   -0.000000
      3          1           0        0.522950    3.249254   -0.000000
      4          1           0        0.522950    1.041204   -0.000000
      5          1           0        0.000000    1.104025    0.000000
      6          1           0       -0.000000   -1.104025    0.000000
      7          1           0       -0.522950   -1.041204   -0.000000
      8          1           0       -0.522950   -3.249254   -0.000000
      9          1           0       -1.045901   -3.186433   -0.000000
     10          1           0       -1.045901   -5.394483   -0.000000
 ---------------------------------------------------------------------

 SCF Done:  E(RHF) =  -4.64439588338     A.U. after    5 cycles
 E2 =    -0.9051119245D+00 EUMP2 =    -0.55495078078677D+01

 The electronic state is 1-AG.
 Alpha  occ. eigenvalues --   -0.73391  -0.71618  -0.69048  -0.66550  -0.20341
 Alpha virt. eigenvalues --   -0.15512   0.48854   0.54603   0.62724   0.70240

 Mulliken charges:
               1
     1  H    0.000115
     2  H    0.000606
     3  H   -0.000843
     4  H   -0.000175
     5  H    0.000296
     6  H    0.000296
     7  H   -0.000175
     8  H   -0.000843
     9  H    0.000606
    10  H    0.000115
 Sum of Mulliken charges =  -0.00000

 Dipole moment (field-independent basis, Debye):
    X=             -0.0000    Y=              0.0000    Z=             -0.0000  Tot=              0.0000
 Quadrupole moment (field-independent basis, Debye-Ang):
   XX=            -12.5239   YY=            -15.7457   ZZ=            -13.3943
   XY=             -0.5857   XZ=             -0.0000   YZ=              0.0000

 Normal termination of Gaussian 09 at Thu Feb  9 15:58:31 2017.
