 Gaussian 09, Revision E.01,
 Gaussian 09:  ES64L-G09RevE.01 30-Nov-2015

 ----------------------------------------------------------------------
 #rhf/gen scf(symm,tight,novaracc,noincfock,fulldiag) stable(crhf) geom
 =nocrowd test
 ----------------------------------------------------------------------

 hf stability analysis of h10 triangular lattice, y= 0.8339195375386633
 2
 ----------------------------------------------------------------------
 Symbolic Z-matrix:
 Charge =  0 Multiplicity = 1

                         Standard orientation:
 ---------------------------------------------------------------------
 Center     Atomic      Atomic             Coordinates (Angstroms)
 Number     Number       Type             X           Y           Z
 ---------------------------------------------------------------------
      1          1           0        2.130724    0.940683   -0.000000
      2          1           0        2.130724   -0.143175    0.000000
      3          1           0        1.065362    0.741306   -0.000000
      4          1           0        1.065362   -0.342552    0.000000
      5          1           0        0.000000    0.541929   -0.000000
      6          1           0       -0.000000   -0.541929   -0.000000
      7          1           0       -1.065362    0.342552    0.000000
      8          1           0       -1.065362   -0.741306   -0.000000
      9          1           0       -2.130724    0.143175    0.000000
     10          1           0       -2.130724   -0.940683   -0.000000
 ---------------------------------------------------------------------

 SCF Done:  E(RHF) =  -4.84696500936     A.U. after   10 cycles
 E2 =    -0.1149896844D+00 EUMP2 =    -0.49619546937512D+01

 The electronic state is 1-AG.
 Alpha  occ. eigenvalues --   -0.86200  -0.73702  -0.54466  -0.40127  -0.28864
 Alpha virt. eigenvalues --   -0.03048   0.21153   0.32291   0.52283   0.86786

 Mulliken charges:
               1
     1  H   -0.053603
     2  H    0.088080
     3  H    0.035786
     4  H   -0.078881
     5  H    0.008618
     6  H    0.008618
     7  H   -0.078881
     8  H    0.035786
     9  H    0.088080
    10  H   -0.053603
 Sum of Mulliken charges =  -0.00000

 Dipole moment (field-independent basis, Debye):
    X=              0.0000    Y=              0.0000    Z=              0.0000  Tot=              0.0000
 Quadrupole moment (field-independent basis, Debye-Ang):
   XX=            -15.8010   YY=            -13.8928   ZZ=            -12.8224
   XY=             -1.3530   XZ=              0.0000   YZ=              0.0000

 Normal termination of Gaussian 09 at Thu Feb  9 15:27:36 2017.
