 Gaussian 09, Revision E.01,
 Gaussian 09:  ES64L-G09RevE.01 30-Nov-2015

 ----------------------------------------------------------------------
 #rhf/gen scf(symm,tight,novaracc,noincfock,fulldiag) stable(crhf) geom
 =nocrowd test
 ----------------------------------------------------------------------

 ----------------------------------------------------------------------
 hf stability analysis of h10 triangular lattice, y= 1.2091098275984908
 ----------------------------------------------------------------------
 Symbolic Z-matrix:
 Charge =  0 Multiplicity = 1

                         Standard orientation:
 ---------------------------------------------------------------------
 Center     Atomic      Atomic             Coordinates (Angstroms)
 Number     Number       Type             X           Y           Z
 ---------------------------------------------------------------------
      1          1           0        1.776487    2.548387    0.000000
      2          1           0        1.776487    1.248405    0.000000
      3          1           0        0.888244    1.599189    0.000000
      4          1           0        0.888244    0.299207    0.000000
      5          1           0        0.000000    0.649991    0.000000
      6          1           0       -0.000000   -0.649991    0.000000
      7          1           0       -0.888244   -0.299207   -0.000000
      8          1           0       -0.888244   -1.599189   -0.000000
      9          1           0       -1.776487   -1.248405   -0.000000
     10          1           0       -1.776487   -2.548387   -0.000000
 ---------------------------------------------------------------------

 SCF Done:  E(RHF) =  -4.77900776475     A.U. after   11 cycles
 E2 =    -0.1281673436D+00 EUMP2 =    -0.49071751083374D+01

 The electronic state is 1-AG.
 Alpha  occ. eigenvalues --   -0.79026  -0.72432  -0.55226  -0.33849  -0.20342
 Alpha virt. eigenvalues --    0.02368   0.14351   0.19462   0.39778   0.62422

 Mulliken charges:
               1
     1  H    0.024281
     2  H    0.076758
     3  H    0.111802
     4  H   -0.095100
     5  H   -0.117741
     6  H   -0.117741
     7  H   -0.095100
     8  H    0.111802
     9  H    0.076758
    10  H    0.024281
 Sum of Mulliken charges =  -0.00000

 Dipole moment (field-independent basis, Debye):
    X=             -0.0000    Y=              0.0000    Z=             -0.0000  Tot=              0.0000
 Quadrupole moment (field-independent basis, Debye-Ang):
   XX=            -11.6082   YY=             -9.9010   ZZ=            -13.1730
   XY=              4.0574   XZ=              0.0000   YZ=              0.0000

 Normal termination of Gaussian 09 at Thu Feb  9 15:44:24 2017.
