 Gaussian 09, Revision E.01,
 Gaussian 09:  ES64L-G09RevE.01 30-Nov-2015

 ----------------------------------------------------------------------
 #rhf/gen scf(symm,tight,novaracc,noincfock,fulldiag) stable(crhf) geom
 =nocrowd test
 ----------------------------------------------------------------------

 hf stability analysis of h10 triangular lattice, y= 0.8309652271273444
 4
 ----------------------------------------------------------------------
 Symbolic Z-matrix:
 Charge =  0 Multiplicity = 1

                         Standard orientation:
 ---------------------------------------------------------------------
 Center     Atomic      Atomic             Coordinates (Angstroms)
 Number     Number       Type             X           Y           Z
 ---------------------------------------------------------------------
      1          1           0        2.132089    0.925205   -0.000000
      2          1           0        2.132089   -0.157958   -0.000000
      3          1           0        1.066045    0.733393   -0.000000
      4          1           0        1.066045   -0.349770   -0.000000
      5          1           0        0.000000    0.541582    0.000000
      6          1           0       -0.000000   -0.541582    0.000000
      7          1           0       -1.066045    0.349770   -0.000000
      8          1           0       -1.066045   -0.733393   -0.000000
      9          1           0       -2.132089    0.157958   -0.000000
     10          1           0       -2.132089   -0.925205   -0.000000
 ---------------------------------------------------------------------

 SCF Done:  E(RHF) =  -4.87198165378     A.U. after   10 cycles
 E2 =    -0.1059164513D+00 EUMP2 =    -0.49778981050506D+01

 The electronic state is 1-AG.
 Alpha  occ. eigenvalues --   -0.87396  -0.74310  -0.52783  -0.46026  -0.30379
 Alpha virt. eigenvalues --   -0.02210   0.16422   0.34726   0.52280   0.85477

 Mulliken charges:
               1
     1  H    0.094016
     2  H   -0.015651
     3  H   -0.030594
     4  H   -0.036107
     5  H   -0.011664
     6  H   -0.011664
     7  H   -0.036107
     8  H   -0.030594
     9  H   -0.015651
    10  H    0.094016
 Sum of Mulliken charges =  -0.00000

 Dipole moment (field-independent basis, Debye):
    X=              0.0000    Y=             -0.0000    Z=             -0.0000  Tot=              0.0000
 Quadrupole moment (field-independent basis, Debye-Ang):
   XX=            -10.3125   YY=            -16.7427   ZZ=            -12.9595
   XY=              2.5949   XZ=             -0.0000   YZ=              0.0000

 Normal termination of Gaussian 09 at Thu Feb  9 15:27:26 2017.
