 Gaussian 09, Revision E.01,
 Gaussian 09:  ES64L-G09RevE.01 30-Nov-2015

 ----------------------------------------------------------------------
 #rhf/gen scf(symm,tight,novaracc,noincfock,fulldiag) stable(crhf) geom
 =nocrowd test
 ----------------------------------------------------------------------

 ----------------------------------------------------------------------
 hf stability analysis of h10 triangular lattice, y= 1.2894163551668398
 ----------------------------------------------------------------------
 Symbolic Z-matrix:
 Charge =  0 Multiplicity = 1

                         Standard orientation:
 ---------------------------------------------------------------------
 Center     Atomic      Atomic             Coordinates (Angstroms)
 Number     Number       Type             X           Y           Z
 ---------------------------------------------------------------------
      1          1           0        1.691933    2.824833   -0.000000
      2          1           0        1.691933    1.459884   -0.000000
      3          1           0        0.845966    1.753654   -0.000000
      4          1           0        0.845966    0.388705   -0.000000
      5          1           0        0.000000    0.682474    0.000000
      6          1           0       -0.000000   -0.682474   -0.000000
      7          1           0       -0.845966   -0.388705   -0.000000
      8          1           0       -0.845966   -1.753654   -0.000000
      9          1           0       -1.691933   -1.459884   -0.000000
     10          1           0       -1.691933   -2.824833   -0.000000
 ---------------------------------------------------------------------

 SCF Done:  E(RHF) =  -4.72379396167     A.U. after   12 cycles
 E2 =    -0.1910777967D+00 EUMP2 =    -0.49148717583611D+01

 The electronic state is 1-AG.
 Alpha  occ. eigenvalues --   -0.83698  -0.74073  -0.59378  -0.40778  -0.11074
 Alpha virt. eigenvalues --    0.01610   0.09068   0.19460   0.38251   0.54880

 Mulliken charges:
               1
     1  H   -0.257015
     2  H    0.047468
     3  H    0.134041
     4  H    0.032431
     5  H    0.043074
     6  H    0.043074
     7  H    0.032431
     8  H    0.134041
     9  H    0.047468
    10  H   -0.257015
 Sum of Mulliken charges =   0.00000

 Dipole moment (field-independent basis, Debye):
    X=              0.0000    Y=              0.0000    Z=              0.0000  Tot=              0.0000
 Quadrupole moment (field-independent basis, Debye-Ang):
   XX=            -17.8704   YY=            -31.4507   ZZ=            -12.7881
   XY=            -11.9520   XZ=             -0.0000   YZ=             -0.0000

 Normal termination of Gaussian 09 at Thu Feb  9 15:46:44 2017.
