 Gaussian 09, Revision E.01,
 Gaussian 09:  ES64L-G09RevE.01 30-Nov-2015

 ----------------------------------------------------------------------
 #rhf/gen scf(symm,tight,novaracc,noincfock,fulldiag) stable(crhf) geom
 =nocrowd test
 ----------------------------------------------------------------------

 hf stability analysis of h10 triangular lattice, y= 0.7638246997691000
 6
 ----------------------------------------------------------------------
 Symbolic Z-matrix:
 Charge =  0 Multiplicity = 1

                         Standard orientation:
 ---------------------------------------------------------------------
 Center     Atomic      Atomic             Coordinates (Angstroms)
 Number     Number       Type             X           Y           Z
 ---------------------------------------------------------------------
      1          1           0        2.149081    0.559806    0.000000
      2          1           0        2.149081   -0.514794   -0.000000
      3          1           0        1.074540    0.548553    0.000000
      4          1           0        1.074540   -0.526047   -0.000000
      5          1           0        0.000000    0.537300    0.000000
      6          1           0       -0.000000   -0.537300    0.000000
      7          1           0       -1.074540    0.526047   -0.000000
      8          1           0       -1.074540   -0.548553   -0.000000
      9          1           0       -2.149081    0.514794   -0.000000
     10          1           0       -2.149081   -0.559806   -0.000000
 ---------------------------------------------------------------------

 SCF Done:  E(RHF) =  -4.88661530046     A.U. after   10 cycles
 E2 =    -0.1049725689D+00 EUMP2 =    -0.49915878693903D+01

 The electronic state is 1-AG.
 Alpha  occ. eigenvalues --   -0.87769  -0.74531  -0.52639  -0.46874  -0.31221
 Alpha virt. eigenvalues --   -0.01296   0.15327   0.36827   0.51284   0.90356

 Mulliken charges:
               1
     1  H    0.043754
     2  H    0.037205
     3  H   -0.033304
     4  H   -0.033478
     5  H   -0.014178
     6  H   -0.014178
     7  H   -0.033478
     8  H   -0.033304
     9  H    0.037205
    10  H    0.043754
 Sum of Mulliken charges =   0.00000

 Dipole moment (field-independent basis, Debye):
    X=             -0.0000    Y=              0.0000    Z=             -0.0000  Tot=              0.0000
 Quadrupole moment (field-independent basis, Debye-Ang):
   XX=            -10.0650   YY=            -17.4065   ZZ=            -12.9544
   XY=              0.1546   XZ=              0.0000   YZ=             -0.0000

 Normal termination of Gaussian 09 at Thu Feb  9 15:23:16 2017.
