 Gaussian 09, Revision E.01,
 Gaussian 09:  ES64L-G09RevE.01 30-Nov-2015

 ----------------------------------------------------------------------
 #rhf/gen scf(symm,tight,novaracc,noincfock,fulldiag) stable(crhf) geom
 =nocrowd test
 ----------------------------------------------------------------------

 hf stability analysis of h10 triangular lattice, y= 0.9860875916972786
 6
 ----------------------------------------------------------------------
 Symbolic Z-matrix:
 Charge =  0 Multiplicity = 1

                         Standard orientation:
 ---------------------------------------------------------------------
 Center     Atomic      Atomic             Coordinates (Angstroms)
 Number     Number       Type             X           Y           Z
 ---------------------------------------------------------------------
      1          1           0        2.013760    1.671343    0.000000
      2          1           0        2.013760    0.524532    0.000000
      3          1           0        1.006880    1.122374    0.000000
      4          1           0        1.006880   -0.024436    0.000000
      5          1           0       -0.000000    0.573405    0.000000
      6          1           0       -0.000000   -0.573405    0.000000
      7          1           0       -1.006880    0.024436    0.000000
      8          1           0       -1.006880   -1.122374    0.000000
      9          1           0       -2.013760   -0.524532    0.000000
     10          1           0       -2.013760   -1.671343    0.000000
 ---------------------------------------------------------------------

 SCF Done:  E(RHF) =  -4.86824207190     A.U. after   10 cycles
 E2 =    -0.1128125194D+00 EUMP2 =    -0.49810545912679D+01

 The electronic state is 1-AG.
 Alpha  occ. eigenvalues --   -0.84448  -0.74043  -0.55071  -0.34634  -0.30701
 Alpha virt. eigenvalues --   -0.00467   0.22904   0.23577   0.55620   0.60579

 Mulliken charges:
               1
     1  H   -0.093927
     2  H    0.145767
     3  H    0.105577
     4  H   -0.120167
     5  H   -0.037251
     6  H   -0.037251
     7  H   -0.120167
     8  H    0.105577
     9  H    0.145767
    10  H   -0.093927
 Sum of Mulliken charges =   0.00000

 Dipole moment (field-independent basis, Debye):
    X=              0.0000    Y=              0.0000    Z=              0.0000  Tot=              0.0000
 Quadrupole moment (field-independent basis, Debye-Ang):
   XX=            -13.7796   YY=            -15.4890   ZZ=            -12.9732
   XY=             -1.2246   XZ=             -0.0000   YZ=             -0.0000

 Normal termination of Gaussian 09 at Thu Feb  9 15:35:30 2017.
