 Gaussian 09, Revision E.01,
 Gaussian 09:  ES64L-G09RevE.01 30-Nov-2015

 ----------------------------------------------------------------------
 #rhf/gen scf(symm,tight,novaracc,noincfock,fulldiag) stable(crhf) geom
 =nocrowd test
 ----------------------------------------------------------------------

 hf stability analysis of h10 triangular lattice, y= 0.8135287770266516
 1
 ----------------------------------------------------------------------
 Symbolic Z-matrix:
 Charge =  0 Multiplicity = 1

                         Standard orientation:
 ---------------------------------------------------------------------
 Center     Atomic      Atomic             Coordinates (Angstroms)
 Number     Number       Type             X           Y           Z
 ---------------------------------------------------------------------
      1          1           0        2.139175    0.832818    0.000000
      2          1           0        2.139175   -0.246757    0.000000
      3          1           0        1.069587    0.686303    0.000000
      4          1           0        1.069587   -0.393273    0.000000
      5          1           0        0.000000    0.539788    0.000000
      6          1           0       -0.000000   -0.539788    0.000000
      7          1           0       -1.069587    0.393273    0.000000
      8          1           0       -1.069587   -0.686303    0.000000
      9          1           0       -2.139175    0.246757    0.000000
     10          1           0       -2.139175   -0.832818    0.000000
 ---------------------------------------------------------------------

 SCF Done:  E(RHF) =  -4.87815340751     A.U. after   10 cycles
 E2 =    -0.1055143342D+00 EUMP2 =    -0.49836677417390D+01

 The electronic state is 1-AG.
 Alpha  occ. eigenvalues --   -0.87551  -0.74402  -0.52725  -0.46379  -0.30728
 Alpha virt. eigenvalues --   -0.01844   0.15980   0.35565   0.51896   0.87464

 Mulliken charges:
               1
     1  H    0.081947
     2  H   -0.002465
     3  H   -0.031665
     4  H   -0.035051
     5  H   -0.012766
     6  H   -0.012766
     7  H   -0.035051
     8  H   -0.031665
     9  H   -0.002465
    10  H    0.081947
 Sum of Mulliken charges =  -0.00000

 Dipole moment (field-independent basis, Debye):
    X=             -0.0000    Y=              0.0000    Z=              0.0000  Tot=              0.0000
 Quadrupole moment (field-independent basis, Debye-Ang):
   XX=            -10.2077   YY=            -17.0195   ZZ=            -12.9574
   XY=              1.9955   XZ=              0.0000   YZ=              0.0000

 Normal termination of Gaussian 09 at Thu Feb  9 15:26:23 2017.
