 Gaussian 09, Revision E.01,
 Gaussian 09:  ES64L-G09RevE.01 30-Nov-2015

 ----------------------------------------------------------------------
 #rhf/gen scf(symm,tight,novaracc,noincfock,fulldiag) stable(crhf) geom
 =nocrowd test
 ----------------------------------------------------------------------

 ----------------------------------------------------------------------
 hf stability analysis of h10 triangular lattice, y= 1.0737513374905625
 ----------------------------------------------------------------------
 Symbolic Z-matrix:
 Charge =  0 Multiplicity = 1

                         Standard orientation:
 ---------------------------------------------------------------------
 Center     Atomic      Atomic             Coordinates (Angstroms)
 Number     Number       Type             X           Y           Z
 ---------------------------------------------------------------------
      1          1           0        1.923128    2.039112    0.000000
      2          1           0        1.923128    0.838255    0.000000
      3          1           0        0.961564    1.319770    0.000000
      4          1           0        0.961564    0.118913    0.000000
      5          1           0        0.000000    0.600428    0.000000
      6          1           0       -0.000000   -0.600428   -0.000000
      7          1           0       -0.961564   -0.118913    0.000000
      8          1           0       -0.961564   -1.319770   -0.000000
      9          1           0       -1.923128   -0.838255   -0.000000
     10          1           0       -1.923128   -2.039112   -0.000000
 ---------------------------------------------------------------------

 SCF Done:  E(RHF) =  -4.85431626987     A.U. after   10 cycles
 E2 =    -0.1164007868D+00 EUMP2 =    -0.49707170566715D+01

 The electronic state is 1-AG.
 Alpha  occ. eigenvalues --   -0.82601  -0.73713  -0.55299  -0.32372  -0.29180
 Alpha virt. eigenvalues --    0.01759   0.17498   0.24441   0.47696   0.58190

 Mulliken charges:
               1
     1  H   -0.062440
     2  H    0.134850
     3  H    0.113157
     4  H   -0.120196
     5  H   -0.065371
     6  H   -0.065371
     7  H   -0.120196
     8  H    0.113157
     9  H    0.134850
    10  H   -0.062440
 Sum of Mulliken charges =   0.00000

 Dipole moment (field-independent basis, Debye):
    X=             -0.0000    Y=              0.0000    Z=             -0.0000  Tot=              0.0000
 Quadrupole moment (field-independent basis, Debye-Ang):
   XX=            -12.6443   YY=            -14.7292   ZZ=            -13.0648
   XY=              0.4634   XZ=              0.0000   YZ=             -0.0000

 Normal termination of Gaussian 09 at Thu Feb  9 15:39:28 2017.
