 Gaussian 09, Revision E.01,
 Gaussian 09:  ES64L-G09RevE.01 30-Nov-2015

 ----------------------------------------------------------------------
 #rhf/gen scf(symm,tight,novaracc,noincfock,fulldiag) stable(crhf) geom
 =nocrowd test
 ----------------------------------------------------------------------

 ----------------------------------------------------------------------
 hf stability analysis of h10 triangular lattice, y= 1.5188966917185549
 ----------------------------------------------------------------------
 Symbolic Z-matrix:
 Charge =  0 Multiplicity = 1

                         Standard orientation:
 ---------------------------------------------------------------------
 Center     Atomic      Atomic             Coordinates (Angstroms)
 Number     Number       Type             X           Y           Z
 ---------------------------------------------------------------------
      1          1           0        1.474961    3.545226   -0.000000
      2          1           0        1.474961    1.979489   -0.000000
      3          1           0        0.737481    2.164047   -0.000000
      4          1           0        0.737481    0.598310    0.000000
      5          1           0       -0.000000    0.782868   -0.000000
      6          1           0       -0.000000   -0.782868    0.000000
      7          1           0       -0.737481   -0.598310    0.000000
      8          1           0       -0.737481   -2.164047    0.000000
      9          1           0       -1.474961   -1.979489    0.000000
     10          1           0       -1.474961   -3.545226    0.000000
 ---------------------------------------------------------------------

 SCF Done:  E(RHF) =  -4.89140265456     A.U. after    9 cycles
 E2 =    -0.4352578793D+00 EUMP2 =    -0.53266605338429D+01

 The electronic state is 1-AG.
 Alpha  occ. eigenvalues --   -0.77544  -0.71234  -0.61261  -0.48841  -0.15125
 Alpha virt. eigenvalues --   -0.06572   0.20025   0.30793   0.46701   0.62161

 Mulliken charges:
               1
     1  H   -0.106658
     2  H    0.029215
     3  H    0.045579
     4  H    0.012414
     5  H    0.019450
     6  H    0.019450
     7  H    0.012414
     8  H    0.045579
     9  H    0.029215
    10  H   -0.106658
 Sum of Mulliken charges =   0.00000

 Dipole moment (field-independent basis, Debye):
    X=             -0.0000    Y=             -0.0000    Z=              0.0000  Tot=              0.0000
 Quadrupole moment (field-independent basis, Debye-Ang):
   XX=            -13.6093   YY=            -27.0373   ZZ=            -12.9191
   XY=             -6.3529   XZ=              0.0000   YZ=              0.0000

 Normal termination of Gaussian 09 at Thu Feb  9 15:51:40 2017.
