 Gaussian 09, Revision E.01,
 Gaussian 09:  ES64L-G09RevE.01 30-Nov-2015

 ----------------------------------------------------------------------
 #rhf/gen scf(symm,tight,novaracc,noincfock,fulldiag) stable(crhf) geom
 =nocrowd test
 ----------------------------------------------------------------------

 hf stability analysis of h10 triangular lattice, y= 0.8178427458136404
 7
 ----------------------------------------------------------------------
 Symbolic Z-matrix:
 Charge =  0 Multiplicity = 1

                         Standard orientation:
 ---------------------------------------------------------------------
 Center     Atomic      Atomic             Coordinates (Angstroms)
 Number     Number       Type             X           Y           Z
 ---------------------------------------------------------------------
      1          1           0        2.137581    0.855841    0.000000
      2          1           0        2.137581   -0.224540    0.000000
      3          1           0        1.068791    0.698016    0.000000
      4          1           0        1.068791   -0.382365    0.000000
      5          1           0       -0.000000    0.540190    0.000000
      6          1           0       -0.000000   -0.540190   -0.000000
      7          1           0       -1.068791    0.382365    0.000000
      8          1           0       -1.068791   -0.698016    0.000000
      9          1           0       -2.137581    0.224540    0.000000
     10          1           0       -2.137581   -0.855841    0.000000
 ---------------------------------------------------------------------

 SCF Done:  E(RHF) =  -4.87677398672     A.U. after   10 cycles
 E2 =    -0.1056036868D+00 EUMP2 =    -0.49823776735181D+01

 The electronic state is 1-AG.
 Alpha  occ. eigenvalues --   -0.87516  -0.74381  -0.52738  -0.46300  -0.30649
 Alpha virt. eigenvalues --   -0.01928   0.16081   0.35373   0.51985   0.87011

 Mulliken charges:
               1
     1  H    0.085005
     2  H   -0.005770
     3  H   -0.031432
     4  H   -0.035278
     5  H   -0.012525
     6  H   -0.012525
     7  H   -0.035278
     8  H   -0.031432
     9  H   -0.005770
    10  H    0.085005
 Sum of Mulliken charges =   0.00000

 Dipole moment (field-independent basis, Debye):
    X=             -0.0000    Y=              0.0000    Z=              0.0000  Tot=              0.0000
 Quadrupole moment (field-independent basis, Debye-Ang):
   XX=            -10.2311   YY=            -16.9572   ZZ=            -12.9579
   XY=              2.1463   XZ=             -0.0000   YZ=             -0.0000

 Normal termination of Gaussian 09 at Thu Feb  9 15:26:39 2017.
