 Gaussian 09, Revision E.01,
 Gaussian 09:  ES64L-G09RevE.01 30-Nov-2015

 ----------------------------------------------------------------------
 #rhf/gen scf(symm,tight,novaracc,noincfock,fulldiag) stable(crhf) geom
 =nocrowd test
 ----------------------------------------------------------------------

 ----------------------------------------------------------------------
 hf stability analysis of h10 triangular lattice, y= 1.9893700857464571
 ----------------------------------------------------------------------
 Symbolic Z-matrix:
 Charge =  0 Multiplicity = 1

                         Standard orientation:
 ---------------------------------------------------------------------
 Center     Atomic      Atomic             Coordinates (Angstroms)
 Number     Number       Type             X           Y           Z
 ---------------------------------------------------------------------
      1          1           0        1.148712    4.858490    0.000000
      2          1           0        1.148712    2.848063   -0.000000
      3          1           0        0.574356    2.931852    0.000000
      4          1           0        0.574356    0.921424   -0.000000
      5          1           0       -0.000000    1.005214    0.000000
      6          1           0       -0.000000   -1.005214    0.000000
      7          1           0       -0.574356   -0.921424   -0.000000
      8          1           0       -0.574356   -2.931852    0.000000
      9          1           0       -1.148712   -2.848063   -0.000000
     10          1           0       -1.148712   -4.858490    0.000000
 ---------------------------------------------------------------------

 SCF Done:  E(RHF) =  -4.80573492085     A.U. after    6 cycles
 E2 =    -0.8059553173D+00 EUMP2 =    -0.56116902381019D+01

 The electronic state is 1-AG.
 Alpha  occ. eigenvalues --   -0.73384  -0.70742  -0.66697  -0.62443  -0.19858
 Alpha virt. eigenvalues --   -0.14497   0.41651   0.48639   0.58817   0.68523

 Mulliken charges:
               1
     1  H   -0.004891
     2  H    0.002641
     3  H    0.001495
     4  H   -0.000186
     5  H    0.000941
     6  H    0.000941
     7  H   -0.000186
     8  H    0.001495
     9  H    0.002641
    10  H   -0.004891
 Sum of Mulliken charges =   0.00000

 Dipole moment (field-independent basis, Debye):
    X=             -0.0000    Y=              0.0000    Z=             -0.0000  Tot=              0.0000
 Quadrupole moment (field-independent basis, Debye-Ang):
   XX=            -12.3629   YY=            -17.1552   ZZ=            -13.2767
   XY=             -1.1055   XZ=              0.0000   YZ=             -0.0000

 Normal termination of Gaussian 09 at Thu Feb  9 15:57:10 2017.
