 Gaussian 09, Revision E.01,
 Gaussian 09:  ES64L-G09RevE.01 30-Nov-2015

 ----------------------------------------------------------------------
 #rhf/gen scf(symm,tight,novaracc,noincfock,fulldiag) stable(crhf) geom
 =nocrowd test
 ----------------------------------------------------------------------

 ----------------------------------------------------------------------
 hf stability analysis of h10 triangular lattice, y= 1.2560588864908790
 ----------------------------------------------------------------------
 Symbolic Z-matrix:
 Charge =  0 Multiplicity = 1

                         Standard orientation:
 ---------------------------------------------------------------------
 Center     Atomic      Atomic             Coordinates (Angstroms)
 Number     Number       Type             X           Y           Z
 ---------------------------------------------------------------------
      1          1           0        1.726627    2.711948    0.000000
      2          1           0        1.726627    1.374427    0.000000
      3          1           0        0.863314    1.690355    0.000000
      4          1           0        0.863314    0.352833    0.000000
      5          1           0       -0.000000    0.668761    0.000000
      6          1           0       -0.000000   -0.668761    0.000000
      7          1           0       -0.863314   -0.352833    0.000000
      8          1           0       -0.863314   -1.690355    0.000000
      9          1           0       -1.726627   -1.374427    0.000000
     10          1           0       -1.726627   -2.711948    0.000000
 ---------------------------------------------------------------------

 SCF Done:  E(RHF) =  -4.74015298545     A.U. after   11 cycles
 E2 =    -0.1340818025D+00 EUMP2 =    -0.48742347879651D+01

 The electronic state is 1-AG.
 Alpha  occ. eigenvalues --   -0.77702  -0.71818  -0.55099  -0.34491  -0.16978
 Alpha virt. eigenvalues --    0.00924   0.15600   0.16082   0.40150   0.63831

 Mulliken charges:
               1
     1  H    0.058272
     2  H    0.037300
     3  H    0.120352
     4  H   -0.065715
     5  H   -0.150210
     6  H   -0.150210
     7  H   -0.065715
     8  H    0.120352
     9  H    0.037300
    10  H    0.058272
 Sum of Mulliken charges =  -0.00000

 Dipole moment (field-independent basis, Debye):
    X=              0.0000    Y=             -0.0000    Z=              0.0000  Tot=              0.0000
 Quadrupole moment (field-independent basis, Debye-Ang):
   XX=            -11.5961   YY=             -7.3184   ZZ=            -13.1896
   XY=              5.1747   XZ=             -0.0000   YZ=             -0.0000

 Normal termination of Gaussian 09 at Thu Feb  9 15:45:48 2017.
