 Gaussian 09, Revision E.01,
 Gaussian 09:  ES64L-G09RevE.01 30-Nov-2015

 ----------------------------------------------------------------------
 #rhf/gen scf(symm,tight,novaracc,noincfock,fulldiag) stable(crhf) geom
 =nocrowd test
 ----------------------------------------------------------------------

 ----------------------------------------------------------------------
 hf stability analysis of h10 triangular lattice, y= 1.2646232227946819
 ----------------------------------------------------------------------
 Symbolic Z-matrix:
 Charge =  0 Multiplicity = 1

                         Standard orientation:
 ---------------------------------------------------------------------
 Center     Atomic      Atomic             Coordinates (Angstroms)
 Number     Number       Type             X           Y           Z
 ---------------------------------------------------------------------
      1          1           0        1.717656    2.741180   -0.000000
      2          1           0        1.717656    1.396673   -0.000000
      3          1           0        0.858828    1.706717   -0.000000
      4          1           0        0.858828    0.362210   -0.000000
      5          1           0        0.000000    0.672254   -0.000000
      6          1           0       -0.000000   -0.672254   -0.000000
      7          1           0       -0.858828   -0.362210   -0.000000
      8          1           0       -0.858828   -1.706717   -0.000000
      9          1           0       -1.717656   -1.396673   -0.000000
     10          1           0       -1.717656   -2.741180   -0.000000
 ---------------------------------------------------------------------

 SCF Done:  E(RHF) =  -4.73275077436     A.U. after   11 cycles
 E2 =    -0.1354512440D+00 EUMP2 =    -0.48682020183739D+01

 The electronic state is 1-AG.
 Alpha  occ. eigenvalues --   -0.77461  -0.71696  -0.55078  -0.34638  -0.16345
 Alpha virt. eigenvalues --    0.00582   0.15463   0.15961   0.40309   0.64068

 Mulliken charges:
               1
     1  H    0.064060
     2  H    0.027004
     3  H    0.124215
     4  H   -0.056545
     5  H   -0.158734
     6  H   -0.158734
     7  H   -0.056545
     8  H    0.124215
     9  H    0.027004
    10  H    0.064060
 Sum of Mulliken charges =  -0.00000

 Dipole moment (field-independent basis, Debye):
    X=              0.0000    Y=             -0.0000    Z=             -0.0000  Tot=              0.0000
 Quadrupole moment (field-independent basis, Debye-Ang):
   XX=            -11.6420   YY=             -6.8483   ZZ=            -13.1888
   XY=              5.3094   XZ=              0.0000   YZ=              0.0000

 Normal termination of Gaussian 09 at Thu Feb  9 15:46:03 2017.
