 Gaussian 09, Revision E.01,
 Gaussian 09:  ES64L-G09RevE.01 30-Nov-2015

 ----------------------------------------------------------------------
 #rhf/gen scf(symm,tight,novaracc,noincfock,fulldiag) stable(crhf) geom
 =nocrowd test
 ----------------------------------------------------------------------

 ----------------------------------------------------------------------
 hf stability analysis of h10 triangular lattice, y= 2.1378024815543255
 ----------------------------------------------------------------------
 Symbolic Z-matrix:
 Charge =  0 Multiplicity = 1

                         Standard orientation:
 ---------------------------------------------------------------------
 Center     Atomic      Atomic             Coordinates (Angstroms)
 Number     Number       Type             X           Y           Z
 ---------------------------------------------------------------------
      1          1           0        1.071751    5.251591    0.000000
      2          1           0        1.071751    3.096797    0.000000
      3          1           0        0.535875    3.164494    0.000000
      4          1           0        0.535875    1.009700    0.000000
      5          1           0        0.000000    1.077397    0.000000
      6          1           0       -0.000000   -1.077397    0.000000
      7          1           0       -0.535875   -1.009700    0.000000
      8          1           0       -0.535875   -3.164494    0.000000
      9          1           0       -1.071751   -3.096797    0.000000
     10          1           0       -1.071751   -5.251591    0.000000
 ---------------------------------------------------------------------

 SCF Done:  E(RHF) =  -4.69260384454     A.U. after    5 cycles
 E2 =    -0.8797320934D+00 EUMP2 =    -0.55723359379104D+01

 The electronic state is 1-AG.
 Alpha  occ. eigenvalues --   -0.73342  -0.71360  -0.68444  -0.65552  -0.20252
 Alpha virt. eigenvalues --   -0.15294   0.46998   0.53068   0.61710   0.69771

 Mulliken charges:
               1
     1  H   -0.000651
     2  H    0.000962
     3  H   -0.000512
     4  H   -0.000196
     5  H    0.000398
     6  H    0.000398
     7  H   -0.000196
     8  H   -0.000512
     9  H    0.000962
    10  H   -0.000651
 Sum of Mulliken charges =  -0.00000

 Dipole moment (field-independent basis, Debye):
    X=             -0.0000    Y=              0.0000    Z=             -0.0000  Tot=              0.0000
 Quadrupole moment (field-independent basis, Debye-Ang):
   XX=            -12.4765   YY=            -16.0479   ZZ=            -13.3661
   XY=             -0.6904   XZ=              0.0000   YZ=             -0.0000

 Normal termination of Gaussian 09 at Thu Feb  9 15:58:12 2017.
