 Gaussian 09, Revision E.01,
 Gaussian 09:  ES64L-G09RevE.01 30-Nov-2015

 ----------------------------------------------------------------------
 #rhf/gen scf(symm,tight,novaracc,noincfock,fulldiag) stable(crhf) geom
 =nocrowd test
 ----------------------------------------------------------------------

 ----------------------------------------------------------------------
 hf stability analysis of h10 triangular lattice, y= 1.5782458886051585
 ----------------------------------------------------------------------
 Symbolic Z-matrix:
 Charge =  0 Multiplicity = 1

                         Standard orientation:
 ---------------------------------------------------------------------
 Center     Atomic      Atomic             Coordinates (Angstroms)
 Number     Number       Type             X           Y           Z
 ---------------------------------------------------------------------
      1          1           0        1.425480    3.719810    0.000000
      2          1           0        1.425480    2.099722    0.000000
      3          1           0        0.712740    2.264927    0.000000
      4          1           0        0.712740    0.644839    0.000000
      5          1           0        0.000000    0.810044    0.000000
      6          1           0       -0.000000   -0.810044    0.000000
      7          1           0       -0.712740   -0.644839    0.000000
      8          1           0       -0.712740   -2.264927    0.000000
      9          1           0       -1.425480   -2.099722    0.000000
     10          1           0       -1.425480   -3.719810    0.000000
 ---------------------------------------------------------------------

 SCF Done:  E(RHF) =  -4.91112439456     A.U. after    8 cycles
 E2 =    -0.4990197607D+00 EUMP2 =    -0.54101441552472D+01

 The electronic state is 1-AG.
 Alpha  occ. eigenvalues --   -0.76394  -0.70786  -0.61807  -0.50766  -0.16191
 Alpha virt. eigenvalues --   -0.08440   0.23384   0.33513   0.48656   0.63522

 Mulliken charges:
               1
     1  H   -0.077791
     2  H    0.022714
     3  H    0.033752
     4  H    0.007643
     5  H    0.013682
     6  H    0.013682
     7  H    0.007643
     8  H    0.033752
     9  H    0.022714
    10  H   -0.077791
 Sum of Mulliken charges =   0.00000

 Dipole moment (field-independent basis, Debye):
    X=             -0.0000    Y=              0.0000    Z=             -0.0000  Tot=              0.0000
 Quadrupole moment (field-independent basis, Debye-Ang):
   XX=            -13.0854   YY=            -25.0264   ZZ=            -12.9637
   XY=             -5.0454   XZ=              0.0000   YZ=              0.0000

 Normal termination of Gaussian 09 at Thu Feb  9 15:52:37 2017.
