 Gaussian 09, Revision E.01,
 Gaussian 09:  ES64L-G09RevE.01 30-Nov-2015

 ----------------------------------------------------------------------
 #rhf/gen scf(symm,tight,novaracc,noincfock,fulldiag) stable(crhf) geom
 =nocrowd test
 ----------------------------------------------------------------------

 hf stability analysis of h10 triangular lattice, y= 0.7827319151780829
 4
 ----------------------------------------------------------------------
 Symbolic Z-matrix:
 Charge =  0 Multiplicity = 1

                         Standard orientation:
 ---------------------------------------------------------------------
 Center     Atomic      Atomic             Coordinates (Angstroms)
 Number     Number       Type             X           Y           Z
 ---------------------------------------------------------------------
      1          1           0        2.147248    0.665328   -0.000000
      2          1           0        2.147248   -0.410188    0.000000
      3          1           0        1.073624    0.601543   -0.000000
      4          1           0        1.073624   -0.473973    0.000000
      5          1           0       -0.000000    0.537758   -0.000000
      6          1           0       -0.000000   -0.537758   -0.000000
      7          1           0       -1.073624    0.473973    0.000000
      8          1           0       -1.073624   -0.601543   -0.000000
      9          1           0       -2.147248    0.410188    0.000000
     10          1           0       -2.147248   -0.665328   -0.000000
 ---------------------------------------------------------------------

 SCF Done:  E(RHF) =  -4.88506409068     A.U. after   10 cycles
 E2 =    -0.1050710816D+00 EUMP2 =    -0.49901351723151D+01

 The electronic state is 1-AG.
 Alpha  occ. eigenvalues --   -0.87729  -0.74507  -0.52655  -0.46782  -0.31129
 Alpha virt. eigenvalues --   -0.01401   0.15451   0.36584   0.51405   0.89810

 Mulliken charges:
               1
     1  H    0.058874
     2  H    0.021819
     3  H   -0.032844
     4  H   -0.033921
     5  H   -0.013927
     6  H   -0.013927
     7  H   -0.033921
     8  H   -0.032844
     9  H    0.021819
    10  H    0.058874
 Sum of Mulliken charges =  -0.00000

 Dipole moment (field-independent basis, Debye):
    X=             -0.0000    Y=              0.0000    Z=             -0.0000  Tot=              0.0000
 Quadrupole moment (field-independent basis, Debye-Ang):
   XX=            -10.0911   YY=            -17.3349   ZZ=            -12.9549
   XY=              0.8750   XZ=             -0.0000   YZ=              0.0000

 Normal termination of Gaussian 09 at Thu Feb  9 15:24:28 2017.
