 Gaussian 09, Revision E.01,
 Gaussian 09:  ES64L-G09RevE.01 30-Nov-2015

 ----------------------------------------------------------------------
 #rhf/gen scf(symm,tight,novaracc,noincfock,fulldiag) stable(crhf) geom
 =nocrowd test
 ----------------------------------------------------------------------

 hf stability analysis of h10 triangular lattice, y= 0.9173997895451042
 6
 ----------------------------------------------------------------------
 Symbolic Z-matrix:
 Charge =  0 Multiplicity = 1

                         Standard orientation:
 ---------------------------------------------------------------------
 Center     Atomic      Atomic             Coordinates (Angstroms)
 Number     Number       Type             X           Y           Z
 ---------------------------------------------------------------------
      1          1           0        2.075844    1.357257    0.000000
      2          1           0        2.075844    0.244746    0.000000
      3          1           0        1.037922    0.956757    0.000000
      4          1           0        1.037922   -0.155755    0.000000
      5          1           0        0.000000    0.556256    0.000000
      6          1           0       -0.000000   -0.556256    0.000000
      7          1           0       -1.037922    0.155755    0.000000
      8          1           0       -1.037922   -0.956757    0.000000
      9          1           0       -2.075844   -0.244746    0.000000
     10          1           0       -2.075844   -1.357257    0.000000
 ---------------------------------------------------------------------

 SCF Done:  E(RHF) =  -4.86267235916     A.U. after   10 cycles
 E2 =    -0.1127111759D+00 EUMP2 =    -0.49753835351047D+01

 The electronic state is 1-AG.
 Alpha  occ. eigenvalues --   -0.85489  -0.73996  -0.54794  -0.37643  -0.29842
 Alpha virt. eigenvalues --   -0.01957   0.22381   0.27527   0.53866   0.72842

 Mulliken charges:
               1
     1  H   -0.093976
     2  H    0.134289
     3  H    0.085249
     4  H   -0.110299
     5  H   -0.015263
     6  H   -0.015263
     7  H   -0.110299
     8  H    0.085249
     9  H    0.134289
    10  H   -0.093976
 Sum of Mulliken charges =  -0.00000

 Dipole moment (field-independent basis, Debye):
    X=              0.0000    Y=             -0.0000    Z=              0.0000  Tot=              0.0000
 Quadrupole moment (field-independent basis, Debye-Ang):
   XX=            -14.7815   YY=            -15.0214   ZZ=            -12.8986
   XY=             -1.8102   XZ=             -0.0000   YZ=             -0.0000

 Normal termination of Gaussian 09 at Thu Feb  9 15:32:08 2017.
