 Gaussian 09, Revision E.01,
 Gaussian 09:  ES64L-G09RevE.01 30-Nov-2015

 ----------------------------------------------------------------------
 #rhf/gen scf(symm,tight,novaracc,noincfock,fulldiag) stable(crhf) geom
 =nocrowd test
 ----------------------------------------------------------------------

 ----------------------------------------------------------------------
 hf stability analysis of h10 triangular lattice, y= 1.2680906370950717
 ----------------------------------------------------------------------
 Symbolic Z-matrix:
 Charge =  0 Multiplicity = 1

                         Standard orientation:
 ---------------------------------------------------------------------
 Center     Atomic      Atomic             Coordinates (Angstroms)
 Number     Number       Type             X           Y           Z
 ---------------------------------------------------------------------
      1          1           0        1.714036    2.752966   -0.000000
      2          1           0        1.714036    1.405619   -0.000000
      3          1           0        0.857018    1.713319   -0.000000
      4          1           0        0.857018    0.365973   -0.000000
      5          1           0        0.000000    0.673673   -0.000000
      6          1           0       -0.000000   -0.673673   -0.000000
      7          1           0       -0.857018   -0.365973   -0.000000
      8          1           0       -0.857018   -1.713319   -0.000000
      9          1           0       -1.714036   -1.405619   -0.000000
     10          1           0       -1.714036   -2.752966   -0.000000
 ---------------------------------------------------------------------

 SCF Done:  E(RHF) =  -4.72976051877     A.U. after   12 cycles
 E2 =    -0.1360639657D+00 EUMP2 =    -0.48658244844266D+01

 The electronic state is 1-AG.
 Alpha  occ. eigenvalues --   -0.77364  -0.71645  -0.55071  -0.34703  -0.16086
 Alpha virt. eigenvalues --    0.00436   0.15215   0.16122   0.40381   0.64161

 Mulliken charges:
               1
     1  H    0.066294
     2  H    0.022362
     3  H    0.126147
     4  H   -0.052248
     5  H   -0.162555
     6  H   -0.162555
     7  H   -0.052248
     8  H    0.126147
     9  H    0.022362
    10  H    0.066294
 Sum of Mulliken charges =  -0.00000

 Dipole moment (field-independent basis, Debye):
    X=              0.0000    Y=              0.0000    Z=             -0.0000  Tot=              0.0000
 Quadrupole moment (field-independent basis, Debye-Ang):
   XX=            -11.6680   YY=             -6.6653   ZZ=            -13.1878
   XY=              5.3506   XZ=              0.0000   YZ=              0.0000

 Normal termination of Gaussian 09 at Thu Feb  9 15:46:09 2017.
