 Gaussian 09, Revision E.01,
 Gaussian 09:  ES64L-G09RevE.01 30-Nov-2015

 ----------------------------------------------------------------------
 #rhf/gen scf(symm,tight,novaracc,noincfock,fulldiag) stable(crhf) geom
 =nocrowd test
 ----------------------------------------------------------------------

 ----------------------------------------------------------------------
 hf stability analysis of h10 triangular lattice, y= 2.4050584502674064
 ----------------------------------------------------------------------
 Symbolic Z-matrix:
 Charge =  0 Multiplicity = 1

                         Standard orientation:
 ---------------------------------------------------------------------
 Center     Atomic      Atomic             Coordinates (Angstroms)
 Number     Number       Type             X           Y           Z
 ---------------------------------------------------------------------
      1          1           0        0.955479    5.947153    0.000000
      2          1           0        0.955479    3.530144    0.000000
      3          1           0        0.477740    3.577829    0.000000
      4          1           0        0.477740    1.160820    0.000000
      5          1           0       -0.000000    1.208505    0.000000
      6          1           0       -0.000000   -1.208505    0.000000
      7          1           0       -0.477740   -1.160820    0.000000
      8          1           0       -0.477740   -3.577829    0.000000
      9          1           0       -0.955479   -3.530144    0.000000
     10          1           0       -0.955479   -5.947153    0.000000
 ---------------------------------------------------------------------

 SCF Done:  E(RHF) =  -4.42959404551     A.U. after    5 cycles
 E2 =    -0.1000206804D+01 EUMP2 =    -0.54298008500033D+01

 The electronic state is 1-AG.
 Alpha  occ. eigenvalues --   -0.73805  -0.72704  -0.71195  -0.69830  -0.20516
 Alpha virt. eigenvalues --   -0.16121   0.55611   0.60204   0.66510   0.72185

 Mulliken charges:
               1
     1  H    0.001239
     2  H   -0.000080
     3  H   -0.001172
     4  H   -0.000092
     5  H    0.000104
     6  H    0.000104
     7  H   -0.000092
     8  H   -0.001172
     9  H   -0.000080
    10  H    0.001239
 Sum of Mulliken charges =   0.00000

 Dipole moment (field-independent basis, Debye):
    X=             -0.0000    Y=              0.0000    Z=              0.0000  Tot=              0.0000
 Quadrupole moment (field-independent basis, Debye-Ang):
   XX=            -12.7042   YY=            -14.9057   ZZ=            -13.4819
   XY=             -0.3189   XZ=              0.0000   YZ=             -0.0000

 Normal termination of Gaussian 09 at Thu Feb  9 15:59:35 2017.
