 Gaussian 09, Revision E.01,
 Gaussian 09:  ES64L-G09RevE.01 30-Nov-2015

 ----------------------------------------------------------------------
 #rhf/gen scf(symm,tight,novaracc,noincfock,fulldiag) stable(crhf) geom
 =nocrowd test
 ----------------------------------------------------------------------

 hf stability analysis of h10 triangular lattice, y= 0.7979527952382926
 6
 ----------------------------------------------------------------------
 Symbolic Z-matrix:
 Charge =  0 Multiplicity = 1

                         Standard orientation:
 ---------------------------------------------------------------------
 Center     Atomic      Atomic             Coordinates (Angstroms)
 Number     Number       Type             X           Y           Z
 ---------------------------------------------------------------------
      1          1           0        2.144005    0.748793    0.000000
      2          1           0        2.144005   -0.328350    0.000000
      3          1           0        1.072003    0.643682    0.000000
      4          1           0        1.072003   -0.433461    0.000000
      5          1           0        0.000000    0.538572    0.000000
      6          1           0       -0.000000   -0.538572   -0.000000
      7          1           0       -1.072003    0.433461   -0.000000
      8          1           0       -1.072003   -0.643682   -0.000000
      9          1           0       -2.144005    0.328350   -0.000000
     10          1           0       -2.144005   -0.748793   -0.000000
 ---------------------------------------------------------------------

 SCF Done:  E(RHF) =  -4.88230416455     A.U. after   10 cycles
 E2 =    -0.1052472376D+00 EUMP2 =    -0.49875514021617D+01

 The electronic state is 1-AG.
 Alpha  occ. eigenvalues --   -0.87657  -0.74465  -0.52683  -0.46620  -0.30968
 Alpha virt. eigenvalues --   -0.01582   0.15668   0.36166   0.51610   0.88857

 Mulliken charges:
               1
     1  H    0.070539
     2  H    0.009676
     3  H   -0.032353
     4  H   -0.034388
     5  H   -0.013472
     6  H   -0.013472
     7  H   -0.034388
     8  H   -0.032353
     9  H    0.009676
    10  H    0.070539
 Sum of Mulliken charges =  -0.00000

 Dipole moment (field-independent basis, Debye):
    X=              0.0000    Y=             -0.0000    Z=             -0.0000  Tot=              0.0000
 Quadrupole moment (field-independent basis, Debye-Ang):
   XX=            -10.1376   YY=            -17.2083   ZZ=            -12.9559
   XY=              1.4379   XZ=              0.0000   YZ=              0.0000

 Normal termination of Gaussian 09 at Thu Feb  9 15:25:25 2017.
