 Gaussian 09, Revision E.01,
 Gaussian 09:  ES64L-G09RevE.01 30-Nov-2015

 ----------------------------------------------------------------------
 #rhf/gen scf(symm,tight,novaracc,noincfock,fulldiag) stable(crhf) geom
 =nocrowd test
 ----------------------------------------------------------------------

 ----------------------------------------------------------------------
 hf stability analysis of h10 triangular lattice, y= 1.0101797939139427
 ----------------------------------------------------------------------
 Symbolic Z-matrix:
 Charge =  0 Multiplicity = 1

                         Standard orientation:
 ---------------------------------------------------------------------
 Center     Atomic      Atomic             Coordinates (Angstroms)
 Number     Number       Type             X           Y           Z
 ---------------------------------------------------------------------
      1          1           0        1.989745    1.775885    0.000000
      2          1           0        1.989745    0.615234    0.000000
      3          1           0        0.994873    1.178106    0.000000
      4          1           0        0.994873    0.017454    0.000000
      5          1           0       -0.000000    0.580326    0.000000
      6          1           0       -0.000000   -0.580326   -0.000000
      7          1           0       -0.994873   -0.017454    0.000000
      8          1           0       -0.994873   -1.178106    0.000000
      9          1           0       -1.989745   -0.615234    0.000000
     10          1           0       -1.989745   -1.775885    0.000000
 ---------------------------------------------------------------------

 SCF Done:  E(RHF) =  -4.86705973610     A.U. after   10 cycles
 E2 =    -0.1134213776D+00 EUMP2 =    -0.49804811137234D+01

 The electronic state is 1-AG.
 Alpha  occ. eigenvalues --   -0.83992  -0.73997  -0.55152  -0.33498  -0.30903
 Alpha virt. eigenvalues --    0.00141   0.21310   0.23946   0.56298   0.56621

 Mulliken charges:
               1
     1  H   -0.088193
     2  H    0.145222
     3  H    0.109265
     4  H   -0.121332
     5  H   -0.044962
     6  H   -0.044962
     7  H   -0.121332
     8  H    0.109265
     9  H    0.145222
    10  H   -0.088193
 Sum of Mulliken charges =   0.00000

 Dipole moment (field-independent basis, Debye):
    X=             -0.0000    Y=             -0.0000    Z=              0.0000  Tot=              0.0000
 Quadrupole moment (field-independent basis, Debye-Ang):
   XX=            -13.4413   YY=            -15.4517   ZZ=            -12.9993
   XY=             -0.8478   XZ=              0.0000   YZ=              0.0000

 Normal termination of Gaussian 09 at Thu Feb  9 15:36:41 2017.
