 Gaussian 09, Revision E.01,
 Gaussian 09:  ES64L-G09RevE.01 30-Nov-2015

 ----------------------------------------------------------------------
 #rhf/gen scf(symm,tight,novaracc,noincfock,fulldiag) stable(crhf) geom
 =nocrowd test
 ----------------------------------------------------------------------

 ----------------------------------------------------------------------
 hf stability analysis of h10 triangular lattice, y= 1.0409398623973067
 ----------------------------------------------------------------------
 Symbolic Z-matrix:
 Charge =  0 Multiplicity = 1

                         Standard orientation:
 ---------------------------------------------------------------------
 Center     Atomic      Atomic             Coordinates (Angstroms)
 Number     Number       Type             X           Y           Z
 ---------------------------------------------------------------------
      1          1           0        1.957974    1.905447    0.000000
      2          1           0        1.957974    0.725961    0.000000
      3          1           0        0.978987    1.247595    0.000000
      4          1           0        0.978987    0.068109    0.000000
      5          1           0        0.000000    0.589743    0.000000
      6          1           0       -0.000000   -0.589743   -0.000000
      7          1           0       -0.978987   -0.068109   -0.000000
      8          1           0       -0.978987   -1.247595   -0.000000
      9          1           0       -1.957974   -0.725961   -0.000000
     10          1           0       -1.957974   -1.905447   -0.000000
 ---------------------------------------------------------------------

 SCF Done:  E(RHF) =  -4.86270248123     A.U. after   10 cycles
 E2 =    -0.1146244880D+00 EUMP2 =    -0.49773269692420D+01

 The electronic state is 1-AG.
 Alpha  occ. eigenvalues --   -0.83350  -0.73888  -0.55236  -0.32434  -0.30653
 Alpha virt. eigenvalues --    0.00938   0.19373   0.24305   0.51988   0.57198

 Mulliken charges:
               1
     1  H   -0.077443
     2  H    0.141688
     3  H    0.112038
     4  H   -0.121486
     5  H   -0.054796
     6  H   -0.054796
     7  H   -0.121486
     8  H    0.112038
     9  H    0.141688
    10  H   -0.077443
 Sum of Mulliken charges =  -0.00000

 Dipole moment (field-independent basis, Debye):
    X=              0.0000    Y=             -0.0000    Z=             -0.0000  Tot=              0.0000
 Quadrupole moment (field-independent basis, Debye-Ang):
   XX=            -13.0357   YY=            -15.2202   ZZ=            -13.0318
   XY=             -0.2637   XZ=             -0.0000   YZ=             -0.0000

 Normal termination of Gaussian 09 at Thu Feb  9 15:38:05 2017.
