 Gaussian 09, Revision E.01,
 Gaussian 09:  ES64L-G09RevE.01 30-Nov-2015

 ----------------------------------------------------------------------
 #rhf/gen scf(symm,tight,novaracc,noincfock,fulldiag) stable(crhf) geom
 =nocrowd test
 ----------------------------------------------------------------------

 ----------------------------------------------------------------------
 hf stability analysis of h10 triangular lattice, y= 1.2912351779801445
 ----------------------------------------------------------------------
 Symbolic Z-matrix:
 Charge =  0 Multiplicity = 1

                         Standard orientation:
 ---------------------------------------------------------------------
 Center     Atomic      Atomic             Coordinates (Angstroms)
 Number     Number       Type             X           Y           Z
 ---------------------------------------------------------------------
      1          1           0        1.690061    2.830915   -0.000000
      2          1           0        1.690061    1.464454   -0.000000
      3          1           0        0.845031    1.757072   -0.000000
      4          1           0        0.845031    0.390612   -0.000000
      5          1           0        0.000000    0.683230   -0.000000
      6          1           0       -0.000000   -0.683230   -0.000000
      7          1           0       -0.845031   -0.390612   -0.000000
      8          1           0       -0.845031   -1.757072   -0.000000
      9          1           0       -1.690061   -1.464454   -0.000000
     10          1           0       -1.690061   -2.830915   -0.000000
 ---------------------------------------------------------------------

 SCF Done:  E(RHF) =  -4.72544673680     A.U. after   12 cycles
 E2 =    -0.1927363679D+00 EUMP2 =    -0.49181831046614D+01

 The electronic state is 1-AG.
 Alpha  occ. eigenvalues --   -0.83658  -0.74053  -0.59400  -0.40855  -0.11073
 Alpha virt. eigenvalues --    0.01651   0.09004   0.19540   0.38310   0.54934

 Mulliken charges:
               1
     1  H   -0.256436
     2  H    0.047686
     3  H    0.133002
     4  H    0.032736
     5  H    0.043012
     6  H    0.043012
     7  H    0.032736
     8  H    0.133002
     9  H    0.047686
    10  H   -0.256436
 Sum of Mulliken charges =   0.00000

 Dipole moment (field-independent basis, Debye):
    X=              0.0000    Y=              0.0000    Z=              0.0000  Tot=              0.0000
 Quadrupole moment (field-independent basis, Debye-Ang):
   XX=            -17.8296   YY=            -31.5060   ZZ=            -12.7883
   XY=            -11.9481   XZ=             -0.0000   YZ=              0.0000

 Normal termination of Gaussian 09 at Thu Feb  9 15:46:47 2017.
