 Gaussian 09, Revision E.01,
 Gaussian 09:  ES64L-G09RevE.01 30-Nov-2015

 ----------------------------------------------------------------------
 #rhf/gen scf(symm,tight,novaracc,noincfock,fulldiag) stable(crhf) geom
 =nocrowd test
 ----------------------------------------------------------------------

 ----------------------------------------------------------------------
 hf stability analysis of h10 triangular lattice, y= 1.3389768002289641
 ----------------------------------------------------------------------
 Symbolic Z-matrix:
 Charge =  0 Multiplicity = 1

                         Standard orientation:
 ---------------------------------------------------------------------
 Center     Atomic      Atomic             Coordinates (Angstroms)
 Number     Number       Type             X           Y           Z
 ---------------------------------------------------------------------
      1          1           0        1.641725    2.988048   -0.000000
      2          1           0        1.641725    1.581357   -0.000000
      3          1           0        0.820863    1.845697   -0.000000
      4          1           0        0.820863    0.439005   -0.000000
      5          1           0        0.000000    0.703346    0.000000
      6          1           0       -0.000000   -0.703346   -0.000000
      7          1           0       -0.820863   -0.439005   -0.000000
      8          1           0       -0.820863   -1.845697   -0.000000
      9          1           0       -1.641725   -1.581357   -0.000000
     10          1           0       -1.641725   -2.988048   -0.000000
 ---------------------------------------------------------------------

 SCF Done:  E(RHF) =  -4.76915255671     A.U. after   11 cycles
 E2 =    -0.2397991316D+00 EUMP2 =    -0.50089516883189D+01

 The electronic state is 1-AG.
 Alpha  occ. eigenvalues --   -0.82413  -0.73441  -0.59875  -0.42742  -0.11487
 Alpha virt. eigenvalues --    0.01137   0.09356   0.21810   0.40014   0.56506

 Mulliken charges:
               1
     1  H   -0.230356
     2  H    0.049121
     3  H    0.106762
     4  H    0.033799
     5  H    0.040674
     6  H    0.040674
     7  H    0.033799
     8  H    0.106762
     9  H    0.049121
    10  H   -0.230356
 Sum of Mulliken charges =  -0.00000

 Dipole moment (field-independent basis, Debye):
    X=              0.0000    Y=             -0.0000    Z=              0.0000  Tot=              0.0000
 Quadrupole moment (field-independent basis, Debye-Ang):
   XX=            -16.7061   YY=            -32.0001   ZZ=            -12.8032
   XY=            -11.2744   XZ=             -0.0000   YZ=             -0.0000

 Normal termination of Gaussian 09 at Thu Feb  9 15:48:00 2017.
