 Gaussian 09, Revision E.01,
 Gaussian 09:  ES64L-G09RevE.01 30-Nov-2015

 ----------------------------------------------------------------------
 #rhf/gen scf(symm,tight,novaracc,noincfock,fulldiag) stable(crhf) geom
 =nocrowd test
 ----------------------------------------------------------------------

 hf stability analysis of h10 triangular lattice, y= 0.7854743659700788
 0
 ----------------------------------------------------------------------
 Symbolic Z-matrix:
 Charge =  0 Multiplicity = 1

                         Standard orientation:
 ---------------------------------------------------------------------
 Center     Atomic      Atomic             Coordinates (Angstroms)
 Number     Number       Type             X           Y           Z
 ---------------------------------------------------------------------
      1          1           0        2.146776    0.680465    0.000000
      2          1           0        2.146776   -0.395288    0.000000
      3          1           0        1.073388    0.609171    0.000000
      4          1           0        1.073388   -0.466582    0.000000
      5          1           0        0.000000    0.537877    0.000000
      6          1           0       -0.000000   -0.537877   -0.000000
      7          1           0       -1.073388    0.466582    0.000000
      8          1           0       -1.073388   -0.609171    0.000000
      9          1           0       -2.146776    0.395288    0.000000
     10          1           0       -2.146776   -0.680465    0.000000
 ---------------------------------------------------------------------

 SCF Done:  E(RHF) =  -4.88466404375     A.U. after   10 cycles
 E2 =    -0.1050965449D+00 EUMP2 =    -0.49897605886333D+01

 The electronic state is 1-AG.
 Alpha  occ. eigenvalues --   -0.87718  -0.74501  -0.52659  -0.46759  -0.31106
 Alpha virt. eigenvalues --   -0.01428   0.15483   0.36523   0.51436   0.89671

 Mulliken charges:
               1
     1  H    0.061011
     2  H    0.019613
     3  H   -0.032766
     4  H   -0.033996
     5  H   -0.013862
     6  H   -0.013862
     7  H   -0.033996
     8  H   -0.032766
     9  H    0.019613
    10  H    0.061011
 Sum of Mulliken charges =   0.00000

 Dipole moment (field-independent basis, Debye):
    X=              0.0000    Y=              0.0000    Z=              0.0000  Tot=              0.0000
 Quadrupole moment (field-independent basis, Debye-Ang):
   XX=            -10.0978   YY=            -17.3165   ZZ=            -12.9551
   XY=              0.9777   XZ=             -0.0000   YZ=             -0.0000

 Normal termination of Gaussian 09 at Thu Feb  9 15:24:38 2017.
