 Gaussian 09, Revision E.01,
 Gaussian 09:  ES64L-G09RevE.01 30-Nov-2015

 ----------------------------------------------------------------------
 #rhf/gen scf(symm,tight,novaracc,noincfock,fulldiag) stable(crhf) geom
 =nocrowd test
 ----------------------------------------------------------------------

 ----------------------------------------------------------------------
 hf stability analysis of h10 triangular lattice, y= 1.4887854624992518
 ----------------------------------------------------------------------
 Symbolic Z-matrix:
 Charge =  0 Multiplicity = 1

                         Standard orientation:
 ---------------------------------------------------------------------
 Center     Atomic      Atomic             Coordinates (Angstroms)
 Number     Number       Type             X           Y           Z
 ---------------------------------------------------------------------
      1          1           0        1.501109    3.455150    0.000000
      2          1           0        1.501109    1.916686    0.000000
      3          1           0        0.750554    2.112191    0.000000
      4          1           0        0.750554    0.573727    0.000000
      5          1           0        0.000000    0.769232    0.000000
      6          1           0       -0.000000   -0.769232    0.000000
      7          1           0       -0.750554   -0.573727    0.000000
      8          1           0       -0.750554   -2.112191    0.000000
      9          1           0       -1.501109   -1.916686    0.000000
     10          1           0       -1.501109   -3.455150    0.000000
 ---------------------------------------------------------------------

 SCF Done:  E(RHF) =  -4.87739097025     A.U. after    9 cycles
 E2 =    -0.4019633617D+00 EUMP2 =    -0.52793543319133D+01

 The electronic state is 1-AG.
 Alpha  occ. eigenvalues --   -0.78229  -0.71520  -0.61009  -0.47857  -0.14529
 Alpha virt. eigenvalues --   -0.05472   0.18231   0.29352   0.45648   0.61367

 Mulliken charges:
               1
     1  H   -0.124032
     2  H    0.032863
     3  H    0.052752
     4  H    0.015499
     5  H    0.022919
     6  H    0.022919
     7  H    0.015499
     8  H    0.052752
     9  H    0.032863
    10  H   -0.124032
 Sum of Mulliken charges =   0.00000

 Dipole moment (field-independent basis, Debye):
    X=             -0.0000    Y=              0.0000    Z=             -0.0000  Tot=              0.0000
 Quadrupole moment (field-independent basis, Debye-Ang):
   XX=            -13.9584   YY=            -28.0903   ZZ=            -12.8972
   XY=             -7.1128   XZ=             -0.0000   YZ=             -0.0000

 Normal termination of Gaussian 09 at Thu Feb  9 15:51:08 2017.
