 Gaussian 09, Revision E.01,
 Gaussian 09:  ES64L-G09RevE.01 30-Nov-2015

 ----------------------------------------------------------------------
 #rhf/gen scf(symm,tight,novaracc,noincfock,fulldiag) stable(crhf) geom
 =nocrowd test
 ----------------------------------------------------------------------

 hf stability analysis of h10 triangular lattice, y= 0.9348461028989864
 0
 ----------------------------------------------------------------------
 Symbolic Z-matrix:
 Charge =  0 Multiplicity = 1

                         Standard orientation:
 ---------------------------------------------------------------------
 Center     Atomic      Atomic             Coordinates (Angstroms)
 Number     Number       Type             X           Y           Z
 ---------------------------------------------------------------------
      1          1           0        2.061183    1.439382    0.000000
      2          1           0        2.061183    0.318956    0.000000
      3          1           0        1.030591    0.999797    0.000000
      4          1           0        1.030591   -0.120628    0.000000
      5          1           0        0.000000    0.560213    0.000000
      6          1           0       -0.000000   -0.560213    0.000000
      7          1           0       -1.030591    0.120628    0.000000
      8          1           0       -1.030591   -0.999797    0.000000
      9          1           0       -2.061183   -0.318956    0.000000
     10          1           0       -2.061183   -1.439382    0.000000
 ---------------------------------------------------------------------

 SCF Done:  E(RHF) =  -4.86512935200     A.U. after   10 cycles
 E2 =    -0.1125162876D+00 EUMP2 =    -0.49776456396489D+01

 The electronic state is 1-AG.
 Alpha  occ. eigenvalues --   -0.85263  -0.74031  -0.54868  -0.36945  -0.30070
 Alpha virt. eigenvalues --   -0.01622   0.22686   0.26368   0.54281   0.69654

 Mulliken charges:
               1
     1  H   -0.096538
     2  H    0.139242
     3  H    0.091997
     4  H   -0.113889
     5  H   -0.020811
     6  H   -0.020811
     7  H   -0.113889
     8  H    0.091997
     9  H    0.139242
    10  H   -0.096538
 Sum of Mulliken charges =  -0.00000

 Dipole moment (field-independent basis, Debye):
    X=              0.0000    Y=              0.0000    Z=              0.0000  Tot=              0.0000
 Quadrupole moment (field-independent basis, Debye-Ang):
   XX=            -14.5288   YY=            -15.2069   ZZ=            -12.9172
   XY=             -1.7379   XZ=             -0.0000   YZ=             -0.0000

 Normal termination of Gaussian 09 at Thu Feb  9 15:33:01 2017.
