 Gaussian 09, Revision E.01,
 Gaussian 09:  ES64L-G09RevE.01 30-Nov-2015

 ----------------------------------------------------------------------
 #rhf/gen scf(symm,tight,novaracc,noincfock,fulldiag) stable(crhf) geom
 =nocrowd test
 ----------------------------------------------------------------------

 ----------------------------------------------------------------------
 hf stability analysis of h10 triangular lattice, y= 1.1152554799229231
 ----------------------------------------------------------------------
 Symbolic Z-matrix:
 Charge =  0 Multiplicity = 1

                         Standard orientation:
 ---------------------------------------------------------------------
 Center     Atomic      Atomic             Coordinates (Angstroms)
 Number     Number       Type             X           Y           Z
 ---------------------------------------------------------------------
      1          1           0        1.878250    2.202019   -0.000000
      2          1           0        1.878250    0.972470    0.000000
      3          1           0        0.939125    1.408397   -0.000000
      4          1           0        0.939125    0.178847    0.000000
      5          1           0       -0.000000    0.614775   -0.000000
      6          1           0       -0.000000   -0.614775   -0.000000
      7          1           0       -0.939125   -0.178847    0.000000
      8          1           0       -0.939125   -1.408397   -0.000000
      9          1           0       -1.878250   -0.972470    0.000000
     10          1           0       -1.878250   -2.202019    0.000000
 ---------------------------------------------------------------------

 SCF Done:  E(RHF) =  -4.83803891826     A.U. after   10 cycles
 E2 =    -0.1193034079D+00 EUMP2 =    -0.49573423262072D+01

 The electronic state is 1-AG.
 Alpha  occ. eigenvalues --   -0.81573  -0.73409  -0.55334  -0.32767  -0.26675
 Alpha virt. eigenvalues --    0.02601   0.15571   0.23996   0.43483   0.59477

 Mulliken charges:
               1
     1  H   -0.039313
     2  H    0.122220
     3  H    0.112786
     4  H   -0.116487
     5  H   -0.079207
     6  H   -0.079207
     7  H   -0.116487
     8  H    0.112786
     9  H    0.122220
    10  H   -0.039313
 Sum of Mulliken charges =  -0.00000

 Dipole moment (field-independent basis, Debye):
    X=             -0.0000    Y=             -0.0000    Z=              0.0000  Tot=              0.0000
 Quadrupole moment (field-independent basis, Debye-Ang):
   XX=            -12.2199   YY=            -13.7297   ZZ=            -13.1034
   XY=              1.4984   XZ=             -0.0000   YZ=              0.0000

 Normal termination of Gaussian 09 at Thu Feb  9 15:41:08 2017.
