 Gaussian 09, Revision E.01,
 Gaussian 09:  ES64L-G09RevE.01 30-Nov-2015

 ----------------------------------------------------------------------
 #rhf/gen scf(symm,tight,novaracc,noincfock,fulldiag) stable(crhf) geom
 =nocrowd test
 ----------------------------------------------------------------------

 ----------------------------------------------------------------------
 hf stability analysis of h10 triangular lattice, y= 1.3290619167428244
 ----------------------------------------------------------------------
 Symbolic Z-matrix:
 Charge =  0 Multiplicity = 1

                         Standard orientation:
 ---------------------------------------------------------------------
 Center     Atomic      Atomic             Coordinates (Angstroms)
 Number     Number       Type             X           Y           Z
 ---------------------------------------------------------------------
      1          1           0        1.651633    2.955797    0.000000
      2          1           0        1.651633    1.557543    0.000000
      3          1           0        0.825816    1.827462    0.000000
      4          1           0        0.825816    0.429208    0.000000
      5          1           0        0.000000    0.699127    0.000000
      6          1           0       -0.000000   -0.699127    0.000000
      7          1           0       -0.825816   -0.429208    0.000000
      8          1           0       -0.825816   -1.827462    0.000000
      9          1           0       -1.651633   -1.557543    0.000000
     10          1           0       -1.651633   -2.955797    0.000000
 ---------------------------------------------------------------------

 SCF Done:  E(RHF) =  -4.76017083988     A.U. after   11 cycles
 E2 =    -0.2296652855D+00 EUMP2 =    -0.49898361253427D+01

 The electronic state is 1-AG.
 Alpha  occ. eigenvalues --   -0.82695  -0.73579  -0.59790  -0.42369  -0.11347
 Alpha virt. eigenvalues --    0.01463   0.09004   0.21318   0.39643   0.56162

 Mulliken charges:
               1
     1  H   -0.237026
     2  H    0.049399
     3  H    0.111887
     4  H    0.034380
     5  H    0.041360
     6  H    0.041360
     7  H    0.034380
     8  H    0.111887
     9  H    0.049399
    10  H   -0.237026
 Sum of Mulliken charges =   0.00000

 Dipole moment (field-independent basis, Debye):
    X=             -0.0000    Y=             -0.0000    Z=             -0.0000  Tot=              0.0000
 Quadrupole moment (field-independent basis, Debye-Ang):
   XX=            -16.9406   YY=            -32.0274   ZZ=            -12.7990
   XY=            -11.4851   XZ=             -0.0000   YZ=             -0.0000

 Normal termination of Gaussian 09 at Thu Feb  9 15:47:46 2017.
