 Gaussian 09, Revision E.01,
 Gaussian 09:  ES64L-G09RevE.01 30-Nov-2015

 ----------------------------------------------------------------------
 #rhf/gen scf(symm,tight,novaracc,noincfock,fulldiag) stable(crhf) geom
 =nocrowd test
 ----------------------------------------------------------------------

 ----------------------------------------------------------------------
 hf stability analysis of h10 triangular lattice, y= 1.3022885491742811
 ----------------------------------------------------------------------
 Symbolic Z-matrix:
 Charge =  0 Multiplicity = 1

                         Standard orientation:
 ---------------------------------------------------------------------
 Center     Atomic      Atomic             Coordinates (Angstroms)
 Number     Number       Type             X           Y           Z
 ---------------------------------------------------------------------
      1          1           0        1.678732    2.867719    0.000000
      2          1           0        1.678732    1.492036    0.000000
      3          1           0        0.839366    1.777780    0.000000
      4          1           0        0.839366    0.402098    0.000000
      5          1           0        0.000000    0.687841    0.000000
      6          1           0       -0.000000   -0.687841   -0.000000
      7          1           0       -0.839366   -0.402098   -0.000000
      8          1           0       -0.839366   -1.777780   -0.000000
      9          1           0       -1.678732   -1.492036   -0.000000
     10          1           0       -1.678732   -2.867719   -0.000000
 ---------------------------------------------------------------------

 SCF Done:  E(RHF) =  -4.73556712577     A.U. after   12 cycles
 E2 =    -0.2031158755D+00 EUMP2 =    -0.49386830012294D+01

 The electronic state is 1-AG.
 Alpha  occ. eigenvalues --   -0.83402  -0.73927  -0.59528  -0.41314  -0.11100
 Alpha virt. eigenvalues --    0.01802   0.08743   0.20038   0.38682   0.55273

 Mulliken charges:
               1
     1  H   -0.252091
     2  H    0.048721
     3  H    0.126675
     4  H    0.034058
     5  H    0.042637
     6  H    0.042637
     7  H    0.034058
     8  H    0.126675
     9  H    0.048721
    10  H   -0.252091
 Sum of Mulliken charges =  -0.00000

 Dipole moment (field-independent basis, Debye):
    X=              0.0000    Y=              0.0000    Z=              0.0000  Tot=              0.0000
 Quadrupole moment (field-independent basis, Debye-Ang):
   XX=            -17.5756   YY=            -31.7771   ZZ=            -12.7904
   XY=            -11.8830   XZ=             -0.0000   YZ=             -0.0000

 Normal termination of Gaussian 09 at Thu Feb  9 15:47:04 2017.
