 Gaussian 09, Revision E.01,
 Gaussian 09:  ES64L-G09RevE.01 30-Nov-2015

 ----------------------------------------------------------------------
 #rhf/gen scf(symm,tight,novaracc,noincfock,fulldiag) stable(crhf) geom
 =nocrowd test
 ----------------------------------------------------------------------

 ----------------------------------------------------------------------
 hf stability analysis of h10 triangular lattice, y= 1.0867964069381189
 ----------------------------------------------------------------------
 Symbolic Z-matrix:
 Charge =  0 Multiplicity = 1

                         Standard orientation:
 ---------------------------------------------------------------------
 Center     Atomic      Atomic             Coordinates (Angstroms)
 Number     Number       Type             X           Y           Z
 ---------------------------------------------------------------------
      1          1           0        1.909090    2.091029    0.000000
      2          1           0        1.909090    0.881342    0.000000
      3          1           0        0.954545    1.347936    0.000000
      4          1           0        0.954545    0.138249    0.000000
      5          1           0        0.000000    0.604844    0.000000
      6          1           0       -0.000000   -0.604844    0.000000
      7          1           0       -0.954545   -0.138249    0.000000
      8          1           0       -0.954545   -1.347936    0.000000
      9          1           0       -1.909090   -0.881342    0.000000
     10          1           0       -1.909090   -2.091029    0.000000
 ---------------------------------------------------------------------

 SCF Done:  E(RHF) =  -4.84988317659     A.U. after   10 cycles
 E2 =    -0.1172381592D+00 EUMP2 =    -0.49671213357585D+01

 The electronic state is 1-AG.
 Alpha  occ. eigenvalues --   -0.82286  -0.73627  -0.55315  -0.32477  -0.28430
 Alpha virt. eigenvalues --    0.02057   0.16829   0.24390   0.46212   0.58592

 Mulliken charges:
               1
     1  H   -0.055618
     2  H    0.131339
     3  H    0.113207
     4  H   -0.119287
     5  H   -0.069641
     6  H   -0.069641
     7  H   -0.119287
     8  H    0.113207
     9  H    0.131339
    10  H   -0.055618
 Sum of Mulliken charges =  -0.00000

 Dipole moment (field-independent basis, Debye):
    X=              0.0000    Y=             -0.0000    Z=              0.0000  Tot=              0.0000
 Quadrupole moment (field-independent basis, Debye-Ang):
   XX=            -12.5020   YY=            -14.4612   ZZ=            -13.0774
   XY=              0.7767   XZ=             -0.0000   YZ=             -0.0000

 Normal termination of Gaussian 09 at Thu Feb  9 15:40:00 2017.
