 Gaussian 09, Revision E.01,
 Gaussian 09:  ES64L-G09RevE.01 30-Nov-2015

 ----------------------------------------------------------------------
 #rhf/gen scf(symm,tight,novaracc,noincfock,fulldiag) stable(crhf) geom
 =nocrowd test
 ----------------------------------------------------------------------

 ----------------------------------------------------------------------
 hf stability analysis of h10 triangular lattice, y= 1.3212668706947988
 ----------------------------------------------------------------------
 Symbolic Z-matrix:
 Charge =  0 Multiplicity = 1

                         Standard orientation:
 ---------------------------------------------------------------------
 Center     Atomic      Atomic             Coordinates (Angstroms)
 Number     Number       Type             X           Y           Z
 ---------------------------------------------------------------------
      1          1           0        1.659471    2.930304    0.000000
      2          1           0        1.659471    1.538656    0.000000
      3          1           0        0.829736    1.813064    0.000000
      4          1           0        0.829736    0.421416    0.000000
      5          1           0       -0.000000    0.695824    0.000000
      6          1           0       -0.000000   -0.695824    0.000000
      7          1           0       -0.829736   -0.421416    0.000000
      8          1           0       -0.829736   -1.813064    0.000000
      9          1           0       -1.659471   -1.538656    0.000000
     10          1           0       -1.659471   -2.930304    0.000000
 ---------------------------------------------------------------------

 SCF Done:  E(RHF) =  -4.75303876700     A.U. after   11 cycles
 E2 =    -0.2217909290D+00 EUMP2 =    -0.49748296959902D+01

 The electronic state is 1-AG.
 Alpha  occ. eigenvalues --   -0.82911  -0.73685  -0.59719  -0.42069  -0.11253
 Alpha virt. eigenvalues --    0.01656   0.08810   0.20937   0.39357   0.55896

 Mulliken charges:
               1
     1  H   -0.241930
     2  H    0.049437
     3  H    0.116066
     4  H    0.034615
     5  H    0.041813
     6  H    0.041813
     7  H    0.034615
     8  H    0.116066
     9  H    0.049437
    10  H   -0.241930
 Sum of Mulliken charges =  -0.00000

 Dipole moment (field-independent basis, Debye):
    X=              0.0000    Y=              0.0000    Z=             -0.0000  Tot=              0.0000
 Quadrupole moment (field-independent basis, Debye-Ang):
   XX=            -17.1262   YY=            -32.0072   ZZ=            -12.7960
   XY=            -11.6300   XZ=             -0.0000   YZ=             -0.0000

 Normal termination of Gaussian 09 at Thu Feb  9 15:47:34 2017.
