 Gaussian 09, Revision E.01,
 Gaussian 09:  ES64L-G09RevE.01 30-Nov-2015

 ----------------------------------------------------------------------
 #rhf/gen scf(symm,tight,novaracc,noincfock,fulldiag) stable(crhf) geom
 =nocrowd test
 ----------------------------------------------------------------------

 ----------------------------------------------------------------------
 hf stability analysis of h10 triangular lattice, y= 1.0679350336702964
 ----------------------------------------------------------------------
 Symbolic Z-matrix:
 Charge =  0 Multiplicity = 1

                         Standard orientation:
 ---------------------------------------------------------------------
 Center     Atomic      Atomic             Coordinates (Angstroms)
 Number     Number       Type             X           Y           Z
 ---------------------------------------------------------------------
      1          1           0        1.929358    2.015744    0.000000
      2          1           0        1.929358    0.818765    0.000000
      3          1           0        0.964679    1.307117    0.000000
      4          1           0        0.964679    0.110138    0.000000
      5          1           0        0.000000    0.598489    0.000000
      6          1           0       -0.000000   -0.598489   -0.000000
      7          1           0       -0.964679   -0.110138   -0.000000
      8          1           0       -0.964679   -1.307117   -0.000000
      9          1           0       -1.929358   -0.818765   -0.000000
     10          1           0       -1.929358   -2.015744   -0.000000
 ---------------------------------------------------------------------

 SCF Done:  E(RHF) =  -4.85609049318     A.U. after   10 cycles
 E2 =    -0.1160507925D+00 EUMP2 =    -0.49721412857184D+01

 The electronic state is 1-AG.
 Alpha  occ. eigenvalues --   -0.82738  -0.73748  -0.55290  -0.32337  -0.29496
 Alpha virt. eigenvalues --    0.01619   0.17812   0.24442   0.48401   0.58013

 Mulliken charges:
               1
     1  H   -0.065334
     2  H    0.136275
     3  H    0.113071
     4  H   -0.120529
     5  H   -0.063483
     6  H   -0.063483
     7  H   -0.120529
     8  H    0.113071
     9  H    0.136275
    10  H   -0.065334
 Sum of Mulliken charges =  -0.00000

 Dipole moment (field-independent basis, Debye):
    X=              0.0000    Y=              0.0000    Z=             -0.0000  Tot=              0.0000
 Quadrupole moment (field-independent basis, Debye-Ang):
   XX=            -12.7103   YY=            -14.8352   ZZ=            -13.0591
   XY=              0.3277   XZ=              0.0000   YZ=             -0.0000

 Normal termination of Gaussian 09 at Thu Feb  9 15:39:13 2017.
