 Gaussian 09, Revision E.01,
 Gaussian 09:  ES64L-G09RevE.01 30-Nov-2015

 ----------------------------------------------------------------------
 #rhf/gen scf(symm,tight,novaracc,noincfock,fulldiag) stable(crhf) geom
 =nocrowd test
 ----------------------------------------------------------------------

 ----------------------------------------------------------------------
 hf stability analysis of h10 triangular lattice, y= 1.8674825596677291
 ----------------------------------------------------------------------
 Symbolic Z-matrix:
 Charge =  0 Multiplicity = 1

                         Standard orientation:
 ---------------------------------------------------------------------
 Center     Atomic      Atomic             Coordinates (Angstroms)
 Number     Number       Type             X           Y           Z
 ---------------------------------------------------------------------
      1          1           0        1.220034    4.530275    0.000000
      2          1           0        1.220034    2.637375    0.000000
      3          1           0        0.610017    2.738363    0.000000
      4          1           0        0.610017    0.845462    0.000000
      5          1           0       -0.000000    0.946450    0.000000
      6          1           0       -0.000000   -0.946450    0.000000
      7          1           0       -0.610017   -0.845462    0.000000
      8          1           0       -0.610017   -2.738363    0.000000
      9          1           0       -1.220034   -2.637375    0.000000
     10          1           0       -1.220034   -4.530275    0.000000
 ---------------------------------------------------------------------

 SCF Done:  E(RHF) =  -4.87405930370     A.U. after    7 cycles
 E2 =    -0.7363120420D+00 EUMP2 =    -0.56103713456702D+01

 The electronic state is 1-AG.
 Alpha  occ. eigenvalues --   -0.73687  -0.70386  -0.65182  -0.59426  -0.19285
 Alpha virt. eigenvalues --   -0.13501   0.36887   0.44681   0.56238   0.67451

 Mulliken charges:
               1
     1  H   -0.012791
     2  H    0.005333
     3  H    0.005316
     4  H    0.000110
     5  H    0.002032
     6  H    0.002032
     7  H    0.000110
     8  H    0.005316
     9  H    0.005333
    10  H   -0.012791
 Sum of Mulliken charges =  -0.00000

 Dipole moment (field-independent basis, Debye):
    X=             -0.0000    Y=             -0.0000    Z=             -0.0000  Tot=              0.0000
 Quadrupole moment (field-independent basis, Debye-Ang):
   XX=            -12.3231   YY=            -18.5293   ZZ=            -13.1904
   XY=             -1.6761   XZ=              0.0000   YZ=             -0.0000

 Normal termination of Gaussian 09 at Thu Feb  9 15:56:07 2017.
