 Gaussian 09, Revision E.01,
 Gaussian 09:  ES64L-G09RevE.01 30-Nov-2015

 ----------------------------------------------------------------------
 #rhf/gen scf(symm,tight,novaracc,noincfock,fulldiag) stable(crhf) geom
 =nocrowd test
 ----------------------------------------------------------------------

 hf stability analysis of h10 triangular lattice, y= 0.8604100239471103
 0
 ----------------------------------------------------------------------
 Symbolic Z-matrix:
 Charge =  0 Multiplicity = 1

                         Standard orientation:
 ---------------------------------------------------------------------
 Center     Atomic      Atomic             Coordinates (Angstroms)
 Number     Number       Type             X           Y           Z
 ---------------------------------------------------------------------
      1          1           0        2.116518    1.077199   -0.000000
      2          1           0        2.116518   -0.013934    0.000000
      3          1           0        1.058259    0.811382   -0.000000
      4          1           0        1.058259   -0.279750    0.000000
      5          1           0       -0.000000    0.545566   -0.000000
      6          1           0       -0.000000   -0.545566   -0.000000
      7          1           0       -1.058259    0.279750    0.000000
      8          1           0       -1.058259   -0.811382   -0.000000
      9          1           0       -2.116518    0.013934    0.000000
     10          1           0       -2.116518   -1.077199   -0.000000
 ---------------------------------------------------------------------

 SCF Done:  E(RHF) =  -4.85203888627     A.U. after   10 cycles
 E2 =    -0.1141332263D+00 EUMP2 =    -0.49661721125228D+01

 The electronic state is 1-AG.
 Alpha  occ. eigenvalues --   -0.86039  -0.73805  -0.54558  -0.39507  -0.29137
 Alpha virt. eigenvalues --   -0.02795   0.21482   0.30986   0.52700   0.82832

 Mulliken charges:
               1
     1  H   -0.071573
     2  H    0.106953
     3  H    0.054545
     4  H   -0.091779
     5  H    0.001853
     6  H    0.001853
     7  H   -0.091779
     8  H    0.054545
     9  H    0.106953
    10  H   -0.071573
 Sum of Mulliken charges =   0.00000

 Dipole moment (field-independent basis, Debye):
    X=             -0.0000    Y=             -0.0000    Z=              0.0000  Tot=              0.0000
 Quadrupole moment (field-independent basis, Debye-Ang):
   XX=            -15.5281   YY=            -14.2528   ZZ=            -12.8432
   XY=             -1.6420   XZ=              0.0000   YZ=              0.0000

 Normal termination of Gaussian 09 at Thu Feb  9 15:29:05 2017.
