 Gaussian 09, Revision E.01,
 Gaussian 09:  ES64L-G09RevE.01 30-Nov-2015

 ----------------------------------------------------------------------
 #rhf/gen scf(symm,tight,novaracc,noincfock,fulldiag) stable(crhf) geom
 =nocrowd test
 ----------------------------------------------------------------------

 hf stability analysis of h10 triangular lattice, y= 0.7813647159178956
 9
 ----------------------------------------------------------------------
 Symbolic Z-matrix:
 Charge =  0 Multiplicity = 1

                         Standard orientation:
 ---------------------------------------------------------------------
 Center     Atomic      Atomic             Coordinates (Angstroms)
 Number     Number       Type             X           Y           Z
 ---------------------------------------------------------------------
      1          1           0        2.147464    0.657766    0.000000
      2          1           0        2.147464   -0.417642   -0.000000
      3          1           0        1.073732    0.597735    0.000000
      4          1           0        1.073732   -0.477673   -0.000000
      5          1           0        0.000000    0.537704    0.000000
      6          1           0       -0.000000   -0.537704   -0.000000
      7          1           0       -1.073732    0.477673   -0.000000
      8          1           0       -1.073732   -0.597735   -0.000000
      9          1           0       -2.147464    0.417642   -0.000000
     10          1           0       -2.147464   -0.657766   -0.000000
 ---------------------------------------------------------------------

 SCF Done:  E(RHF) =  -4.88524728642     A.U. after   10 cycles
 E2 =    -0.1050594290D+00 EUMP2 =    -0.49903067154204D+01

 The electronic state is 1-AG.
 Alpha  occ. eigenvalues --   -0.87734  -0.74510  -0.52653  -0.46793  -0.31140
 Alpha virt. eigenvalues --   -0.01389   0.15437   0.36613   0.51391   0.89874

 Mulliken charges:
               1
     1  H    0.057803
     2  H    0.022921
     3  H   -0.032882
     4  H   -0.033886
     5  H   -0.013957
     6  H   -0.013957
     7  H   -0.033886
     8  H   -0.032882
     9  H    0.022921
    10  H    0.057803
 Sum of Mulliken charges =   0.00000

 Dipole moment (field-independent basis, Debye):
    X=              0.0000    Y=             -0.0000    Z=             -0.0000  Tot=              0.0000
 Quadrupole moment (field-independent basis, Debye-Ang):
   XX=            -10.0880   YY=            -17.3434   ZZ=            -12.9549
   XY=              0.8237   XZ=              0.0000   YZ=             -0.0000

 Normal termination of Gaussian 09 at Thu Feb  9 15:24:22 2017.
