 Gaussian 09, Revision E.01,
 Gaussian 09:  ES64L-G09RevE.01 30-Nov-2015

 ----------------------------------------------------------------------
 #rhf/gen scf(symm,tight,novaracc,noincfock,fulldiag) stable(crhf) geom
 =nocrowd test
 ----------------------------------------------------------------------

 ----------------------------------------------------------------------
 hf stability analysis of h10 triangular lattice, y= 1.1550661760401986
 ----------------------------------------------------------------------
 Symbolic Z-matrix:
 Charge =  0 Multiplicity = 1

                         Standard orientation:
 ---------------------------------------------------------------------
 Center     Atomic      Atomic             Coordinates (Angstroms)
 Number     Number       Type             X           Y           Z
 ---------------------------------------------------------------------
      1          1           0        1.834928    2.352402   -0.000000
      2          1           0        1.834928    1.093823   -0.000000
      3          1           0        0.917464    1.490845   -0.000000
      4          1           0        0.917464    0.232267   -0.000000
      5          1           0       -0.000000    0.629289   -0.000000
      6          1           0       -0.000000   -0.629289   -0.000000
      7          1           0       -0.917464   -0.232267   -0.000000
      8          1           0       -0.917464   -1.490845   -0.000000
      9          1           0       -1.834928   -1.093823   -0.000000
     10          1           0       -1.834928   -2.352402   -0.000000
 ---------------------------------------------------------------------

 SCF Done:  E(RHF) =  -4.81657778717     A.U. after   10 cycles
 E2 =    -0.1226942018D+00 EUMP2 =    -0.49392719889775D+01

 The electronic state is 1-AG.
 Alpha  occ. eigenvalues --   -0.80521  -0.73039  -0.55319  -0.33213  -0.24064
 Alpha virt. eigenvalues --    0.02959   0.14431   0.22651   0.40961   0.60728

 Mulliken charges:
               1
     1  H   -0.013816
     2  H    0.106141
     3  H    0.111657
     4  H   -0.110343
     5  H   -0.093639
     6  H   -0.093639
     7  H   -0.110343
     8  H    0.111657
     9  H    0.106141
    10  H   -0.013816
 Sum of Mulliken charges =  -0.00000

 Dipole moment (field-independent basis, Debye):
    X=              0.0000    Y=              0.0000    Z=             -0.0000  Tot=              0.0000
 Quadrupole moment (field-independent basis, Debye-Ang):
   XX=            -11.8950   YY=            -12.3666   ZZ=            -13.1365
   XY=              2.5701   XZ=              0.0000   YZ=              0.0000

 Normal termination of Gaussian 09 at Thu Feb  9 15:42:36 2017.
