 Gaussian 09, Revision E.01,
 Gaussian 09:  ES64L-G09RevE.01 30-Nov-2015

 ----------------------------------------------------------------------
 #rhf/gen scf(symm,tight,novaracc,noincfock,fulldiag) stable(crhf) geom
 =nocrowd test
 ----------------------------------------------------------------------

 ----------------------------------------------------------------------
 hf stability analysis of h10 triangular lattice, y= 1.7397059332549434
 ----------------------------------------------------------------------
 Symbolic Z-matrix:
 Charge =  0 Multiplicity = 1

                         Standard orientation:
 ---------------------------------------------------------------------
 Center     Atomic      Atomic             Coordinates (Angstroms)
 Number     Number       Type             X           Y           Z
 ---------------------------------------------------------------------
      1          1           0        1.303954    4.178949    0.000000
      2          1           0        1.303954    2.407872    0.000000
      3          1           0        0.651977    2.532244    0.000000
      4          1           0        0.651977    0.761167    0.000000
      5          1           0       -0.000000    0.885538   -0.000000
      6          1           0       -0.000000   -0.885538   -0.000000
      7          1           0       -0.651977   -0.761167    0.000000
      8          1           0       -0.651977   -2.532244    0.000000
      9          1           0       -1.303954   -2.407872    0.000000
     10          1           0       -1.303954   -4.178949    0.000000
 ---------------------------------------------------------------------

 SCF Done:  E(RHF) =  -4.91519128206     A.U. after    7 cycles
 E2 =    -0.6471514686D+00 EUMP2 =    -0.55623427507067D+01

 The electronic state is 1-AG.
 Alpha  occ. eigenvalues --   -0.74421  -0.70273  -0.63596  -0.55815  -0.18297
 Alpha virt. eigenvalues --   -0.11897   0.31404   0.40119   0.53219   0.66100

 Mulliken charges:
               1
     1  H   -0.029955
     2  H    0.010475
     3  H    0.013305
     4  H    0.001426
     5  H    0.004749
     6  H    0.004749
     7  H    0.001426
     8  H    0.013305
     9  H    0.010475
    10  H   -0.029955
 Sum of Mulliken charges =  -0.00000

 Dipole moment (field-independent basis, Debye):
    X=              0.0000    Y=             -0.0000    Z=             -0.0000  Tot=              0.0000
 Quadrupole moment (field-independent basis, Debye-Ang):
   XX=            -12.4250   YY=            -20.7040   ZZ=            -13.0912
   XY=             -2.6817   XZ=             -0.0000   YZ=              0.0000

 Normal termination of Gaussian 09 at Thu Feb  9 15:54:46 2017.
