 Gaussian 09, Revision E.01,
 Gaussian 09:  ES64L-G09RevE.01 30-Nov-2015

 ----------------------------------------------------------------------
 #rhf/gen scf(symm,tight,novaracc,noincfock,fulldiag) stable(crhf) geom
 =nocrowd test
 ----------------------------------------------------------------------

 hf stability analysis of h10 triangular lattice, y= 0.9744610999233596
 1
 ----------------------------------------------------------------------
 Symbolic Z-matrix:
 Charge =  0 Multiplicity = 1

                         Standard orientation:
 ---------------------------------------------------------------------
 Center     Atomic      Atomic             Coordinates (Angstroms)
 Number     Number       Type             X           Y           Z
 ---------------------------------------------------------------------
      1          1           0        2.025005    1.619884    0.000000
      2          1           0        2.025005    0.479441    0.000000
      3          1           0        1.012502    1.095053    0.000000
      4          1           0        1.012502   -0.045390    0.000000
      5          1           0        0.000000    0.570221    0.000000
      6          1           0       -0.000000   -0.570221    0.000000
      7          1           0       -1.012502    0.045390    0.000000
      8          1           0       -1.012502   -1.095053    0.000000
      9          1           0       -2.025005   -0.479441    0.000000
     10          1           0       -2.025005   -1.619884    0.000000
 ---------------------------------------------------------------------

 SCF Done:  E(RHF) =  -4.86816322139     A.U. after   10 cycles
 E2 =    -0.1126265245D+00 EUMP2 =    -0.49807897459102D+01

 The electronic state is 1-AG.
 Alpha  occ. eigenvalues --   -0.84652  -0.74054  -0.55028  -0.35184  -0.30571
 Alpha virt. eigenvalues --   -0.00748   0.23382   0.23687   0.55302   0.62573

 Mulliken charges:
               1
     1  H   -0.095734
     2  H    0.145254
     3  H    0.103233
     4  H   -0.119231
     5  H   -0.033521
     6  H   -0.033521
     7  H   -0.119231
     8  H    0.103233
     9  H    0.145254
    10  H   -0.095734
 Sum of Mulliken charges =   0.00000

 Dipole moment (field-independent basis, Debye):
    X=              0.0000    Y=             -0.0000    Z=              0.0000  Tot=              0.0000
 Quadrupole moment (field-independent basis, Debye-Ang):
   XX=            -13.9476   YY=            -15.4652   ZZ=            -12.9605
   XY=             -1.3775   XZ=              0.0000   YZ=              0.0000

 Normal termination of Gaussian 09 at Thu Feb  9 15:34:55 2017.
