 Gaussian 09, Revision E.01,
 Gaussian 09:  ES64L-G09RevE.01 30-Nov-2015

 ----------------------------------------------------------------------
 #rhf/gen scf(symm,tight,novaracc,noincfock,fulldiag) stable(crhf) geom
 =nocrowd test
 ----------------------------------------------------------------------

 hf stability analysis of h10 triangular lattice, y= 0.9754198370359219
 4
 ----------------------------------------------------------------------
 Symbolic Z-matrix:
 Charge =  0 Multiplicity = 1

                         Standard orientation:
 ---------------------------------------------------------------------
 Center     Atomic      Atomic             Coordinates (Angstroms)
 Number     Number       Type             X           Y           Z
 ---------------------------------------------------------------------
      1          1           0        2.024087    1.624153   -0.000000
      2          1           0        2.024087    0.483193   -0.000000
      3          1           0        1.012043    1.097316   -0.000000
      4          1           0        1.012043   -0.043643   -0.000000
      5          1           0       -0.000000    0.570480   -0.000000
      6          1           0       -0.000000   -0.570480   -0.000000
      7          1           0       -1.012043    0.043643   -0.000000
      8          1           0       -1.012043   -1.097316   -0.000000
      9          1           0       -2.024087   -0.483193   -0.000000
     10          1           0       -2.024087   -1.624153   -0.000000
 ---------------------------------------------------------------------

 SCF Done:  E(RHF) =  -4.86818488180     A.U. after   10 cycles
 E2 =    -0.1126391922D+00 EUMP2 =    -0.49808240740434D+01

 The electronic state is 1-AG.
 Alpha  occ. eigenvalues --   -0.84635  -0.74053  -0.55032  -0.35139  -0.30582
 Alpha virt. eigenvalues --   -0.00725   0.23398   0.23622   0.55328   0.62407

 Mulliken charges:
               1
     1  H   -0.095610
     2  H    0.145316
     3  H    0.103441
     4  H   -0.119318
     5  H   -0.033829
     6  H   -0.033829
     7  H   -0.119318
     8  H    0.103441
     9  H    0.145316
    10  H   -0.095610
 Sum of Mulliken charges =   0.00000

 Dipole moment (field-independent basis, Debye):
    X=             -0.0000    Y=             -0.0000    Z=             -0.0000  Tot=              0.0000
 Quadrupole moment (field-independent basis, Debye-Ang):
   XX=            -13.9336   YY=            -15.4681   ZZ=            -12.9615
   XY=             -1.3657   XZ=             -0.0000   YZ=             -0.0000

 Normal termination of Gaussian 09 at Thu Feb  9 15:34:58 2017.
