 Gaussian 09, Revision E.01,
 Gaussian 09:  ES64L-G09RevE.01 30-Nov-2015

 ----------------------------------------------------------------------
 #rhf/gen scf(symm,tight,novaracc,noincfock,fulldiag) stable(crhf) geom
 =nocrowd test
 ----------------------------------------------------------------------

 hf stability analysis of h10 triangular lattice, y= 0.7678350797278717
 9
 ----------------------------------------------------------------------
 Symbolic Z-matrix:
 Charge =  0 Multiplicity = 1

                         Standard orientation:
 ---------------------------------------------------------------------
 Center     Atomic      Atomic             Coordinates (Angstroms)
 Number     Number       Type             X           Y           Z
 ---------------------------------------------------------------------
      1          1           0        2.148904    0.582357    0.000000
      2          1           0        2.148904   -0.492331    0.000000
      3          1           0        1.074452    0.559850    0.000000
      4          1           0        1.074452   -0.514837    0.000000
      5          1           0       -0.000000    0.537344    0.000000
      6          1           0       -0.000000   -0.537344   -0.000000
      7          1           0       -1.074452    0.514837    0.000000
      8          1           0       -1.074452   -0.559850    0.000000
      9          1           0       -2.148904    0.492331    0.000000
     10          1           0       -2.148904   -0.582357    0.000000
 ---------------------------------------------------------------------

 SCF Done:  E(RHF) =  -4.88646603367     A.U. after   10 cycles
 E2 =    -0.1049820331D+00 EUMP2 =    -0.49914480667885D+01

 The electronic state is 1-AG.
 Alpha  occ. eigenvalues --   -0.87765  -0.74528  -0.52640  -0.46865  -0.31212
 Alpha virt. eigenvalues --   -0.01306   0.15339   0.36803   0.51296   0.90303

 Mulliken charges:
               1
     1  H    0.047015
     2  H    0.033918
     3  H   -0.033214
     4  H   -0.033566
     5  H   -0.014154
     6  H   -0.014154
     7  H   -0.033566
     8  H   -0.033214
     9  H    0.033918
    10  H    0.047015
 Sum of Mulliken charges =  -0.00000

 Dipole moment (field-independent basis, Debye):
    X=              0.0000    Y=              0.0000    Z=              0.0000  Tot=              0.0000
 Quadrupole moment (field-independent basis, Debye-Ang):
   XX=            -10.0675   YY=            -17.3996   ZZ=            -12.9544
   XY=              0.3092   XZ=              0.0000   YZ=             -0.0000

 Normal termination of Gaussian 09 at Thu Feb  9 15:23:32 2017.
