 Gaussian 09, Revision E.01,
 Gaussian 09:  ES64L-G09RevE.01 30-Nov-2015

 ----------------------------------------------------------------------
 #rhf/gen scf(symm,tight,novaracc,noincfock,fulldiag) stable(crhf) geom
 =nocrowd test
 ----------------------------------------------------------------------

 hf stability analysis of h10 triangular lattice, y= 0.9792730262386045
 7
 ----------------------------------------------------------------------
 Symbolic Z-matrix:
 Charge =  0 Multiplicity = 1

                         Standard orientation:
 ---------------------------------------------------------------------
 Center     Atomic      Atomic             Coordinates (Angstroms)
 Number     Number       Type             X           Y           Z
 ---------------------------------------------------------------------
      1          1           0        2.020381    1.641263    0.000000
      2          1           0        2.020381    0.498210    0.000000
      3          1           0        1.010190    1.106394    0.000000
      4          1           0        1.010190   -0.036658    0.000000
      5          1           0       -0.000000    0.571526    0.000000
      6          1           0       -0.000000   -0.571526    0.000000
      7          1           0       -1.010190    0.036658   -0.000000
      8          1           0       -1.010190   -1.106394   -0.000000
      9          1           0       -2.020381   -0.498210   -0.000000
     10          1           0       -2.020381   -1.641263   -0.000000
 ---------------------------------------------------------------------

 SCF Done:  E(RHF) =  -4.86824478303     A.U. after   10 cycles
 E2 =    -0.1126949437D+00 EUMP2 =    -0.49809397267336D+01

 The electronic state is 1-AG.
 Alpha  occ. eigenvalues --   -0.84569  -0.74050  -0.55046  -0.34957  -0.30626
 Alpha virt. eigenvalues --   -0.00633   0.23362   0.23464   0.55433   0.61742

 Mulliken charges:
               1
     1  H   -0.095066
     2  H    0.145531
     3  H    0.104251
     4  H   -0.119650
     5  H   -0.035065
     6  H   -0.035065
     7  H   -0.119650
     8  H    0.104251
     9  H    0.145531
    10  H   -0.095066
 Sum of Mulliken charges =  -0.00000

 Dipole moment (field-independent basis, Debye):
    X=              0.0000    Y=              0.0000    Z=             -0.0000  Tot=              0.0000
 Quadrupole moment (field-independent basis, Debye-Ang):
   XX=            -13.8778   YY=            -15.4782   ZZ=            -12.9657
   XY=             -1.3166   XZ=             -0.0000   YZ=             -0.0000

 Normal termination of Gaussian 09 at Thu Feb  9 15:35:09 2017.
