 Gaussian 09, Revision E.01,
 Gaussian 09:  ES64L-G09RevE.01 30-Nov-2015

 ----------------------------------------------------------------------
 #rhf/gen scf(symm,tight,novaracc,noincfock,fulldiag) stable(crhf) geom
 =nocrowd test
 ----------------------------------------------------------------------

 hf stability analysis of h10 triangular lattice, y= 0.9841311651395591
 2
 ----------------------------------------------------------------------
 Symbolic Z-matrix:
 Charge =  0 Multiplicity = 1

                         Standard orientation:
 ---------------------------------------------------------------------
 Center     Atomic      Atomic             Coordinates (Angstroms)
 Number     Number       Type             X           Y           Z
 ---------------------------------------------------------------------
      1          1           0        2.015669    1.662730   -0.000000
      2          1           0        2.015669    0.517006   -0.000000
      3          1           0        1.007835    1.117796   -0.000000
      4          1           0        1.007835   -0.027928    0.000000
      5          1           0        0.000000    0.572862   -0.000000
      6          1           0       -0.000000   -0.572862    0.000000
      7          1           0       -1.007835    0.027928   -0.000000
      8          1           0       -1.007835   -1.117796   -0.000000
      9          1           0       -2.015669   -0.517006   -0.000000
     10          1           0       -2.015669   -1.662730   -0.000000
 ---------------------------------------------------------------------

 SCF Done:  E(RHF) =  -4.86825726379     A.U. after   10 cycles
 E2 =    -0.1127762840D+00 EUMP2 =    -0.49810335477665D+01

 The electronic state is 1-AG.
 Alpha  occ. eigenvalues --   -0.84483  -0.74046  -0.55064  -0.34727  -0.30680
 Alpha virt. eigenvalues --   -0.00515   0.23035   0.23545   0.55566   0.60911

 Mulliken charges:
               1
     1  H   -0.094277
     2  H    0.145718
     3  H    0.105210
     4  H   -0.120027
     5  H   -0.036624
     6  H   -0.036624
     7  H   -0.120027
     8  H    0.105210
     9  H    0.145718
    10  H   -0.094277
 Sum of Mulliken charges =   0.00000

 Dipole moment (field-independent basis, Debye):
    X=              0.0000    Y=             -0.0000    Z=             -0.0000  Tot=              0.0000
 Quadrupole moment (field-independent basis, Debye-Ang):
   XX=            -13.8077   YY=            -15.4868   ZZ=            -12.9711
   XY=             -1.2517   XZ=              0.0000   YZ=              0.0000

 Normal termination of Gaussian 09 at Thu Feb  9 15:35:23 2017.
