 Gaussian 09, Revision E.01,
 Gaussian 09:  ES64L-G09RevE.01 30-Nov-2015

 ----------------------------------------------------------------------
 #rhf/gen scf(symm,tight,novaracc,noincfock,fulldiag) stable(crhf) geom
 =nocrowd test
 ----------------------------------------------------------------------

 hf stability analysis of h10 triangular lattice, y= 0.8519558688473642
 9
 ----------------------------------------------------------------------
 Symbolic Z-matrix:
 Charge =  0 Multiplicity = 1

                         Standard orientation:
 ---------------------------------------------------------------------
 Center     Atomic      Atomic             Coordinates (Angstroms)
 Number     Number       Type             X           Y           Z
 ---------------------------------------------------------------------
      1          1           0        2.121420    1.034074   -0.000000
      2          1           0        2.121420   -0.054537   -0.000000
      3          1           0        1.060710    0.789190   -0.000000
      4          1           0        1.060710   -0.299421   -0.000000
      5          1           0       -0.000000    0.544306    0.000000
      6          1           0       -0.000000   -0.544306    0.000000
      7          1           0       -1.060710    0.299421   -0.000000
      8          1           0       -1.060710   -0.789190    0.000000
      9          1           0       -2.121420    0.054537   -0.000000
     10          1           0       -2.121420   -1.034074    0.000000
 ---------------------------------------------------------------------

 SCF Done:  E(RHF) =  -4.85036922227     A.U. after   10 cycles
 E2 =    -0.1144052801D+00 EUMP2 =    -0.49647745023428D+01

 The electronic state is 1-AG.
 Alpha  occ. eigenvalues --   -0.86097  -0.73772  -0.54527  -0.39723  -0.29044
 Alpha virt. eigenvalues --   -0.02885   0.21369   0.31430   0.52557   0.84166

 Mulliken charges:
               1
     1  H   -0.066349
     2  H    0.101359
     3  H    0.048848
     4  H   -0.087990
     5  H    0.004133
     6  H    0.004133
     7  H   -0.087990
     8  H    0.048848
     9  H    0.101359
    10  H   -0.066349
 Sum of Mulliken charges =   0.00000

 Dipole moment (field-independent basis, Debye):
    X=             -0.0000    Y=             -0.0000    Z=             -0.0000  Tot=              0.0000
 Quadrupole moment (field-independent basis, Debye-Ang):
   XX=            -15.6218   YY=            -14.1341   ZZ=            -12.8361
   XY=             -1.5637   XZ=              0.0000   YZ=              0.0000

 Normal termination of Gaussian 09 at Thu Feb  9 15:28:37 2017.
