 Gaussian 09, Revision E.01,
 Gaussian 09:  ES64L-G09RevE.01 30-Nov-2015

 ----------------------------------------------------------------------
 #rhf/gen scf(symm,tight,novaracc,noincfock,fulldiag) stable(crhf) geom
 =nocrowd test
 ----------------------------------------------------------------------

 hf stability analysis of h10 triangular lattice, y= 0.8784987622381249
 5
 ----------------------------------------------------------------------
 Symbolic Z-matrix:
 Charge =  0 Multiplicity = 1

                         Standard orientation:
 ---------------------------------------------------------------------
 Center     Atomic      Atomic             Coordinates (Angstroms)
 Number     Number       Type             X           Y           Z
 ---------------------------------------------------------------------
      1          1           0        2.104966    1.168085   -0.000000
      2          1           0        2.104966    0.070965   -0.000000
      3          1           0        1.052483    0.858323   -0.000000
      4          1           0        1.052483   -0.238798    0.000000
      5          1           0        0.000000    0.548560   -0.000000
      6          1           0       -0.000000   -0.548560   -0.000000
      7          1           0       -1.052483    0.238798    0.000000
      8          1           0       -1.052483   -0.858323   -0.000000
      9          1           0       -2.104966   -0.070965    0.000000
     10          1           0       -2.104966   -1.168085    0.000000
 ---------------------------------------------------------------------

 SCF Done:  E(RHF) =  -4.85563899228     A.U. after   11 cycles
 E2 =    -0.1135838481D+00 EUMP2 =    -0.49692228404108D+01

 The electronic state is 1-AG.
 Alpha  occ. eigenvalues --   -0.85896  -0.73875  -0.54629  -0.38990  -0.29348
 Alpha virt. eigenvalues --   -0.02573   0.21744   0.29965   0.53034   0.79806

 Mulliken charges:
               1
     1  H   -0.081094
     2  H    0.117566
     3  H    0.065760
     4  H   -0.098919
     5  H   -0.003312
     6  H   -0.003312
     7  H   -0.098919
     8  H    0.065760
     9  H    0.117566
    10  H   -0.081094
 Sum of Mulliken charges =   0.00000

 Dipole moment (field-independent basis, Debye):
    X=             -0.0000    Y=              0.0000    Z=              0.0000  Tot=              0.0000
 Quadrupole moment (field-independent basis, Debye-Ang):
   XX=            -15.3101   YY=            -14.5100   ZZ=            -12.8596
   XY=             -1.7636   XZ=              0.0000   YZ=              0.0000

 Normal termination of Gaussian 09 at Thu Feb  9 15:30:05 2017.
