 Gaussian 09, Revision E.01,
 Gaussian 09:  ES64L-G09RevE.01 30-Nov-2015

 ----------------------------------------------------------------------
 #rhf/gen scf(symm,tight,novaracc,noincfock,fulldiag) stable(crhf) geom
 =nocrowd test
 ----------------------------------------------------------------------

 hf stability analysis of h10 triangular lattice, y= 0.9678001231605789
 5
 ----------------------------------------------------------------------
 Symbolic Z-matrix:
 Charge =  0 Multiplicity = 1

                         Standard orientation:
 ---------------------------------------------------------------------
 Center     Atomic      Atomic             Coordinates (Angstroms)
 Number     Number       Type             X           Y           Z
 ---------------------------------------------------------------------
      1          1           0        2.031331    1.590098    0.000000
      2          1           0        2.031331    0.453208   -0.000000
      3          1           0        1.015666    1.079272    0.000000
      4          1           0        1.015666   -0.057619   -0.000000
      5          1           0       -0.000000    0.568445    0.000000
      6          1           0       -0.000000   -0.568445    0.000000
      7          1           0       -1.015666    0.057619   -0.000000
      8          1           0       -1.015666   -1.079272   -0.000000
      9          1           0       -2.031331   -0.453208   -0.000000
     10          1           0       -2.031331   -1.590098   -0.000000
 ---------------------------------------------------------------------

 SCF Done:  E(RHF) =  -4.86793999995     A.U. after   10 cycles
 E2 =    -0.1125517439D+00 EUMP2 =    -0.49804917438568D+01

 The electronic state is 1-AG.
 Alpha  occ. eigenvalues --   -0.84764  -0.74056  -0.55003  -0.35494  -0.30491
 Alpha virt. eigenvalues --   -0.00905   0.23267   0.24138   0.55124   0.63737

 Mulliken charges:
               1
     1  H   -0.096466
     2  H    0.144717
     3  H    0.101708
     4  H   -0.118576
     5  H   -0.031383
     6  H   -0.031383
     7  H   -0.118576
     8  H    0.101708
     9  H    0.144717
    10  H   -0.096466
 Sum of Mulliken charges =  -0.00000

 Dipole moment (field-independent basis, Debye):
    X=              0.0000    Y=             -0.0000    Z=             -0.0000  Tot=              0.0000
 Quadrupole moment (field-independent basis, Debye-Ang):
   XX=            -14.0447   YY=            -15.4401   ZZ=            -12.9532
   XY=             -1.4560   XZ=             -0.0000   YZ=             -0.0000

 Normal termination of Gaussian 09 at Thu Feb  9 15:34:35 2017.
