 Gaussian 09, Revision E.01,
 Gaussian 09:  ES64L-G09RevE.01 30-Nov-2015

 ----------------------------------------------------------------------
 #rhf/gen scf(symm,tight,novaracc,noincfock,fulldiag) stable(crhf) geom
 =nocrowd test
 ----------------------------------------------------------------------

 ----------------------------------------------------------------------
 hf stability analysis of h10 triangular lattice, y= 1.3938703047871841
 ----------------------------------------------------------------------
 Symbolic Z-matrix:
 Charge =  0 Multiplicity = 1

                         Standard orientation:
 ---------------------------------------------------------------------
 Center     Atomic      Atomic             Coordinates (Angstroms)
 Number     Number       Type             X           Y           Z
 ---------------------------------------------------------------------
      1          1           0        1.588187    3.163330    0.000000
      2          1           0        1.588187    1.709218    0.000000
      3          1           0        0.794093    1.945193    0.000000
      4          1           0        0.794093    0.491081    0.000000
      5          1           0        0.000000    0.727056    0.000000
      6          1           0       -0.000000   -0.727056    0.000000
      7          1           0       -0.794093   -0.491081    0.000000
      8          1           0       -0.794093   -1.945193    0.000000
      9          1           0       -1.588187   -1.709218    0.000000
     10          1           0       -1.588187   -3.163330    0.000000
 ---------------------------------------------------------------------

 SCF Done:  E(RHF) =  -4.81565995480     A.U. after   10 cycles
 E2 =    -0.2975743620D+00 EUMP2 =    -0.51132343167574D+01

 The electronic state is 1-AG.
 Alpha  occ. eigenvalues --   -0.80789  -0.72668  -0.60294  -0.44692  -0.12516
 Alpha virt. eigenvalues --   -0.01338   0.12342   0.24599   0.42115   0.58418

 Mulliken charges:
               1
     1  H   -0.189640
     2  H    0.044598
     3  H    0.082419
     4  H    0.027592
     5  H    0.035031
     6  H    0.035031
     7  H    0.027592
     8  H    0.082419
     9  H    0.044598
    10  H   -0.189640
 Sum of Mulliken charges =   0.00000

 Dipole moment (field-independent basis, Debye):
    X=             -0.0000    Y=              0.0000    Z=             -0.0000  Tot=              0.0000
 Quadrupole moment (field-independent basis, Debye-Ang):
   XX=            -15.5013   YY=            -31.0870   ZZ=            -12.8333
   XY=             -9.8061   XZ=              0.0000   YZ=              0.0000

 Normal termination of Gaussian 09 at Thu Feb  9 15:49:15 2017.
