 Gaussian 09, Revision E.01,
 Gaussian 09:  ES64L-G09RevE.01 30-Nov-2015

 ----------------------------------------------------------------------
 #rhf/gen scf(symm,tight,novaracc,noincfock,fulldiag) stable(crhf) geom
 =nocrowd test
 ----------------------------------------------------------------------

 ----------------------------------------------------------------------
 hf stability analysis of h10 triangular lattice, y= 1.6341209389415596
 ----------------------------------------------------------------------
 Symbolic Z-matrix:
 Charge =  0 Multiplicity = 1

                         Standard orientation:
 ---------------------------------------------------------------------
 Center     Atomic      Atomic             Coordinates (Angstroms)
 Number     Number       Type             X           Y           Z
 ---------------------------------------------------------------------
      1          1           0        1.381321    3.881045   -0.000000
      2          1           0        1.381321    2.209166   -0.000000
      3          1           0        0.690661    2.358492   -0.000000
      4          1           0        0.690661    0.686613   -0.000000
      5          1           0        0.000000    0.835939   -0.000000
      6          1           0       -0.000000   -0.835939   -0.000000
      7          1           0       -0.690661   -0.686613   -0.000000
      8          1           0       -0.690661   -2.358492   -0.000000
      9          1           0       -1.381321   -2.209166   -0.000000
     10          1           0       -1.381321   -3.881045   -0.000000
 ---------------------------------------------------------------------

 SCF Done:  E(RHF) =  -4.92041226660     A.U. after    8 cycles
 E2 =    -0.5550672696D+00 EUMP2 =    -0.54754795361664D+01

 The electronic state is 1-AG.
 Alpha  occ. eigenvalues --   -0.75538  -0.70502  -0.62381  -0.52554  -0.17048
 Alpha virt. eigenvalues --   -0.09875   0.26331   0.35924   0.50353   0.64575

 Mulliken charges:
               1
     1  H   -0.056720
     2  H    0.017589
     3  H    0.024973
     4  H    0.004569
     5  H    0.009589
     6  H    0.009589
     7  H    0.004569
     8  H    0.024973
     9  H    0.017589
    10  H   -0.056720
 Sum of Mulliken charges =  -0.00000

 Dipole moment (field-independent basis, Debye):
    X=              0.0000    Y=             -0.0000    Z=              0.0000  Tot=              0.0000
 Quadrupole moment (field-independent basis, Debye-Ang):
   XX=            -12.7542   YY=            -23.3141   ZZ=            -13.0072
   XY=             -4.0460   XZ=             -0.0000   YZ=             -0.0000

 Normal termination of Gaussian 09 at Thu Feb  9 15:53:26 2017.
