 Gaussian 09, Revision E.01,
 Gaussian 09:  ES64L-G09RevE.01 30-Nov-2015

 ----------------------------------------------------------------------
 #rhf/gen scf(symm,tight,novaracc,noincfock,fulldiag) stable(crhf) geom
 =nocrowd test
 ----------------------------------------------------------------------

 ----------------------------------------------------------------------
 hf stability analysis of h10 triangular lattice, y= 1.5360456330340897
 ----------------------------------------------------------------------
 Symbolic Z-matrix:
 Charge =  0 Multiplicity = 1

                         Standard orientation:
 ---------------------------------------------------------------------
 Center     Atomic      Atomic             Coordinates (Angstroms)
 Number     Number       Type             X           Y           Z
 ---------------------------------------------------------------------
      1          1           0        1.460385    3.596057   -0.000000
      2          1           0        1.460385    2.014692   -0.000000
      3          1           0        0.730193    2.193369   -0.000000
      4          1           0        0.730193    0.612005   -0.000000
      5          1           0        0.000000    0.790682   -0.000000
      6          1           0       -0.000000   -0.790682   -0.000000
      7          1           0       -0.730193   -0.612005   -0.000000
      8          1           0       -0.730193   -2.193369   -0.000000
      9          1           0       -1.460385   -2.014692   -0.000000
     10          1           0       -1.460385   -3.596057   -0.000000
 ---------------------------------------------------------------------

 SCF Done:  E(RHF) =  -4.89816984116     A.U. after    8 cycles
 E2 =    -0.4540090325D+00 EUMP2 =    -0.53521788736326D+01

 The electronic state is 1-AG.
 Alpha  occ. eigenvalues --   -0.77185  -0.71088  -0.61412  -0.49399  -0.15449
 Alpha virt. eigenvalues --   -0.07151   0.21020   0.31595   0.47282   0.62582

 Mulliken charges:
               1
     1  H   -0.097590
     2  H    0.027233
     3  H    0.041866
     4  H    0.010860
     5  H    0.017631
     6  H    0.017631
     7  H    0.010860
     8  H    0.041866
     9  H    0.027233
    10  H   -0.097590
 Sum of Mulliken charges =  -0.00000

 Dipole moment (field-independent basis, Debye):
    X=              0.0000    Y=              0.0000    Z=              0.0000  Tot=              0.0000
 Quadrupole moment (field-independent basis, Debye-Ang):
   XX=            -13.4369   YY=            -26.4425   ZZ=            -12.9318
   XY=             -5.9486   XZ=             -0.0000   YZ=             -0.0000

 Normal termination of Gaussian 09 at Thu Feb  9 15:51:57 2017.
