 Gaussian 09, Revision E.01,
 Gaussian 09:  ES64L-G09RevE.01 30-Nov-2015

 ----------------------------------------------------------------------
 #rhf/gen scf(symm,tight,novaracc,noincfock,fulldiag) stable(crhf) geom
 =nocrowd test
 ----------------------------------------------------------------------

 hf stability analysis of h10 triangular lattice, y= 0.8565520180476982
 0
 ----------------------------------------------------------------------
 Symbolic Z-matrix:
 Charge =  0 Multiplicity = 1

                         Standard orientation:
 ---------------------------------------------------------------------
 Center     Atomic      Atomic             Coordinates (Angstroms)
 Number     Number       Type             X           Y           Z
 ---------------------------------------------------------------------
      1          1           0        2.118796    1.057570   -0.000000
      2          1           0        2.118796   -0.032389    0.000000
      3          1           0        1.059398    0.801275   -0.000000
      4          1           0        1.059398   -0.288684    0.000000
      5          1           0        0.000000    0.544980   -0.000000
      6          1           0       -0.000000   -0.544980    0.000000
      7          1           0       -1.059398    0.288684   -0.000000
      8          1           0       -1.059398   -0.801275   -0.000000
      9          1           0       -2.118796    0.032389   -0.000000
     10          1           0       -2.118796   -1.057570   -0.000000
 ---------------------------------------------------------------------

 SCF Done:  E(RHF) =  -4.85127356373     A.U. after   10 cycles
 E2 =    -0.1142566666D+00 EUMP2 =    -0.49655302302902D+01

 The electronic state is 1-AG.
 Alpha  occ. eigenvalues --   -0.86066  -0.73790  -0.54544  -0.39607  -0.29094
 Alpha virt. eigenvalues --   -0.02837   0.21429   0.31192   0.52634   0.83448

 Mulliken charges:
               1
     1  H   -0.069250
     2  H    0.104450
     3  H    0.051981
     4  H   -0.090087
     5  H    0.002906
     6  H    0.002906
     7  H   -0.090087
     8  H    0.051981
     9  H    0.104450
    10  H   -0.069250
 Sum of Mulliken charges =   0.00000

 Dipole moment (field-independent basis, Debye):
    X=              0.0000    Y=             -0.0000    Z=             -0.0000  Tot=              0.0000
 Quadrupole moment (field-independent basis, Debye-Ang):
   XX=            -15.5716   YY=            -14.1984   ZZ=            -12.8399
   XY=             -1.6079   XZ=              0.0000   YZ=              0.0000

 Normal termination of Gaussian 09 at Thu Feb  9 15:28:53 2017.
