 Gaussian 09, Revision E.01,
 Gaussian 09:  ES64L-G09RevE.01 30-Nov-2015

 ----------------------------------------------------------------------
 #rhf/gen scf(symm,tight,novaracc,noincfock,fulldiag) stable(crhf) geom
 =nocrowd test
 ----------------------------------------------------------------------

 hf stability analysis of h10 triangular lattice, y= 0.7951598910690518
 3
 ----------------------------------------------------------------------
 Symbolic Z-matrix:
 Charge =  0 Multiplicity = 1

                         Standard orientation:
 ---------------------------------------------------------------------
 Center     Atomic      Atomic             Coordinates (Angstroms)
 Number     Number       Type             X           Y           Z
 ---------------------------------------------------------------------
      1          1           0        2.144713    0.733578    0.000000
      2          1           0        2.144713   -0.343210    0.000000
      3          1           0        1.072356    0.635986    0.000000
      4          1           0        1.072356   -0.440802    0.000000
      5          1           0        0.000000    0.538394    0.000000
      6          1           0       -0.000000   -0.538394    0.000000
      7          1           0       -1.072356    0.440802    0.000000
      8          1           0       -1.072356   -0.635986    0.000000
      9          1           0       -2.144713    0.343210    0.000000
     10          1           0       -2.144713   -0.733578    0.000000
 ---------------------------------------------------------------------

 SCF Done:  E(RHF) =  -4.88290824589     A.U. after   10 cycles
 E2 =    -0.1052085840D+00 EUMP2 =    -0.49881168298448D+01

 The electronic state is 1-AG.
 Alpha  occ. eigenvalues --   -0.87673  -0.74474  -0.52677  -0.46656  -0.31003
 Alpha virt. eigenvalues --   -0.01543   0.15621   0.36256   0.51566   0.89063

 Mulliken charges:
               1
     1  H    0.068435
     2  H    0.011885
     3  H   -0.032455
     4  H   -0.034292
     5  H   -0.013573
     6  H   -0.013573
     7  H   -0.034292
     8  H   -0.032455
     9  H    0.011885
    10  H    0.068435
 Sum of Mulliken charges =  -0.00000

 Dipole moment (field-independent basis, Debye):
    X=             -0.0000    Y=              0.0000    Z=              0.0000  Tot=              0.0000
 Quadrupole moment (field-independent basis, Debye-Ang):
   XX=            -10.1274   YY=            -17.2359   ZZ=            -12.9557
   XY=              1.3358   XZ=              0.0000   YZ=              0.0000

 Normal termination of Gaussian 09 at Thu Feb  9 15:25:14 2017.
