 Gaussian 09, Revision E.01,
 Gaussian 09:  ES64L-G09RevE.01 30-Nov-2015

 ----------------------------------------------------------------------
 #rhf/gen scf(symm,tight,novaracc,noincfock,fulldiag) stable(crhf) geom
 =nocrowd test
 ----------------------------------------------------------------------

 ----------------------------------------------------------------------
 hf stability analysis of h10 triangular lattice, y= 1.0855959745595780
 ----------------------------------------------------------------------
 Symbolic Z-matrix:
 Charge =  0 Multiplicity = 1

                         Standard orientation:
 ---------------------------------------------------------------------
 Center     Atomic      Atomic             Coordinates (Angstroms)
 Number     Number       Type             X           Y           Z
 ---------------------------------------------------------------------
      1          1           0        1.910385    2.086280   -0.000000
      2          1           0        1.910385    0.877413   -0.000000
      3          1           0        0.955192    1.345357   -0.000000
      4          1           0        0.955192    0.136490   -0.000000
      5          1           0        0.000000    0.604434    0.000000
      6          1           0       -0.000000   -0.604434   -0.000000
      7          1           0       -0.955192   -0.136490   -0.000000
      8          1           0       -0.955192   -1.345357   -0.000000
      9          1           0       -1.910385   -0.877413   -0.000000
     10          1           0       -1.910385   -2.086280   -0.000000
 ---------------------------------------------------------------------

 SCF Done:  E(RHF) =  -4.85031735252     A.U. after   10 cycles
 E2 =    -0.1171581344D+00 EUMP2 =    -0.49674754869661D+01

 The electronic state is 1-AG.
 Alpha  occ. eigenvalues --   -0.82316  -0.73635  -0.55314  -0.32467  -0.28501
 Alpha virt. eigenvalues --    0.02031   0.16889   0.24398   0.46343   0.58555

 Mulliken charges:
               1
     1  H   -0.056265
     2  H    0.131680
     3  H    0.113210
     4  H   -0.119380
     5  H   -0.069246
     6  H   -0.069246
     7  H   -0.119380
     8  H    0.113210
     9  H    0.131680
    10  H   -0.056265
 Sum of Mulliken charges =   0.00000

 Dipole moment (field-independent basis, Debye):
    X=              0.0000    Y=             -0.0000    Z=             -0.0000  Tot=              0.0000
 Quadrupole moment (field-independent basis, Debye-Ang):
   XX=            -12.5148   YY=            -14.4876   ZZ=            -13.0762
   XY=              0.7474   XZ=              0.0000   YZ=             -0.0000

 Normal termination of Gaussian 09 at Thu Feb  9 15:39:57 2017.
