 Gaussian 09, Revision E.01,
 Gaussian 09:  ES64L-G09RevE.01 30-Nov-2015

 ----------------------------------------------------------------------
 #rhf/gen scf(symm,tight,novaracc,noincfock,fulldiag) stable(crhf) geom
 =nocrowd test
 ----------------------------------------------------------------------

 ----------------------------------------------------------------------
 hf stability analysis of h10 triangular lattice, y= 1.2526740377218175
 ----------------------------------------------------------------------
 Symbolic Z-matrix:
 Charge =  0 Multiplicity = 1

                         Standard orientation:
 ---------------------------------------------------------------------
 Center     Atomic      Atomic             Coordinates (Angstroms)
 Number     Number       Type             X           Y           Z
 ---------------------------------------------------------------------
      1          1           0        1.730184    2.700346    0.000000
      2          1           0        1.730184    1.365574    0.000000
      3          1           0        0.865092    1.683866    0.000000
      4          1           0        0.865092    0.349094    0.000000
      5          1           0        0.000000    0.667386    0.000000
      6          1           0       -0.000000   -0.667386   -0.000000
      7          1           0       -0.865092   -0.349094    0.000000
      8          1           0       -0.865092   -1.683866    0.000000
      9          1           0       -1.730184   -1.365574    0.000000
     10          1           0       -1.730184   -2.700346    0.000000
 ---------------------------------------------------------------------

 SCF Done:  E(RHF) =  -4.74307220374     A.U. after   11 cycles
 E2 =    -0.1335823476D+00 EUMP2 =    -0.48766545513338D+01

 The electronic state is 1-AG.
 Alpha  occ. eigenvalues --   -0.77797  -0.71866  -0.55108  -0.34437  -0.17226
 Alpha virt. eigenvalues --    0.01052   0.15471   0.16328   0.40094   0.63734

 Mulliken charges:
               1
     1  H    0.055909
     2  H    0.040985
     3  H    0.119122
     4  H   -0.068864
     5  H   -0.147152
     6  H   -0.147152
     7  H   -0.068864
     8  H    0.119122
     9  H    0.040985
    10  H    0.055909
 Sum of Mulliken charges =   0.00000

 Dipole moment (field-independent basis, Debye):
    X=              0.0000    Y=              0.0000    Z=              0.0000  Tot=              0.0000
 Quadrupole moment (field-independent basis, Debye-Ang):
   XX=            -11.5839   YY=             -7.5082   ZZ=            -13.1894
   XY=              5.1114   XZ=              0.0000   YZ=              0.0000

 Normal termination of Gaussian 09 at Thu Feb  9 15:45:43 2017.
