 Gaussian 09, Revision E.01,
 Gaussian 09:  ES64L-G09RevE.01 30-Nov-2015

 ----------------------------------------------------------------------
 #rhf/gen scf(symm,tight,novaracc,noincfock,fulldiag) stable(crhf) geom
 =nocrowd test
 ----------------------------------------------------------------------

 ----------------------------------------------------------------------
 hf stability analysis of h10 triangular lattice, y= 1.1229614708062909
 ----------------------------------------------------------------------
 Symbolic Z-matrix:
 Charge =  0 Multiplicity = 1

                         Standard orientation:
 ---------------------------------------------------------------------
 Center     Atomic      Atomic             Coordinates (Angstroms)
 Number     Number       Type             X           Y           Z
 ---------------------------------------------------------------------
      1          1           0        1.869869    2.231558   -0.000000
      2          1           0        1.869869    0.996498   -0.000000
      3          1           0        0.934935    1.424544   -0.000000
      4          1           0        0.934935    0.189484    0.000000
      5          1           0        0.000000    0.617530   -0.000000
      6          1           0       -0.000000   -0.617530   -0.000000
      7          1           0       -0.934935   -0.189484   -0.000000
      8          1           0       -0.934935   -1.424544   -0.000000
      9          1           0       -1.869869   -0.996498   -0.000000
     10          1           0       -1.869869   -2.231558   -0.000000
 ---------------------------------------------------------------------

 SCF Done:  E(RHF) =  -4.83432384013     A.U. after   10 cycles
 E2 =    -0.1199158078D+00 EUMP2 =    -0.49542396478941D+01

 The electronic state is 1-AG.
 Alpha  occ. eigenvalues --   -0.81373  -0.73343  -0.55334  -0.32851  -0.26181
 Alpha virt. eigenvalues --    0.02713   0.15288   0.23812   0.42874   0.59718

 Mulliken charges:
               1
     1  H   -0.034600
     2  H    0.119414
     3  H    0.112587
     4  H   -0.115520
     5  H   -0.081881
     6  H   -0.081881
     7  H   -0.115520
     8  H    0.112587
     9  H    0.119414
    10  H   -0.034600
 Sum of Mulliken charges =   0.00000

 Dipole moment (field-independent basis, Debye):
    X=              0.0000    Y=              0.0000    Z=             -0.0000  Tot=              0.0000
 Quadrupole moment (field-independent basis, Debye-Ang):
   XX=            -12.1504   YY=            -13.4968   ZZ=            -13.1102
   XY=              1.7012   XZ=              0.0000   YZ=              0.0000

 Normal termination of Gaussian 09 at Thu Feb  9 15:41:25 2017.
