 Gaussian 09, Revision E.01,
 Gaussian 09:  ES64L-G09RevE.01 30-Nov-2015

 ----------------------------------------------------------------------
 #rhf/gen scf(symm,tight,novaracc,noincfock,fulldiag) stable(crhf) geom
 =nocrowd test
 ----------------------------------------------------------------------

 hf stability analysis of h10 triangular lattice, y= 0.7644915965295165
 9
 ----------------------------------------------------------------------
 Symbolic Z-matrix:
 Charge =  0 Multiplicity = 1

                         Standard orientation:
 ---------------------------------------------------------------------
 Center     Atomic      Atomic             Coordinates (Angstroms)
 Number     Number       Type             X           Y           Z
 ---------------------------------------------------------------------
      1          1           0        2.149060    0.563562    0.000000
      2          1           0        2.149060   -0.511048    0.000000
      3          1           0        1.074530    0.550434    0.000000
      4          1           0        1.074530   -0.524177    0.000000
      5          1           0        0.000000    0.537305    0.000000
      6          1           0       -0.000000   -0.537305    0.000000
      7          1           0       -1.074530    0.524177    0.000000
      8          1           0       -1.074530   -0.550434    0.000000
      9          1           0       -2.149060    0.511048    0.000000
     10          1           0       -2.149060   -0.563562    0.000000
 ---------------------------------------------------------------------

 SCF Done:  E(RHF) =  -4.88659733673     A.U. after   10 cycles
 E2 =    -0.1049737077D+00 EUMP2 =    -0.49915710444665D+01

 The electronic state is 1-AG.
 Alpha  occ. eigenvalues --   -0.87769  -0.74530  -0.52639  -0.46873  -0.31220
 Alpha virt. eigenvalues --   -0.01297   0.15328   0.36824   0.51285   0.90350

 Mulliken charges:
               1
     1  H    0.044298
     2  H    0.036658
     3  H   -0.033289
     4  H   -0.033492
     5  H   -0.014175
     6  H   -0.014175
     7  H   -0.033492
     8  H   -0.033289
     9  H    0.036658
    10  H    0.044298
 Sum of Mulliken charges =   0.00000

 Dipole moment (field-independent basis, Debye):
    X=             -0.0000    Y=              0.0000    Z=              0.0000  Tot=              0.0000
 Quadrupole moment (field-independent basis, Debye-Ang):
   XX=            -10.0653   YY=            -17.4057   ZZ=            -12.9544
   XY=              0.1804   XZ=             -0.0000   YZ=             -0.0000

 Normal termination of Gaussian 09 at Thu Feb  9 15:23:19 2017.
