 Gaussian 09, Revision E.01,
 Gaussian 09:  ES64L-G09RevE.01 30-Nov-2015

 ----------------------------------------------------------------------
 #rhf/gen scf(symm,tight,novaracc,noincfock,fulldiag) stable(crhf) geom
 =nocrowd test
 ----------------------------------------------------------------------

 hf stability analysis of h10 triangular lattice, y= 0.9556557294683085
 7
 ----------------------------------------------------------------------
 Symbolic Z-matrix:
 Charge =  0 Multiplicity = 1

                         Standard orientation:
 ---------------------------------------------------------------------
 Center     Atomic      Atomic             Coordinates (Angstroms)
 Number     Number       Type             X           Y           Z
 ---------------------------------------------------------------------
      1          1           0        2.042628    1.535212    0.000000
      2          1           0        2.042628    0.404609    0.000000
      3          1           0        1.021314    1.050257    0.000000
      4          1           0        1.021314   -0.080346    0.000000
      5          1           0        0.000000    0.565302   -0.000000
      6          1           0       -0.000000   -0.565302    0.000000
      7          1           0       -1.021314    0.080346    0.000000
      8          1           0       -1.021314   -1.050257    0.000000
      9          1           0       -2.042628   -0.404609    0.000000
     10          1           0       -2.042628   -1.535212    0.000000
 ---------------------------------------------------------------------

 SCF Done:  E(RHF) =  -4.86721897999     A.U. after   10 cycles
 E2 =    -0.1124746212D+00 EUMP2 =    -0.49796936011844D+01

 The electronic state is 1-AG.
 Alpha  occ. eigenvalues --   -0.84958  -0.74054  -0.54955  -0.36046  -0.30339
 Alpha virt. eigenvalues --   -0.01181   0.23055   0.24962   0.54805   0.65891

 Mulliken charges:
               1
     1  H   -0.097200
     2  H    0.143259
     3  H    0.098563
     4  H   -0.117140
     5  H   -0.027482
     6  H   -0.027482
     7  H   -0.117140
     8  H    0.098563
     9  H    0.143259
    10  H   -0.097200
 Sum of Mulliken charges =   0.00000

 Dipole moment (field-independent basis, Debye):
    X=              0.0000    Y=             -0.0000    Z=              0.0000  Tot=              0.0000
 Quadrupole moment (field-independent basis, Debye-Ang):
   XX=            -14.2229   YY=            -15.3743   ZZ=            -12.9399
   XY=             -1.5810   XZ=              0.0000   YZ=              0.0000

 Normal termination of Gaussian 09 at Thu Feb  9 15:34:02 2017.
