 Gaussian 09, Revision E.01,
 Gaussian 09:  ES64L-G09RevE.01 30-Nov-2015

 ----------------------------------------------------------------------
 #rhf/gen scf(symm,tight,novaracc,noincfock,fulldiag) stable(crhf) geom
 =nocrowd test
 ----------------------------------------------------------------------

 ----------------------------------------------------------------------
 hf stability analysis of h10 triangular lattice, y= 1.6998107010233166
 ----------------------------------------------------------------------
 Symbolic Z-matrix:
 Charge =  0 Multiplicity = 1

                         Standard orientation:
 ---------------------------------------------------------------------
 Center     Atomic      Atomic             Coordinates (Angstroms)
 Number     Number       Type             X           Y           Z
 ---------------------------------------------------------------------
      1          1           0        1.332285    4.067317    0.000000
      2          1           0        1.332285    2.333903    0.000000
      3          1           0        0.666143    2.467012    0.000000
      4          1           0        0.666143    0.733598    0.000000
      5          1           0        0.000000    0.866707    0.000000
      6          1           0       -0.000000   -0.866707    0.000000
      7          1           0       -0.666143   -0.733598    0.000000
      8          1           0       -0.666143   -2.467012    0.000000
      9          1           0       -1.332285   -2.333903    0.000000
     10          1           0       -1.332285   -4.067317    0.000000
 ---------------------------------------------------------------------

 SCF Done:  E(RHF) =  -4.92048846292     A.U. after    7 cycles
 E2 =    -0.6145371584D+00 EUMP2 =    -0.55350256212773D+01

 The electronic state is 1-AG.
 Alpha  occ. eigenvalues --   -0.74777  -0.70317  -0.63121  -0.54606  -0.17879
 Alpha virt. eigenvalues --   -0.11224   0.29555   0.38586   0.52183   0.65582

 Mulliken charges:
               1
     1  H   -0.038360
     2  H    0.012800
     3  H    0.017055
     4  H    0.002297
     5  H    0.006207
     6  H    0.006207
     7  H    0.002297
     8  H    0.017055
     9  H    0.012800
    10  H   -0.038360
 Sum of Mulliken charges =   0.00000

 Dipole moment (field-independent basis, Debye):
    X=              0.0000    Y=             -0.0000    Z=             -0.0000  Tot=              0.0000
 Quadrupole moment (field-independent basis, Debye-Ang):
   XX=            -12.5136   YY=            -21.5933   ZZ=            -13.0594
   XY=             -3.1268   XZ=              0.0000   YZ=              0.0000

 Normal termination of Gaussian 09 at Thu Feb  9 15:54:18 2017.
