 Gaussian 09, Revision E.01,
 Gaussian 09:  ES64L-G09RevE.01 30-Nov-2015

 ----------------------------------------------------------------------
 #rhf/gen scf(symm,tight,novaracc,noincfock,fulldiag) stable(crhf) geom
 =nocrowd test
 ----------------------------------------------------------------------

 ----------------------------------------------------------------------
 hf stability analysis of h10 triangular lattice, y= 1.6005954006963241
 ----------------------------------------------------------------------
 Symbolic Z-matrix:
 Charge =  0 Multiplicity = 1

                         Standard orientation:
 ---------------------------------------------------------------------
 Center     Atomic      Atomic             Coordinates (Angstroms)
 Number     Number       Type             X           Y           Z
 ---------------------------------------------------------------------
      1          1           0        1.407539    3.784639   -0.000000
      2          1           0        1.407539    2.143902   -0.000000
      3          1           0        0.703770    2.302504   -0.000000
      4          1           0        0.703770    0.661767   -0.000000
      5          1           0       -0.000000    0.820368   -0.000000
      6          1           0       -0.000000   -0.820368   -0.000000
      7          1           0       -0.703770   -0.661767   -0.000000
      8          1           0       -0.703770   -2.302504   -0.000000
      9          1           0       -1.407539   -2.143902   -0.000000
     10          1           0       -1.407539   -3.784639   -0.000000
 ---------------------------------------------------------------------

 SCF Done:  E(RHF) =  -4.91589445368     A.U. after    8 cycles
 E2 =    -0.5219900586D+00 EUMP2 =    -0.54378845122583D+01

 The electronic state is 1-AG.
 Alpha  occ. eigenvalues --   -0.76027  -0.70657  -0.62030  -0.51484  -0.16551
 Alpha virt. eigenvalues --   -0.09049   0.24587   0.34494   0.49352   0.63967

 Mulliken charges:
               1
     1  H   -0.068694
     2  H    0.020544
     3  H    0.029990
     4  H    0.006265
     5  H    0.011895
     6  H    0.011895
     7  H    0.006265
     8  H    0.029990
     9  H    0.020544
    10  H   -0.068694
 Sum of Mulliken charges =  -0.00000

 Dipole moment (field-independent basis, Debye):
    X=             -0.0000    Y=             -0.0000    Z=              0.0000  Tot=              0.0000
 Quadrupole moment (field-independent basis, Debye-Ang):
   XX=            -12.9364   YY=            -24.3161   ZZ=            -12.9809
   XY=             -4.6196   XZ=             -0.0000   YZ=             -0.0000

 Normal termination of Gaussian 09 at Thu Feb  9 15:52:57 2017.
