 Gaussian 09, Revision E.01,
 Gaussian 09:  ES64L-G09RevE.01 30-Nov-2015

 ----------------------------------------------------------------------
 #rhf/gen scf(symm,tight,novaracc,noincfock,fulldiag) stable(crhf) geom
 =nocrowd test
 ----------------------------------------------------------------------

 ----------------------------------------------------------------------
 hf stability analysis of h10 triangular lattice, y= 1.7274580089665905
 ----------------------------------------------------------------------
 Symbolic Z-matrix:
 Charge =  0 Multiplicity = 1

                         Standard orientation:
 ---------------------------------------------------------------------
 Center     Atomic      Atomic             Coordinates (Angstroms)
 Number     Number       Type             X           Y           Z
 ---------------------------------------------------------------------
      1          1           0        1.312538    4.144788    0.000000
      2          1           0        1.312538    2.385296    0.000000
      3          1           0        0.656269    2.512267    0.000000
      4          1           0        0.656269    0.752775    0.000000
      5          1           0        0.000000    0.879746    0.000000
      6          1           0       -0.000000   -0.879746    0.000000
      7          1           0       -0.656269   -0.752775    0.000000
      8          1           0       -0.656269   -2.512267    0.000000
      9          1           0       -1.312538   -2.385296    0.000000
     10          1           0       -1.312538   -4.144788    0.000000
 ---------------------------------------------------------------------

 SCF Done:  E(RHF) =  -4.91722841177     A.U. after    7 cycles
 E2 =    -0.6374113289D+00 EUMP2 =    -0.55546397406187D+01

 The electronic state is 1-AG.
 Alpha  occ. eigenvalues --   -0.74522  -0.70282  -0.63448  -0.55447  -0.18175
 Alpha virt. eigenvalues --   -0.11701   0.30844   0.39655   0.52907   0.65947

 Mulliken charges:
               1
     1  H   -0.032344
     2  H    0.011146
     3  H    0.014380
     4  H    0.001661
     5  H    0.005157
     6  H    0.005157
     7  H    0.001661
     8  H    0.014380
     9  H    0.011146
    10  H   -0.032344
 Sum of Mulliken charges =   0.00000

 Dipole moment (field-independent basis, Debye):
    X=              0.0000    Y=              0.0000    Z=             -0.0000  Tot=              0.0000
 Quadrupole moment (field-independent basis, Debye-Ang):
   XX=            -12.4484   YY=            -20.9650   ZZ=            -13.0815
   XY=             -2.8103   XZ=             -0.0000   YZ=              0.0000

 Normal termination of Gaussian 09 at Thu Feb  9 15:54:38 2017.
