 Gaussian 09, Revision E.01,
 Gaussian 09:  ES64L-G09RevE.01 30-Nov-2015

 ----------------------------------------------------------------------
 #rhf/gen scf(symm,tight,novaracc,noincfock,fulldiag) stable(crhf) geom
 =nocrowd test
 ----------------------------------------------------------------------

 ----------------------------------------------------------------------
 hf stability analysis of h10 triangular lattice, y= 1.3785077936273700
 ----------------------------------------------------------------------
 Symbolic Z-matrix:
 Charge =  0 Multiplicity = 1

                         Standard orientation:
 ---------------------------------------------------------------------
 Center     Atomic      Atomic             Coordinates (Angstroms)
 Number     Number       Type             X           Y           Z
 ---------------------------------------------------------------------
      1          1           0        1.602941    3.114808   -0.000000
      2          1           0        1.602941    1.674081   -0.000000
      3          1           0        0.801470    1.917586   -0.000000
      4          1           0        0.801470    0.476858   -0.000000
      5          1           0        0.000000    0.720364   -0.000000
      6          1           0       -0.000000   -0.720364   -0.000000
      7          1           0       -0.801470   -0.476858   -0.000000
      8          1           0       -0.801470   -1.917586   -0.000000
      9          1           0       -1.602941   -1.674081   -0.000000
     10          1           0       -1.602941   -3.114808   -0.000000
 ---------------------------------------------------------------------

 SCF Done:  E(RHF) =  -4.80331567525     A.U. after   10 cycles
 E2 =    -0.2811559552D+00 EUMP2 =    -0.50844716305018D+01

 The electronic state is 1-AG.
 Alpha  occ. eigenvalues --   -0.81244  -0.72881  -0.60182  -0.44161  -0.12201
 Alpha virt. eigenvalues --   -0.00605   0.11414   0.23813   0.41524   0.57889

 Mulliken charges:
               1
     1  H   -0.201256
     2  H    0.046218
     3  H    0.088574
     4  H    0.029610
     5  H    0.036854
     6  H    0.036854
     7  H    0.029610
     8  H    0.088574
     9  H    0.046218
    10  H   -0.201256
 Sum of Mulliken charges =   0.00000

 Dipole moment (field-independent basis, Debye):
    X=              0.0000    Y=              0.0000    Z=              0.0000  Tot=              0.0000
 Quadrupole moment (field-independent basis, Debye-Ang):
   XX=            -15.8179   YY=            -31.4429   ZZ=            -12.8240
   XY=            -10.2474   XZ=             -0.0000   YZ=             -0.0000

 Normal termination of Gaussian 09 at Thu Feb  9 15:48:55 2017.
