 Gaussian 09, Revision E.01,
 Gaussian 09:  ES64L-G09RevE.01 30-Nov-2015

 ----------------------------------------------------------------------
 #rhf/gen scf(symm,tight,novaracc,noincfock,fulldiag) stable(crhf) geom
 =nocrowd test
 ----------------------------------------------------------------------

 hf stability analysis of h10 triangular lattice, y= 0.8557834790083491
 7
 ----------------------------------------------------------------------
 Symbolic Z-matrix:
 Charge =  0 Multiplicity = 1

                         Standard orientation:
 ---------------------------------------------------------------------
 Center     Atomic      Atomic             Coordinates (Angstroms)
 Number     Number       Type             X           Y           Z
 ---------------------------------------------------------------------
      1          1           0        2.119241    1.053650    0.000000
      2          1           0        2.119241   -0.036080    0.000000
      3          1           0        1.059621    0.799257    0.000000
      4          1           0        1.059621   -0.290473    0.000000
      5          1           0        0.000000    0.544865    0.000000
      6          1           0       -0.000000   -0.544865    0.000000
      7          1           0       -1.059621    0.290473    0.000000
      8          1           0       -1.059621   -0.799257    0.000000
      9          1           0       -2.119241    0.036080    0.000000
     10          1           0       -2.119241   -1.053650    0.000000
 ---------------------------------------------------------------------

 SCF Done:  E(RHF) =  -4.85112170105     A.U. after   10 cycles
 E2 =    -0.1142814173D+00 EUMP2 =    -0.49654031183738D+01

 The electronic state is 1-AG.
 Alpha  occ. eigenvalues --   -0.86071  -0.73787  -0.54541  -0.39627  -0.29086
 Alpha virt. eigenvalues --   -0.02845   0.21419   0.31232   0.52621   0.83569

 Mulliken charges:
               1
     1  H   -0.068775
     2  H    0.103942
     3  H    0.051463
     4  H   -0.089742
     5  H    0.003113
     6  H    0.003113
     7  H   -0.089742
     8  H    0.051463
     9  H    0.103942
    10  H   -0.068775
 Sum of Mulliken charges =  -0.00000

 Dipole moment (field-independent basis, Debye):
    X=             -0.0000    Y=             -0.0000    Z=              0.0000  Tot=              0.0000
 Quadrupole moment (field-independent basis, Debye-Ang):
   XX=            -15.5801   YY=            -14.1876   ZZ=            -12.8393
   XY=             -1.6008   XZ=              0.0000   YZ=              0.0000

 Normal termination of Gaussian 09 at Thu Feb  9 15:28:50 2017.
