 Gaussian 09, Revision E.01,
 Gaussian 09:  ES64L-G09RevE.01 30-Nov-2015

 ----------------------------------------------------------------------
 #rhf/gen scf(symm,tight,novaracc,noincfock,fulldiag) stable(crhf) geom
 =nocrowd test
 ----------------------------------------------------------------------

 hf stability analysis of h10 triangular lattice, y= 0.8064026843539695
 6
 ----------------------------------------------------------------------
 Symbolic Z-matrix:
 Charge =  0 Multiplicity = 1

                         Standard orientation:
 ---------------------------------------------------------------------
 Center     Atomic      Atomic             Coordinates (Angstroms)
 Number     Number       Type             X           Y           Z
 ---------------------------------------------------------------------
      1          1           0        2.141567    0.794551    0.000000
      2          1           0        2.141567   -0.283818    0.000000
      3          1           0        1.070784    0.666868    0.000000
      4          1           0        1.070784   -0.411502    0.000000
      5          1           0        0.000000    0.539185    0.000000
      6          1           0       -0.000000   -0.539185   -0.000000
      7          1           0       -1.070784    0.411502    0.000000
      8          1           0       -1.070784   -0.666868   -0.000000
      9          1           0       -2.141567    0.283818    0.000000
     10          1           0       -2.141567   -0.794551   -0.000000
 ---------------------------------------------------------------------

 SCF Done:  E(RHF) =  -4.88021527224     A.U. after   10 cycles
 E2 =    -0.1053813261D+00 EUMP2 =    -0.49855965982999D+01

 The electronic state is 1-AG.
 Alpha  occ. eigenvalues --   -0.87604  -0.74433  -0.52704  -0.46499  -0.30847
 Alpha virt. eigenvalues --   -0.01716   0.15827   0.35860   0.51757   0.88150

 Mulliken charges:
               1
     1  H    0.076797
     2  H    0.003050
     3  H   -0.032007
     4  H   -0.034720
     5  H   -0.013120
     6  H   -0.013120
     7  H   -0.034720
     8  H   -0.032007
     9  H    0.003050
    10  H    0.076797
 Sum of Mulliken charges =  -0.00000

 Dipole moment (field-independent basis, Debye):
    X=             -0.0000    Y=              0.0000    Z=             -0.0000  Tot=              0.0000
 Quadrupole moment (field-independent basis, Debye-Ang):
   XX=            -10.1729   YY=            -17.1130   ZZ=            -12.9567
   XY=              1.7428   XZ=              0.0000   YZ=             -0.0000

 Normal termination of Gaussian 09 at Thu Feb  9 15:25:56 2017.
