 Gaussian 09, Revision E.01,
 Gaussian 09:  ES64L-G09RevE.01 30-Nov-2015

 ----------------------------------------------------------------------
 #rhf/gen scf(symm,tight,novaracc,noincfock,fulldiag) stable(crhf) geom
 =nocrowd test
 ----------------------------------------------------------------------

 ----------------------------------------------------------------------
 hf stability analysis of h10 triangular lattice, y= 1.6306791826473761
 ----------------------------------------------------------------------
 Symbolic Z-matrix:
 Charge =  0 Multiplicity = 1

                         Standard orientation:
 ---------------------------------------------------------------------
 Center     Atomic      Atomic             Coordinates (Angstroms)
 Number     Number       Type             X           Y           Z
 ---------------------------------------------------------------------
      1          1           0        1.383975    3.871192   -0.000000
      2          1           0        1.383975    2.202519   -0.000000
      3          1           0        0.691987    2.352764   -0.000000
      4          1           0        0.691987    0.684091   -0.000000
      5          1           0        0.000000    0.834337    0.000000
      6          1           0       -0.000000   -0.834337    0.000000
      7          1           0       -0.691987   -0.684091    0.000000
      8          1           0       -0.691987   -2.352764    0.000000
      9          1           0       -1.383975   -2.202519    0.000000
     10          1           0       -1.383975   -3.871192    0.000000
 ---------------------------------------------------------------------

 SCF Done:  E(RHF) =  -4.92009166645     A.U. after    8 cycles
 E2 =    -0.5517530587D+00 EUMP2 =    -0.54718447251565D+01

 The electronic state is 1-AG.
 Alpha  occ. eigenvalues --   -0.75585  -0.70516  -0.62344  -0.52445  -0.17000
 Alpha virt. eigenvalues --   -0.09794   0.26156   0.35780   0.50253   0.64516

 Mulliken charges:
               1
     1  H   -0.057861
     2  H    0.017876
     3  H    0.025455
     4  H    0.004724
     5  H    0.009806
     6  H    0.009806
     7  H    0.004724
     8  H    0.025455
     9  H    0.017876
    10  H   -0.057861
 Sum of Mulliken charges =  -0.00000

 Dipole moment (field-independent basis, Debye):
    X=              0.0000    Y=              0.0000    Z=             -0.0000  Tot=              0.0000
 Quadrupole moment (field-independent basis, Debye-Ang):
   XX=            -12.7708   YY=            -23.4132   ZZ=            -13.0045
   XY=             -4.1014   XZ=             -0.0000   YZ=              0.0000

 Normal termination of Gaussian 09 at Thu Feb  9 15:53:24 2017.
