 Gaussian 09, Revision E.01,
 Gaussian 09:  ES64L-G09RevE.01 30-Nov-2015

 ----------------------------------------------------------------------
 #rhf/gen scf(symm,tight,novaracc,noincfock,fulldiag) stable(crhf) geom
 =nocrowd test
 ----------------------------------------------------------------------

 ----------------------------------------------------------------------
 hf stability analysis of h10 triangular lattice, y= 1.3828508941231716
 ----------------------------------------------------------------------
 Symbolic Z-matrix:
 Charge =  0 Multiplicity = 1

                         Standard orientation:
 ---------------------------------------------------------------------
 Center     Atomic      Atomic             Coordinates (Angstroms)
 Number     Number       Type             X           Y           Z
 ---------------------------------------------------------------------
      1          1           0        1.598751    3.128566    0.000000
      2          1           0        1.598751    1.684063    0.000000
      3          1           0        0.799376    1.925409    0.000000
      4          1           0        0.799376    0.480906    0.000000
      5          1           0        0.000000    0.722251    0.000000
      6          1           0       -0.000000   -0.722251   -0.000000
      7          1           0       -0.799376   -0.480906   -0.000000
      8          1           0       -0.799376   -1.925409   -0.000000
      9          1           0       -1.598751   -1.684063   -0.000000
     10          1           0       -1.598751   -3.128566   -0.000000
 ---------------------------------------------------------------------

 SCF Done:  E(RHF) =  -4.80686476882     A.U. after   10 cycles
 E2 =    -0.2857790767D+00 EUMP2 =    -0.50926438455648D+01

 The electronic state is 1-AG.
 Alpha  occ. eigenvalues --   -0.81115  -0.72820  -0.60214  -0.44312  -0.12289
 Alpha virt. eigenvalues --   -0.00812   0.11673   0.24035   0.41691   0.58040

 Mulliken charges:
               1
     1  H   -0.197968
     2  H    0.045780
     3  H    0.086786
     4  H    0.029050
     5  H    0.036353
     6  H    0.036353
     7  H    0.029050
     8  H    0.086786
     9  H    0.045780
    10  H   -0.197968
 Sum of Mulliken charges =  -0.00000

 Dipole moment (field-independent basis, Debye):
    X=              0.0000    Y=              0.0000    Z=              0.0000  Tot=              0.0000
 Quadrupole moment (field-independent basis, Debye-Ang):
   XX=            -15.7266   YY=            -31.3485   ZZ=            -12.8266
   XY=            -10.1239   XZ=             -0.0000   YZ=             -0.0000

 Normal termination of Gaussian 09 at Thu Feb  9 15:49:00 2017.
