 Gaussian 09, Revision E.01,
 Gaussian 09:  ES64L-G09RevE.01 30-Nov-2015

 ----------------------------------------------------------------------
 #rhf/gen scf(symm,tight,novaracc,noincfock,fulldiag) stable(crhf) geom
 =nocrowd test
 ----------------------------------------------------------------------

 hf stability analysis of h10 triangular lattice, y= 0.9313103730554084
 2
 ----------------------------------------------------------------------
 Symbolic Z-matrix:
 Charge =  0 Multiplicity = 1

                         Standard orientation:
 ---------------------------------------------------------------------
 Center     Atomic      Atomic             Coordinates (Angstroms)
 Number     Number       Type             X           Y           Z
 ---------------------------------------------------------------------
      1          1           0        2.064224    1.422871    0.000000
      2          1           0        2.064224    0.304096    0.000000
      3          1           0        1.032112    0.991129    0.000000
      4          1           0        1.032112   -0.127645    0.000000
      5          1           0        0.000000    0.559387    0.000000
      6          1           0       -0.000000   -0.559387   -0.000000
      7          1           0       -1.032112    0.127645    0.000000
      8          1           0       -1.032112   -0.991129    0.000000
      9          1           0       -2.064224   -0.304096    0.000000
     10          1           0       -2.064224   -1.422871    0.000000
 ---------------------------------------------------------------------

 SCF Done:  E(RHF) =  -4.86467850569     A.U. after   10 cycles
 E2 =    -0.1125444319D+00 EUMP2 =    -0.49772229375823D+01

 The electronic state is 1-AG.
 Alpha  occ. eigenvalues --   -0.85311  -0.74025  -0.54853  -0.37091  -0.30024
 Alpha virt. eigenvalues --   -0.01693   0.22624   0.26605   0.54195   0.70299

 Mulliken charges:
               1
     1  H   -0.096171
     2  H    0.138358
     3  H    0.090724
     4  H   -0.113229
     5  H   -0.019682
     6  H   -0.019682
     7  H   -0.113229
     8  H    0.090724
     9  H    0.138358
    10  H   -0.096171
 Sum of Mulliken charges =  -0.00000

 Dipole moment (field-independent basis, Debye):
    X=              0.0000    Y=              0.0000    Z=              0.0000  Tot=              0.0000
 Quadrupole moment (field-independent basis, Debye-Ang):
   XX=            -14.5804   YY=            -15.1723   ZZ=            -12.9134
   XY=             -1.7571   XZ=             -0.0000   YZ=             -0.0000

 Normal termination of Gaussian 09 at Thu Feb  9 15:32:50 2017.
