 Gaussian 09, Revision E.01,
 Gaussian 09:  ES64L-G09RevE.01 30-Nov-2015

 ----------------------------------------------------------------------
 #rhf/gen scf(symm,tight,novaracc,noincfock,fulldiag) stable(crhf) geom
 =nocrowd test
 ----------------------------------------------------------------------

 ----------------------------------------------------------------------
 hf stability analysis of h10 triangular lattice, y= 1.1806129676413906
 ----------------------------------------------------------------------
 Symbolic Z-matrix:
 Charge =  0 Multiplicity = 1

                         Standard orientation:
 ---------------------------------------------------------------------
 Center     Atomic      Atomic             Coordinates (Angstroms)
 Number     Number       Type             X           Y           Z
 ---------------------------------------------------------------------
      1          1           0        1.807204    2.446147   -0.000000
      2          1           0        1.807204    1.168261   -0.000000
      3          1           0        0.903602    1.542545   -0.000000
      4          1           0        0.903602    0.264659   -0.000000
      5          1           0        0.000000    0.638943   -0.000000
      6          1           0       -0.000000   -0.638943   -0.000000
      7          1           0       -0.903602   -0.264659    0.000000
      8          1           0       -0.903602   -1.542545   -0.000000
      9          1           0       -1.807204   -1.168261   -0.000000
     10          1           0       -1.807204   -2.446147   -0.000000
 ---------------------------------------------------------------------

 SCF Done:  E(RHF) =  -4.79995150128     A.U. after   10 cycles
 E2 =    -0.1251549941D+00 EUMP2 =    -0.49251064953467D+01

 The electronic state is 1-AG.
 Alpha  occ. eigenvalues --   -0.79821  -0.72766  -0.55285  -0.33508  -0.22325
 Alpha virt. eigenvalues --    0.02843   0.14174   0.21301   0.40124   0.61532

 Mulliken charges:
               1
     1  H    0.003813
     2  H    0.093560
     3  H    0.111200
     4  H   -0.104487
     5  H   -0.104085
     6  H   -0.104085
     7  H   -0.104487
     8  H    0.111200
     9  H    0.093560
    10  H    0.003813
 Sum of Mulliken charges =   0.00000

 Dipole moment (field-independent basis, Debye):
    X=             -0.0000    Y=             -0.0000    Z=             -0.0000  Tot=              0.0000
 Quadrupole moment (field-independent basis, Debye-Ang):
   XX=            -11.7342   YY=            -11.2858   ZZ=            -13.1552
   XY=              3.2768   XZ=              0.0000   YZ=             -0.0000

 Normal termination of Gaussian 09 at Thu Feb  9 15:43:29 2017.
