 Gaussian 09, Revision E.01,
 Gaussian 09:  ES64L-G09RevE.01 30-Nov-2015

 ----------------------------------------------------------------------
 #rhf/gen scf(symm,tight,novaracc,noincfock,fulldiag) stable(crhf) geom
 =nocrowd test
 ----------------------------------------------------------------------

 hf stability analysis of h10 triangular lattice, y= 0.9097319657000613
 2
 ----------------------------------------------------------------------
 Symbolic Z-matrix:
 Charge =  0 Multiplicity = 1

                         Standard orientation:
 ---------------------------------------------------------------------
 Center     Atomic      Atomic             Coordinates (Angstroms)
 Number     Number       Type             X           Y           Z
 ---------------------------------------------------------------------
      1          1           0        2.081998    1.320638    0.000000
      2          1           0        2.081998    0.211414    0.000000
      3          1           0        1.040999    0.937625    0.000000
      4          1           0        1.040999   -0.171599    0.000000
      5          1           0       -0.000000    0.554612    0.000000
      6          1           0       -0.000000   -0.554612    0.000000
      7          1           0       -1.040999    0.171599   -0.000000
      8          1           0       -1.040999   -0.937625    0.000000
      9          1           0       -2.081998   -0.211414    0.000000
     10          1           0       -2.081998   -1.320638    0.000000
 ---------------------------------------------------------------------

 SCF Done:  E(RHF) =  -4.86142657692     A.U. after   10 cycles
 E2 =    -0.1128392455D+00 EUMP2 =    -0.49742658223921D+01

 The electronic state is 1-AG.
 Alpha  occ. eigenvalues --   -0.85580  -0.73976  -0.54761  -0.37932  -0.29742
 Alpha virt. eigenvalues --   -0.02093   0.22249   0.28027   0.53691   0.74240

 Mulliken charges:
               1
     1  H   -0.092238
     2  H    0.131629
     3  H    0.081903
     4  H   -0.108445
     5  H   -0.012849
     6  H   -0.012849
     7  H   -0.108445
     8  H    0.081903
     9  H    0.131629
    10  H   -0.092238
 Sum of Mulliken charges =   0.00000

 Dipole moment (field-independent basis, Debye):
    X=             -0.0000    Y=              0.0000    Z=             -0.0000  Tot=              0.0000
 Quadrupole moment (field-independent basis, Debye-Ang):
   XX=            -14.8904   YY=            -14.9294   ZZ=            -12.8906
   XY=             -1.8240   XZ=              0.0000   YZ=              0.0000

 Normal termination of Gaussian 09 at Thu Feb  9 15:31:45 2017.
