 Gaussian 09, Revision E.01,
 Gaussian 09:  ES64L-G09RevE.01 30-Nov-2015

 ----------------------------------------------------------------------
 #rhf/gen scf(symm,tight,novaracc,noincfock,fulldiag) stable(crhf) geom
 =nocrowd test
 ----------------------------------------------------------------------

 hf stability analysis of h10 triangular lattice, y= 0.8713519307064939
 7
 ----------------------------------------------------------------------
 Symbolic Z-matrix:
 Charge =  0 Multiplicity = 1

                         Standard orientation:
 ---------------------------------------------------------------------
 Center     Atomic      Atomic             Coordinates (Angstroms)
 Number     Number       Type             X           Y           Z
 ---------------------------------------------------------------------
      1          1           0        2.109696    1.132401    0.000000
      2          1           0        2.109696    0.037740    0.000000
      3          1           0        1.054848    0.839866    0.000000
      4          1           0        1.054848   -0.254795    0.000000
      5          1           0        0.000000    0.547330    0.000000
      6          1           0       -0.000000   -0.547330    0.000000
      7          1           0       -1.054848    0.254795    0.000000
      8          1           0       -1.054848   -0.839866    0.000000
      9          1           0       -2.109696   -0.037740    0.000000
     10          1           0       -2.109696   -1.132401    0.000000
 ---------------------------------------------------------------------

 SCF Done:  E(RHF) =  -4.85422120585     A.U. after   11 cycles
 E2 =    -0.1137937029D+00 EUMP2 =    -0.49680149087395D+01

 The electronic state is 1-AG.
 Alpha  occ. eigenvalues --   -0.85956  -0.73848  -0.54601  -0.39203  -0.29263
 Alpha virt. eigenvalues --   -0.02665   0.21637   0.30379   0.52898   0.81026

 Mulliken charges:
               1
     1  H   -0.077603
     2  H    0.113593
     3  H    0.061491
     4  H   -0.096251
     5  H   -0.001230
     6  H   -0.001230
     7  H   -0.096251
     8  H    0.061491
     9  H    0.113593
    10  H   -0.077603
 Sum of Mulliken charges =   0.00000

 Dipole moment (field-independent basis, Debye):
    X=             -0.0000    Y=              0.0000    Z=              0.0000  Tot=              0.0000
 Quadrupole moment (field-independent basis, Debye-Ang):
   XX=            -15.3989   YY=            -14.4085   ZZ=            -12.8529
   XY=             -1.7231   XZ=              0.0000   YZ=              0.0000

 Normal termination of Gaussian 09 at Thu Feb  9 15:29:42 2017.
