 Gaussian 09, Revision E.01,
 Gaussian 09:  ES64L-G09RevE.01 30-Nov-2015

 ----------------------------------------------------------------------
 #rhf/gen scf(symm,tight,novaracc,noincfock,fulldiag) stable(crhf) geom
 =nocrowd test
 ----------------------------------------------------------------------

 ----------------------------------------------------------------------
 hf stability analysis of h10 triangular lattice, y= 1.3470498334887806
 ----------------------------------------------------------------------
 Symbolic Z-matrix:
 Charge =  0 Multiplicity = 1

                         Standard orientation:
 ---------------------------------------------------------------------
 Center     Atomic      Atomic             Coordinates (Angstroms)
 Number     Number       Type             X           Y           Z
 ---------------------------------------------------------------------
      1          1           0        1.633711    3.014169    0.000000
      2          1           0        1.633711    1.600576    0.000000
      3          1           0        0.816855    1.860482    0.000000
      4          1           0        0.816855    0.446890    0.000000
      5          1           0        0.000000    0.706796    0.000000
      6          1           0       -0.000000   -0.706796   -0.000000
      7          1           0       -0.816855   -0.446890    0.000000
      8          1           0       -0.816855   -1.860482    0.000000
      9          1           0       -1.633711   -1.600576    0.000000
     10          1           0       -1.633711   -3.014169    0.000000
 ---------------------------------------------------------------------

 SCF Done:  E(RHF) =  -4.77636652448     A.U. after   11 cycles
 E2 =    -0.2481308560D+00 EUMP2 =    -0.50244973804413D+01

 The electronic state is 1-AG.
 Alpha  occ. eigenvalues --   -0.82178  -0.73327  -0.59941  -0.43039  -0.11616
 Alpha virt. eigenvalues --    0.00822   0.09710   0.22214   0.40319   0.56788

 Mulliken charges:
               1
     1  H   -0.224657
     2  H    0.048734
     3  H    0.102755
     4  H    0.033142
     5  H    0.040026
     6  H    0.040026
     7  H    0.033142
     8  H    0.102755
     9  H    0.048734
    10  H   -0.224657
 Sum of Mulliken charges =   0.00000

 Dipole moment (field-independent basis, Debye):
    X=             -0.0000    Y=              0.0000    Z=             -0.0000  Tot=              0.0000
 Quadrupole moment (field-independent basis, Debye-Ang):
   XX=            -16.5177   YY=            -31.9392   ZZ=            -12.8070
   XY=            -11.0850   XZ=             -0.0000   YZ=             -0.0000

 Normal termination of Gaussian 09 at Thu Feb  9 15:48:12 2017.
