 Gaussian 09, Revision E.01,
 Gaussian 09:  ES64L-G09RevE.01 30-Nov-2015

 ----------------------------------------------------------------------
 #rhf/gen scf(symm,tight,novaracc,noincfock,fulldiag) stable(crhf) geom
 =nocrowd test
 ----------------------------------------------------------------------

 hf stability analysis of h10 triangular lattice, y= 0.9357337738212570
 0
 ----------------------------------------------------------------------
 Symbolic Z-matrix:
 Charge =  0 Multiplicity = 1

                         Standard orientation:
 ---------------------------------------------------------------------
 Center     Atomic      Atomic             Coordinates (Angstroms)
 Number     Number       Type             X           Y           Z
 ---------------------------------------------------------------------
      1          1           0        2.060414    1.443516    0.000000
      2          1           0        2.060414    0.322673    0.000000
      3          1           0        1.030207    1.001969    0.000000
      4          1           0        1.030207   -0.118875    0.000000
      5          1           0        0.000000    0.560422    0.000000
      6          1           0       -0.000000   -0.560422    0.000000
      7          1           0       -1.030207    0.118875    0.000000
      8          1           0       -1.030207   -1.001969    0.000000
      9          1           0       -2.060414   -0.322673    0.000000
     10          1           0       -2.060414   -1.443516    0.000000
 ---------------------------------------------------------------------

 SCF Done:  E(RHF) =  -4.86523847584     A.U. after   10 cycles
 E2 =    -0.1125101580D+00 EUMP2 =    -0.49777486338814D+01

 The electronic state is 1-AG.
 Alpha  occ. eigenvalues --   -0.85251  -0.74033  -0.54872  -0.36908  -0.30082
 Alpha virt. eigenvalues --   -0.01604   0.22702   0.26309   0.54303   0.69492

 Mulliken charges:
               1
     1  H   -0.096618
     2  H    0.139454
     3  H    0.092309
     4  H   -0.114050
     5  H   -0.021095
     6  H   -0.021095
     7  H   -0.114050
     8  H    0.092309
     9  H    0.139454
    10  H   -0.096618
 Sum of Mulliken charges =  -0.00000

 Dipole moment (field-independent basis, Debye):
    X=             -0.0000    Y=              0.0000    Z=              0.0000  Tot=              0.0000
 Quadrupole moment (field-independent basis, Debye-Ang):
   XX=            -14.5158   YY=            -15.2153   ZZ=            -12.9182
   XY=             -1.7328   XZ=              0.0000   YZ=              0.0000

 Normal termination of Gaussian 09 at Thu Feb  9 15:33:03 2017.
