 Gaussian 09, Revision E.01,
 Gaussian 09:  ES64L-G09RevE.01 30-Nov-2015

 ----------------------------------------------------------------------
 #rhf/gen scf(symm,tight,novaracc,noincfock,fulldiag) stable(crhf) geom
 =nocrowd test
 ----------------------------------------------------------------------

 ----------------------------------------------------------------------
 hf stability analysis of h10 triangular lattice, y= 1.5628064239970156
 ----------------------------------------------------------------------
 Symbolic Z-matrix:
 Charge =  0 Multiplicity = 1

                         Standard orientation:
 ---------------------------------------------------------------------
 Center     Atomic      Atomic             Coordinates (Angstroms)
 Number     Number       Type             X           Y           Z
 ---------------------------------------------------------------------
      1          1           0        1.438093    3.674744    0.000000
      2          1           0        1.438093    2.068866    0.000000
      3          1           0        0.719046    2.238841    0.000000
      4          1           0        0.719046    0.632964    0.000000
      5          1           0       -0.000000    0.802939    0.000000
      6          1           0       -0.000000   -0.802939    0.000000
      7          1           0       -0.719046   -0.632964   -0.000000
      8          1           0       -0.719046   -2.238841   -0.000000
      9          1           0       -1.438093   -2.068866   -0.000000
     10          1           0       -1.438093   -3.674744   -0.000000
 ---------------------------------------------------------------------

 SCF Done:  E(RHF) =  -4.90698941467     A.U. after    8 cycles
 E2 =    -0.4827744325D+00 EUMP2 =    -0.53897638471769D+01

 The electronic state is 1-AG.
 Alpha  occ. eigenvalues --   -0.76668  -0.70888  -0.61658  -0.50267  -0.15929
 Alpha virt. eigenvalues --   -0.07991   0.22533   0.32821   0.48163   0.63193

 Mulliken charges:
               1
     1  H   -0.084627
     2  H    0.024305
     3  H    0.036561
     4  H    0.008723
     5  H    0.015039
     6  H    0.015039
     7  H    0.008723
     8  H    0.036561
     9  H    0.024305
    10  H   -0.084627
 Sum of Mulliken charges =   0.00000

 Dipole moment (field-independent basis, Debye):
    X=              0.0000    Y=              0.0000    Z=              0.0000  Tot=              0.0000
 Quadrupole moment (field-independent basis, Debye-Ang):
   XX=            -13.2027   YY=            -25.5346   ZZ=            -12.9519
   XY=             -5.3607   XZ=             -0.0000   YZ=             -0.0000

 Normal termination of Gaussian 09 at Thu Feb  9 15:52:23 2017.
