 Gaussian 09, Revision E.01,
 Gaussian 09:  ES64L-G09RevE.01 30-Nov-2015

 ----------------------------------------------------------------------
 #rhf/gen scf(symm,tight,novaracc,noincfock,fulldiag) stable(crhf) geom
 =nocrowd test
 ----------------------------------------------------------------------

 ----------------------------------------------------------------------
 hf stability analysis of h10 triangular lattice, y= 1.4602585906744392
 ----------------------------------------------------------------------
 Symbolic Z-matrix:
 Charge =  0 Multiplicity = 1

                         Standard orientation:
 ---------------------------------------------------------------------
 Center     Atomic      Atomic             Coordinates (Angstroms)
 Number     Number       Type             X           Y           Z
 ---------------------------------------------------------------------
      1          1           0        1.526536    3.368773   -0.000000
      2          1           0        1.526536    1.855935   -0.000000
      3          1           0        0.763268    2.062596   -0.000000
      4          1           0        0.763268    0.549758   -0.000000
      5          1           0        0.000000    0.756419   -0.000000
      6          1           0       -0.000000   -0.756419   -0.000000
      7          1           0       -0.763268   -0.549758   -0.000000
      8          1           0       -0.763268   -2.062596   -0.000000
      9          1           0       -1.526536   -1.855935   -0.000000
     10          1           0       -1.526536   -3.368773   -0.000000
 ---------------------------------------------------------------------

 SCF Done:  E(RHF) =  -4.86160695683     A.U. after    9 cycles
 E2 =    -0.3702749683D+00 EUMP2 =    -0.52318819251535D+01

 The electronic state is 1-AG.
 Alpha  occ. eigenvalues --   -0.78939  -0.71828  -0.60784  -0.46919  -0.13936
 Alpha virt. eigenvalues --   -0.04332   0.16484   0.27952   0.44617   0.60549

 Mulliken charges:
               1
     1  H   -0.142164
     2  H    0.036453
     3  H    0.060413
     4  H    0.018824
     5  H    0.026473
     6  H    0.026473
     7  H    0.018824
     8  H    0.060413
     9  H    0.036453
    10  H   -0.142164
 Sum of Mulliken charges =  -0.00000

 Dipole moment (field-independent basis, Debye):
    X=             -0.0000    Y=              0.0000    Z=              0.0000  Tot=              0.0000
 Quadrupole moment (field-independent basis, Debye-Ang):
   XX=            -14.3484   YY=            -29.0734   ZZ=            -12.8771
   XY=             -7.8860   XZ=             -0.0000   YZ=             -0.0000

 Normal termination of Gaussian 09 at Thu Feb  9 15:50:35 2017.
