 Gaussian 09, Revision E.01,
 Gaussian 09:  ES64L-G09RevE.01 30-Nov-2015

 ----------------------------------------------------------------------
 #rhf/gen scf(symm,tight,novaracc,noincfock,fulldiag) stable(crhf) geom
 =nocrowd test
 ----------------------------------------------------------------------

 ----------------------------------------------------------------------
 hf stability analysis of h10 triangular lattice, y= 2.4713823157820722
 ----------------------------------------------------------------------
 Symbolic Z-matrix:
 Charge =  0 Multiplicity = 1

                         Standard orientation:
 ---------------------------------------------------------------------
 Center     Atomic      Atomic             Coordinates (Angstroms)
 Number     Number       Type             X           Y           Z
 ---------------------------------------------------------------------
      1          1           0        0.930310    6.118058   -0.000000
      2          1           0        0.930310    3.635659   -0.000000
      3          1           0        0.465155    3.679629   -0.000000
      4          1           0        0.465155    1.197230   -0.000000
      5          1           0        0.000000    1.241200    0.000000
      6          1           0       -0.000000   -1.241200    0.000000
      7          1           0       -0.465155   -1.197230   -0.000000
      8          1           0       -0.465155   -3.679629   -0.000000
      9          1           0       -0.930310   -3.635659   -0.000000
     10          1           0       -0.930310   -6.118058   -0.000000
 ---------------------------------------------------------------------

 SCF Done:  E(RHF) =  -4.35554436967     A.U. after    5 cycles
 E2 =    -0.1029225235D+01 EUMP2 =    -0.53847696043839D+01

 The electronic state is 1-AG.
 Alpha  occ. eigenvalues --   -0.73989  -0.73054  -0.71795  -0.70680  -0.20533
 Alpha virt. eigenvalues --   -0.16257   0.57568   0.61834   0.67645   0.72833

 Mulliken charges:
               1
     1  H    0.001274
     2  H   -0.000160
     3  H   -0.001119
     4  H   -0.000073
     5  H    0.000077
     6  H    0.000077
     7  H   -0.000073
     8  H   -0.001119
     9  H   -0.000160
    10  H    0.001274
 Sum of Mulliken charges =   0.00000

 Dipole moment (field-independent basis, Debye):
    X=             -0.0000    Y=             -0.0000    Z=             -0.0000  Tot=              0.0000
 Quadrupole moment (field-independent basis, Debye-Ang):
   XX=            -12.7551   YY=            -14.7229   ZZ=            -13.5025
   XY=             -0.2665   XZ=             -0.0000   YZ=              0.0000

 Normal termination of Gaussian 09 at Thu Feb  9 15:59:52 2017.
