 Gaussian 09, Revision E.01,
 Gaussian 09:  ES64L-G09RevE.01 30-Nov-2015

 ----------------------------------------------------------------------
 #rhf/gen scf(symm,tight,novaracc,noincfock,fulldiag) stable(crhf) geom
 =nocrowd test
 ----------------------------------------------------------------------

 ----------------------------------------------------------------------
 hf stability analysis of h10 triangular lattice, y= 1.3349876594839796
 ----------------------------------------------------------------------
 Symbolic Z-matrix:
 Charge =  0 Multiplicity = 1

                         Standard orientation:
 ---------------------------------------------------------------------
 Center     Atomic      Atomic             Coordinates (Angstroms)
 Number     Number       Type             X           Y           Z
 ---------------------------------------------------------------------
      1          1           0        1.645703    2.975095    0.000000
      2          1           0        1.645703    1.571804    0.000000
      3          1           0        0.822851    1.838371    0.000000
      4          1           0        0.822851    0.435079    0.000000
      5          1           0        0.000000    0.701646    0.000000
      6          1           0       -0.000000   -0.701646    0.000000
      7          1           0       -0.822851   -0.435079    0.000000
      8          1           0       -0.822851   -1.838371    0.000000
      9          1           0       -1.645703   -1.571804    0.000000
     10          1           0       -1.645703   -2.975095    0.000000
 ---------------------------------------------------------------------

 SCF Done:  E(RHF) =  -4.76555324851     A.U. after   11 cycles
 E2 =    -0.2357077390D+00 EUMP2 =    -0.50012609874980D+01

 The electronic state is 1-AG.
 Alpha  occ. eigenvalues --   -0.82528  -0.73497  -0.59842  -0.42593  -0.11428
 Alpha virt. eigenvalues --    0.01277   0.09202   0.21611   0.39864   0.56367

 Mulliken charges:
               1
     1  H   -0.233089
     2  H    0.049261
     3  H    0.108797
     4  H    0.034066
     5  H    0.040965
     6  H    0.040965
     7  H    0.034066
     8  H    0.108797
     9  H    0.049261
    10  H   -0.233089
 Sum of Mulliken charges =  -0.00000

 Dipole moment (field-independent basis, Debye):
    X=              0.0000    Y=             -0.0000    Z=             -0.0000  Tot=              0.0000
 Quadrupole moment (field-independent basis, Debye-Ang):
   XX=            -16.8001   YY=            -32.0177   ZZ=            -12.8015
   XY=            -11.3624   XZ=              0.0000   YZ=              0.0000

 Normal termination of Gaussian 09 at Thu Feb  9 15:47:55 2017.
