 Gaussian 09, Revision E.01,
 Gaussian 09:  ES64L-G09RevE.01 30-Nov-2015

 ----------------------------------------------------------------------
 #rhf/gen scf(symm,tight,novaracc,noincfock,fulldiag) stable(crhf) geom
 =nocrowd test
 ----------------------------------------------------------------------

 ----------------------------------------------------------------------
 hf stability analysis of h10 triangular lattice, y= 1.5507537964299845
 ----------------------------------------------------------------------
 Symbolic Z-matrix:
 Charge =  0 Multiplicity = 1

                         Standard orientation:
 ---------------------------------------------------------------------
 Center     Atomic      Atomic             Coordinates (Angstroms)
 Number     Number       Type             X           Y           Z
 ---------------------------------------------------------------------
      1          1           0        1.448065    3.639397    0.000000
      2          1           0        1.448065    2.044578    0.000000
      3          1           0        0.724033    2.218403    0.000000
      4          1           0        0.724033    0.623585    0.000000
      5          1           0       -0.000000    0.797409    0.000000
      6          1           0       -0.000000   -0.797409    0.000000
      7          1           0       -0.724033   -0.623585    0.000000
      8          1           0       -0.724033   -2.218403    0.000000
      9          1           0       -1.448065   -2.044578    0.000000
     10          1           0       -1.448065   -3.639397    0.000000
 ---------------------------------------------------------------------

 SCF Done:  E(RHF) =  -4.90327824589     A.U. after    8 cycles
 E2 =    -0.4699053024D+00 EUMP2 =    -0.53731835482779D+01

 The electronic state is 1-AG.
 Alpha  occ. eigenvalues --   -0.76894  -0.70974  -0.61546  -0.49877  -0.15717
 Alpha virt. eigenvalues --   -0.07622   0.21858   0.32273   0.47770   0.62925

 Mulliken charges:
               1
     1  H   -0.090288
     2  H    0.025598
     3  H    0.038879
     4  H    0.009643
     5  H    0.016169
     6  H    0.016169
     7  H    0.009643
     8  H    0.038879
     9  H    0.025598
    10  H   -0.090288
 Sum of Mulliken charges =  -0.00000

 Dipole moment (field-independent basis, Debye):
    X=             -0.0000    Y=              0.0000    Z=             -0.0000  Tot=              0.0000
 Quadrupole moment (field-independent basis, Debye-Ang):
   XX=            -13.3032   YY=            -25.9397   ZZ=            -12.9428
   XY=             -5.6189   XZ=              0.0000   YZ=              0.0000

 Normal termination of Gaussian 09 at Thu Feb  9 15:52:11 2017.
