 Gaussian 09, Revision E.01,
 Gaussian 09:  ES64L-G09RevE.01 30-Nov-2015

 ----------------------------------------------------------------------
 #rhf/gen scf(symm,tight,novaracc,noincfock,fulldiag) stable(crhf) geom
 =nocrowd test
 ----------------------------------------------------------------------

 ----------------------------------------------------------------------
 hf stability analysis of h10 triangular lattice, y= 1.6071456321126634
 ----------------------------------------------------------------------
 Symbolic Z-matrix:
 Charge =  0 Multiplicity = 1

                         Standard orientation:
 ---------------------------------------------------------------------
 Center     Atomic      Atomic             Coordinates (Angstroms)
 Number     Number       Type             X           Y           Z
 ---------------------------------------------------------------------
      1          1           0        1.402352    3.803552    0.000000
      2          1           0        1.402352    2.156746    0.000000
      3          1           0        0.701176    2.313478    0.000000
      4          1           0        0.701176    0.666672    0.000000
      5          1           0       -0.000000    0.823403    0.000000
      6          1           0       -0.000000   -0.823403   -0.000000
      7          1           0       -0.701176   -0.666672    0.000000
      8          1           0       -0.701176   -2.313478    0.000000
      9          1           0       -1.402352   -2.156746    0.000000
     10          1           0       -1.402352   -3.803552    0.000000
 ---------------------------------------------------------------------

 SCF Done:  E(RHF) =  -4.91702356317     A.U. after    8 cycles
 E2 =    -0.5285883008D+00 EUMP2 =    -0.54456118640037D+01

 The electronic state is 1-AG.
 Alpha  occ. eigenvalues --   -0.75925  -0.70624  -0.62097  -0.51694  -0.16652
 Alpha virt. eigenvalues --   -0.09218   0.24934   0.34778   0.49551   0.64092

 Mulliken charges:
               1
     1  H   -0.066201
     2  H    0.019939
     3  H    0.028953
     4  H    0.005900
     5  H    0.011410
     6  H    0.011410
     7  H    0.005900
     8  H    0.028953
     9  H    0.019939
    10  H   -0.066201
 Sum of Mulliken charges =  -0.00000

 Dipole moment (field-independent basis, Debye):
    X=              0.0000    Y=              0.0000    Z=             -0.0000  Tot=              0.0000
 Quadrupole moment (field-independent basis, Debye-Ang):
   XX=            -12.8971   YY=            -24.1141   ZZ=            -12.9860
   XY=             -4.5015   XZ=             -0.0000   YZ=              0.0000

 Normal termination of Gaussian 09 at Thu Feb  9 15:53:03 2017.
