 Gaussian 09, Revision E.01,
 Gaussian 09:  ES64L-G09RevE.01 30-Nov-2015

 ----------------------------------------------------------------------
 #rhf/gen scf(symm,tight,novaracc,noincfock,fulldiag) stable(crhf) geom
 =nocrowd test
 ----------------------------------------------------------------------

 ----------------------------------------------------------------------
 hf stability analysis of h10 triangular lattice, y= 2.0664404105935832
 ----------------------------------------------------------------------
 Symbolic Z-matrix:
 Charge =  0 Multiplicity = 1

                         Standard orientation:
 ---------------------------------------------------------------------
 Center     Atomic      Atomic             Coordinates (Angstroms)
 Number     Number       Type             X           Y           Z
 ---------------------------------------------------------------------
      1          1           0        1.107498    5.063367   -0.000000
      2          1           0        1.107498    2.978124   -0.000000
      3          1           0        0.553749    3.052994   -0.000000
      4          1           0        0.553749    0.967752   -0.000000
      5          1           0        0.000000    1.042621   -0.000000
      6          1           0       -0.000000   -1.042621   -0.000000
      7          1           0       -0.553749   -0.967752   -0.000000
      8          1           0       -0.553749   -3.052994   -0.000000
      9          1           0       -1.107498   -2.978124   -0.000000
     10          1           0       -1.107498   -5.063367   -0.000000
 ---------------------------------------------------------------------

 SCF Done:  E(RHF) =  -4.75058994595     A.U. after    6 cycles
 E2 =    -0.8453102831D+00 EUMP2 =    -0.55959002290657D+01

 The electronic state is 1-AG.
 Alpha  occ. eigenvalues --   -0.73327  -0.71044  -0.67621  -0.64131  -0.20095
 Alpha virt. eigenvalues --   -0.14954   0.44483   0.50986   0.60346   0.69170

 Mulliken charges:
               1
     1  H   -0.002199
     2  H    0.001612
     3  H    0.000203
     4  H   -0.000211
     5  H    0.000595
     6  H    0.000595
     7  H   -0.000211
     8  H    0.000203
     9  H    0.001612
    10  H   -0.002199
 Sum of Mulliken charges =   0.00000

 Dipole moment (field-independent basis, Debye):
    X=             -0.0000    Y=             -0.0000    Z=              0.0000  Tot=              0.0000
 Quadrupole moment (field-independent basis, Debye-Ang):
   XX=            -12.4174   YY=            -16.5205   ZZ=            -13.3254
   XY=             -0.8620   XZ=              0.0000   YZ=              0.0000

 Normal termination of Gaussian 09 at Thu Feb  9 15:57:43 2017.
