 Gaussian 09, Revision E.01,
 Gaussian 09:  ES64L-G09RevE.01 30-Nov-2015

 ----------------------------------------------------------------------
 #rhf/gen scf(symm,tight,novaracc,noincfock,fulldiag) stable(crhf) geom
 =nocrowd test
 ----------------------------------------------------------------------

 hf stability analysis of h10 triangular lattice, y= 0.8898004752336952
 1
 ----------------------------------------------------------------------
 Symbolic Z-matrix:
 Charge =  0 Multiplicity = 1

                         Standard orientation:
 ---------------------------------------------------------------------
 Center     Atomic      Atomic             Coordinates (Angstroms)
 Number     Number       Type             X           Y           Z
 ---------------------------------------------------------------------
      1          1           0        2.097069    1.223921    0.000000
      2          1           0        2.097069    0.122669    0.000000
      3          1           0        1.048534    0.887274    0.000000
      4          1           0        1.048534   -0.213978    0.000000
      5          1           0        0.000000    0.550626    0.000000
      6          1           0       -0.000000   -0.550626   -0.000000
      7          1           0       -1.048534    0.213978   -0.000000
      8          1           0       -1.048534   -0.887274   -0.000000
      9          1           0       -2.097069   -0.122669   -0.000000
     10          1           0       -2.097069   -1.223921   -0.000000
 ---------------------------------------------------------------------

 SCF Done:  E(RHF) =  -4.85783299568     A.U. after   10 cycles
 E2 =    -0.1132780409D+00 EUMP2 =    -0.49711110365731D+01

 The electronic state is 1-AG.
 Alpha  occ. eigenvalues --   -0.85791  -0.73915  -0.54676  -0.38631  -0.29487
 Alpha virt. eigenvalues --   -0.02413   0.21920   0.29285   0.53261   0.77828

 Mulliken charges:
               1
     1  H   -0.085894
     2  H    0.123267
     3  H    0.072073
     4  H   -0.102753
     5  H   -0.006693
     6  H   -0.006693
     7  H   -0.102753
     8  H    0.072073
     9  H    0.123267
    10  H   -0.085894
 Sum of Mulliken charges =   0.00000

 Dipole moment (field-independent basis, Debye):
    X=             -0.0000    Y=             -0.0000    Z=             -0.0000  Tot=              0.0000
 Quadrupole moment (field-independent basis, Debye-Ang):
   XX=            -15.1636   YY=            -14.6679   ZZ=            -12.8704
   XY=             -1.8073   XZ=             -0.0000   YZ=             -0.0000

 Normal termination of Gaussian 09 at Thu Feb  9 15:30:42 2017.
