 Gaussian 09, Revision E.01,
 Gaussian 09:  ES64L-G09RevE.01 30-Nov-2015

 ----------------------------------------------------------------------
 #rhf/gen scf(symm,tight,novaracc,noincfock,fulldiag) stable(crhf) geom
 =nocrowd test
 ----------------------------------------------------------------------

 ----------------------------------------------------------------------
 hf stability analysis of h10 triangular lattice, y= 1.1014370258989608
 ----------------------------------------------------------------------
 Symbolic Z-matrix:
 Charge =  0 Multiplicity = 1

                         Standard orientation:
 ---------------------------------------------------------------------
 Center     Atomic      Atomic             Coordinates (Angstroms)
 Number     Number       Type             X           Y           Z
 ---------------------------------------------------------------------
      1          1           0        1.893252    2.148508    0.000000
      2          1           0        1.893252    0.928701    0.000000
      3          1           0        0.946626    1.379205    0.000000
      4          1           0        0.946626    0.159399    0.000000
      5          1           0        0.000000    0.609903   -0.000000
      6          1           0       -0.000000   -0.609903   -0.000000
      7          1           0       -0.946626   -0.159399    0.000000
      8          1           0       -0.946626   -1.379205    0.000000
      9          1           0       -1.893252   -0.928701    0.000000
     10          1           0       -1.893252   -2.148508    0.000000
 ---------------------------------------------------------------------

 SCF Done:  E(RHF) =  -4.84416075173     A.U. after   10 cycles
 E2 =    -0.1182610601D+00 EUMP2 =    -0.49624218118148D+01

 The electronic state is 1-AG.
 Alpha  occ. eigenvalues --   -0.81924  -0.73520  -0.55328  -0.32620  -0.27543
 Alpha virt. eigenvalues --    0.02359   0.16144   0.24241   0.44716   0.59046

 Mulliken charges:
               1
     1  H   -0.047458
     2  H    0.126894
     3  H    0.113065
     4  H   -0.117991
     5  H   -0.074510
     6  H   -0.074510
     7  H   -0.117991
     8  H    0.113065
     9  H    0.126894
    10  H   -0.047458
 Sum of Mulliken charges =   0.00000

 Dipole moment (field-independent basis, Debye):
    X=             -0.0000    Y=              0.0000    Z=              0.0000  Tot=              0.0000
 Quadrupole moment (field-independent basis, Debye-Ang):
   XX=            -12.3519   YY=            -14.1101   ZZ=            -13.0910
   XY=              1.1421   XZ=              0.0000   YZ=             -0.0000

 Normal termination of Gaussian 09 at Thu Feb  9 15:40:35 2017.
