 Gaussian 09, Revision E.01,
 Gaussian 09:  ES64L-G09RevE.01 30-Nov-2015

 ----------------------------------------------------------------------
 #rhf/gen scf(symm,tight,novaracc,noincfock,fulldiag) stable(crhf) geom
 =nocrowd test
 ----------------------------------------------------------------------

 ----------------------------------------------------------------------
 hf stability analysis of h10 triangular lattice, y= 1.6845675376176648
 ----------------------------------------------------------------------
 Symbolic Z-matrix:
 Charge =  0 Multiplicity = 1

                         Standard orientation:
 ---------------------------------------------------------------------
 Center     Atomic      Atomic             Coordinates (Angstroms)
 Number     Number       Type             X           Y           Z
 ---------------------------------------------------------------------
      1          1           0        1.343395    4.024380    0.000000
      2          1           0        1.343395    2.305301    0.000000
      3          1           0        0.671697    2.441959    0.000000
      4          1           0        0.671697    0.722881    0.000000
      5          1           0        0.000000    0.859539    0.000000
      6          1           0       -0.000000   -0.859539    0.000000
      7          1           0       -0.671697   -0.722881    0.000000
      8          1           0       -0.671697   -2.441959    0.000000
      9          1           0       -1.343395   -2.305301    0.000000
     10          1           0       -1.343395   -4.024380    0.000000
 ---------------------------------------------------------------------

 SCF Done:  E(RHF) =  -4.92147094828     A.U. after    7 cycles
 E2 =    -0.6013845413D+00 EUMP2 =    -0.55228554895952D+01

 The electronic state is 1-AG.
 Alpha  occ. eigenvalues --   -0.74932  -0.70347  -0.62944  -0.54136  -0.17702
 Alpha virt. eigenvalues --   -0.10940   0.28828   0.37984   0.51773   0.65368

 Mulliken charges:
               1
     1  H   -0.042079
     2  H    0.013799
     3  H    0.018687
     4  H    0.002720
     5  H    0.006873
     6  H    0.006873
     7  H    0.002720
     8  H    0.018687
     9  H    0.013799
    10  H   -0.042079
 Sum of Mulliken charges =   0.00000

 Dipole moment (field-independent basis, Debye):
    X=              0.0000    Y=             -0.0000    Z=              0.0000  Tot=              0.0000
 Quadrupole moment (field-independent basis, Debye-Ang):
   XX=            -12.5577   YY=            -21.9636   ZZ=            -13.0472
   XY=             -3.3180   XZ=              0.0000   YZ=              0.0000

 Normal termination of Gaussian 09 at Thu Feb  9 15:54:06 2017.
