 Gaussian 09, Revision E.01,
 Gaussian 09:  ES64L-G09RevE.01 30-Nov-2015

 ----------------------------------------------------------------------
 #rhf/gen scf(symm,tight,novaracc,noincfock,fulldiag) stable(crhf) geom
 =nocrowd test
 ----------------------------------------------------------------------

 ----------------------------------------------------------------------
 hf stability analysis of h10 triangular lattice, y= 1.1969086485458049
 ----------------------------------------------------------------------
 Symbolic Z-matrix:
 Charge =  0 Multiplicity = 1

                         Standard orientation:
 ---------------------------------------------------------------------
 Center     Atomic      Atomic             Coordinates (Angstroms)
 Number     Number       Type             X           Y           Z
 ---------------------------------------------------------------------
      1          1           0        1.789605    2.504901   -0.000000
      2          1           0        1.789605    1.214448   -0.000000
      3          1           0        0.894803    1.575064   -0.000000
      4          1           0        0.894803    0.284611   -0.000000
      5          1           0        0.000000    0.645227   -0.000000
      6          1           0       -0.000000   -0.645227   -0.000000
      7          1           0       -0.894803   -0.284611   -0.000000
      8          1           0       -0.894803   -1.575064   -0.000000
      9          1           0       -1.789605   -1.214448   -0.000000
     10          1           0       -1.789605   -2.504901   -0.000000
 ---------------------------------------------------------------------

 SCF Done:  E(RHF) =  -4.78826588160     A.U. after   10 cycles
 E2 =    -0.1268407686D+00 EUMP2 =    -0.49151066501941D+01

 The electronic state is 1-AG.
 Alpha  occ. eigenvalues --   -0.79368  -0.72579  -0.55254  -0.33701  -0.21196
 Alpha virt. eigenvalues --    0.02614   0.14217   0.20283   0.39861   0.62043

 Mulliken charges:
               1
     1  H    0.015438
     2  H    0.084379
     3  H    0.111329
     4  H   -0.099589
     5  H   -0.111557
     6  H   -0.111557
     7  H   -0.099589
     8  H    0.111329
     9  H    0.084379
    10  H    0.015438
 Sum of Mulliken charges =   0.00000

 Dipole moment (field-independent basis, Debye):
    X=              0.0000    Y=             -0.0000    Z=             -0.0000  Tot=              0.0000
 Quadrupole moment (field-independent basis, Debye-Ang):
   XX=            -11.6543   YY=            -10.5159   ZZ=            -13.1658
   XY=              3.7262   XZ=              0.0000   YZ=              0.0000

 Normal termination of Gaussian 09 at Thu Feb  9 15:44:00 2017.
