 Gaussian 09, Revision E.01,
 Gaussian 09:  ES64L-G09RevE.01 30-Nov-2015

 ----------------------------------------------------------------------
 #rhf/gen scf(symm,tight,novaracc,noincfock,fulldiag) stable(crhf) geom
 =nocrowd test
 ----------------------------------------------------------------------

 ----------------------------------------------------------------------
 hf stability analysis of h10 triangular lattice, y= 1.0333378255207359
 ----------------------------------------------------------------------
 Symbolic Z-matrix:
 Charge =  0 Multiplicity = 1

                         Standard orientation:
 ---------------------------------------------------------------------
 Center     Atomic      Atomic             Coordinates (Angstroms)
 Number     Number       Type             X           Y           Z
 ---------------------------------------------------------------------
      1          1           0        1.965922    1.873822    0.000000
      2          1           0        1.965922    0.699105    0.000000
      3          1           0        0.982961    1.230590    0.000000
      4          1           0        0.982961    0.055873    0.000000
      5          1           0        0.000000    0.587358    0.000000
      6          1           0       -0.000000   -0.587358   -0.000000
      7          1           0       -0.982961   -0.055873    0.000000
      8          1           0       -0.982961   -1.230590    0.000000
      9          1           0       -1.965922   -0.699105    0.000000
     10          1           0       -1.965922   -1.873822    0.000000
 ---------------------------------------------------------------------

 SCF Done:  E(RHF) =  -4.86408851645     A.U. after   10 cycles
 E2 =    -0.1142840664D+00 EUMP2 =    -0.49783725828966D+01

 The electronic state is 1-AG.
 Alpha  occ. eigenvalues --   -0.83515  -0.73920  -0.55218  -0.32605  -0.30819
 Alpha virt. eigenvalues --    0.00741   0.19838   0.24232   0.53083   0.56973

 Mulliken charges:
               1
     1  H   -0.080425
     2  H    0.142836
     3  H    0.111529
     4  H   -0.121576
     5  H   -0.052364
     6  H   -0.052364
     7  H   -0.121576
     8  H    0.111529
     9  H    0.142836
    10  H   -0.080425
 Sum of Mulliken charges =   0.00000

 Dipole moment (field-independent basis, Debye):
    X=              0.0000    Y=              0.0000    Z=              0.0000  Tot=              0.0000
 Quadrupole moment (field-independent basis, Debye-Ang):
   XX=            -13.1328   YY=            -15.2975   ZZ=            -13.0239
   XY=             -0.4177   XZ=             -0.0000   YZ=             -0.0000

 Normal termination of Gaussian 09 at Thu Feb  9 15:37:45 2017.
