 Gaussian 09, Revision E.01,
 Gaussian 09:  ES64L-G09RevE.01 30-Nov-2015

 ----------------------------------------------------------------------
 #rhf/gen scf(symm,tight,novaracc,noincfock,fulldiag) stable(crhf) geom
 =nocrowd test
 ----------------------------------------------------------------------

 ----------------------------------------------------------------------
 hf stability analysis of h10 triangular lattice, y= 1.1705186749937306
 ----------------------------------------------------------------------
 Symbolic Z-matrix:
 Charge =  0 Multiplicity = 1

                         Standard orientation:
 ---------------------------------------------------------------------
 Center     Atomic      Atomic             Coordinates (Angstroms)
 Number     Number       Type             X           Y           Z
 ---------------------------------------------------------------------
      1          1           0        1.818143    2.409350    0.000000
      2          1           0        1.818143    1.139152   -0.000000
      3          1           0        0.909071    1.522225    0.000000
      4          1           0        0.909071    0.252027   -0.000000
      5          1           0        0.000000    0.635099    0.000000
      6          1           0       -0.000000   -0.635099    0.000000
      7          1           0       -0.909071   -0.252027   -0.000000
      8          1           0       -0.909071   -1.522225    0.000000
      9          1           0       -1.818143   -1.139152   -0.000000
     10          1           0       -1.818143   -2.409350    0.000000
 ---------------------------------------------------------------------

 SCF Done:  E(RHF) =  -4.80677589105     A.U. after   10 cycles
 E2 =    -0.1241565712D+00 EUMP2 =    -0.49309324622513D+01

 The electronic state is 1-AG.
 Alpha  occ. eigenvalues --   -0.80100  -0.72877  -0.55300  -0.33391  -0.23017
 Alpha virt. eigenvalues --    0.02925   0.14228   0.21875   0.40388   0.61215

 Mulliken charges:
               1
     1  H   -0.003251
     2  H    0.098770
     3  H    0.111313
     4  H   -0.107028
     5  H   -0.099804
     6  H   -0.099804
     7  H   -0.107028
     8  H    0.111313
     9  H    0.098770
    10  H   -0.003251
 Sum of Mulliken charges =  -0.00000

 Dipole moment (field-independent basis, Debye):
    X=              0.0000    Y=             -0.0000    Z=              0.0000  Tot=              0.0000
 Quadrupole moment (field-independent basis, Debye-Ang):
   XX=            -11.7929   YY=            -11.7317   ZZ=            -13.1481
   XY=              2.9971   XZ=             -0.0000   YZ=              0.0000

 Normal termination of Gaussian 09 at Thu Feb  9 15:43:09 2017.
