 Gaussian 09, Revision E.01,
 Gaussian 09:  ES64L-G09RevE.01 30-Nov-2015

 ----------------------------------------------------------------------
 #rhf/gen scf(symm,tight,novaracc,noincfock,fulldiag) stable(crhf) geom
 =nocrowd test
 ----------------------------------------------------------------------

 ----------------------------------------------------------------------
 hf stability analysis of h10 triangular lattice, y= 1.0376674704585451
 ----------------------------------------------------------------------
 Symbolic Z-matrix:
 Charge =  0 Multiplicity = 1

                         Standard orientation:
 ---------------------------------------------------------------------
 Center     Atomic      Atomic             Coordinates (Angstroms)
 Number     Number       Type             X           Y           Z
 ---------------------------------------------------------------------
      1          1           0        1.961402    1.891864   -0.000000
      2          1           0        1.961402    0.714441   -0.000000
      3          1           0        0.980701    1.240288   -0.000000
      4          1           0        0.980701    0.062864   -0.000000
      5          1           0        0.000000    0.588712   -0.000000
      6          1           0       -0.000000   -0.588712   -0.000000
      7          1           0       -0.980701   -0.062864    0.000000
      8          1           0       -0.980701   -1.240288   -0.000000
      9          1           0       -1.961402   -0.714441    0.000000
     10          1           0       -1.961402   -1.891864   -0.000000
 ---------------------------------------------------------------------

 SCF Done:  E(RHF) =  -4.86332443192     A.U. after   10 cycles
 E2 =    -0.1144745573D+00 EUMP2 =    -0.49777989892069D+01

 The electronic state is 1-AG.
 Alpha  occ. eigenvalues --   -0.83422  -0.73903  -0.55229  -0.32498  -0.30735
 Alpha virt. eigenvalues --    0.00854   0.19572   0.24275   0.52455   0.57101

 Mulliken charges:
               1
     1  H   -0.078751
     2  H    0.142203
     3  H    0.111832
     4  H   -0.121535
     5  H   -0.053749
     6  H   -0.053749
     7  H   -0.121535
     8  H    0.111832
     9  H    0.142203
    10  H   -0.078751
 Sum of Mulliken charges =   0.00000

 Dipole moment (field-independent basis, Debye):
    X=              0.0000    Y=              0.0000    Z=             -0.0000  Tot=              0.0000
 Quadrupole moment (field-independent basis, Debye-Ang):
   XX=            -13.0772   YY=            -15.2551   ZZ=            -13.0284
   XY=             -0.3308   XZ=             -0.0000   YZ=             -0.0000

 Normal termination of Gaussian 09 at Thu Feb  9 15:37:57 2017.
