 Gaussian 09, Revision E.01,
 Gaussian 09:  ES64L-G09RevE.01 30-Nov-2015

 ----------------------------------------------------------------------
 #rhf/gen scf(symm,tight,novaracc,noincfock,fulldiag) stable(crhf) geom
 =nocrowd test
 ----------------------------------------------------------------------

 ----------------------------------------------------------------------
 hf stability analysis of h10 triangular lattice, y= 2.1606615333566506
 ----------------------------------------------------------------------
 Symbolic Z-matrix:
 Charge =  0 Multiplicity = 1

                         Standard orientation:
 ---------------------------------------------------------------------
 Center     Atomic      Atomic             Coordinates (Angstroms)
 Number     Number       Type             X           Y           Z
 ---------------------------------------------------------------------
      1          1           0        1.060759    5.311620    0.000000
      2          1           0        1.060759    3.134498    0.000000
      3          1           0        0.530380    3.200090    0.000000
      4          1           0        0.530380    1.022969    0.000000
      5          1           0        0.000000    1.088561    0.000000
      6          1           0       -0.000000   -1.088561    0.000000
      7          1           0       -0.530380   -1.022969    0.000000
      8          1           0       -0.530380   -3.200090    0.000000
      9          1           0       -1.060759   -3.134498    0.000000
     10          1           0       -1.060759   -5.311620    0.000000
 ---------------------------------------------------------------------

 SCF Done:  E(RHF) =  -4.67276908762     A.U. after    5 cycles
 E2 =    -0.8904589808D+00 EUMP2 =    -0.55632280683720D+01

 The electronic state is 1-AG.
 Alpha  occ. eigenvalues --   -0.73359  -0.71467  -0.68700  -0.65980  -0.20292
 Alpha virt. eigenvalues --   -0.15389   0.47783   0.53718   0.62138   0.69967

 Mulliken charges:
               1
     1  H   -0.000293
     2  H    0.000800
     3  H   -0.000670
     4  H   -0.000188
     5  H    0.000351
     6  H    0.000351
     7  H   -0.000188
     8  H   -0.000670
     9  H    0.000800
    10  H   -0.000293
 Sum of Mulliken charges =  -0.00000

 Dipole moment (field-independent basis, Debye):
    X=             -0.0000    Y=             -0.0000    Z=              0.0000  Tot=              0.0000
 Quadrupole moment (field-independent basis, Debye-Ang):
   XX=            -12.4963   YY=            -15.9156   ZZ=            -13.3782
   XY=             -0.6441   XZ=             -0.0000   YZ=              0.0000

 Normal termination of Gaussian 09 at Thu Feb  9 15:58:20 2017.
