 Gaussian 09, Revision E.01,
 Gaussian 09:  ES64L-G09RevE.01 30-Nov-2015

 ----------------------------------------------------------------------
 #rhf/gen scf(symm,tight,novaracc,noincfock,fulldiag) stable(crhf) geom
 =nocrowd test
 ----------------------------------------------------------------------

 hf stability analysis of h10 triangular lattice, y= 0.8580921458546944
 0
 ----------------------------------------------------------------------
 Symbolic Z-matrix:
 Charge =  0 Multiplicity = 1

                         Standard orientation:
 ---------------------------------------------------------------------
 Center     Atomic      Atomic             Coordinates (Angstroms)
 Number     Number       Type             X           Y           Z
 ---------------------------------------------------------------------
      1          1           0        2.117895    1.065416    0.000000
      2          1           0        2.117895   -0.025007    0.000000
      3          1           0        1.058947    0.805314    0.000000
      4          1           0        1.058947   -0.285109    0.000000
      5          1           0        0.000000    0.545212    0.000000
      6          1           0       -0.000000   -0.545212    0.000000
      7          1           0       -1.058947    0.285109    0.000000
      8          1           0       -1.058947   -0.805314    0.000000
      9          1           0       -2.117895    0.025007    0.000000
     10          1           0       -2.117895   -1.065416    0.000000
 ---------------------------------------------------------------------

 SCF Done:  E(RHF) =  -4.85157853653     A.U. after   10 cycles
 E2 =    -0.1142072166D+00 EUMP2 =    -0.49657857530854D+01

 The electronic state is 1-AG.
 Alpha  occ. eigenvalues --   -0.86055  -0.73796  -0.54550  -0.39568  -0.29111
 Alpha virt. eigenvalues --   -0.02820   0.21450   0.31110   0.52660   0.83203

 Mulliken charges:
               1
     1  H   -0.070189
     2  H    0.105460
     3  H    0.053012
     4  H   -0.090770
     5  H    0.002488
     6  H    0.002488
     7  H   -0.090770
     8  H    0.053012
     9  H    0.105460
    10  H   -0.070189
 Sum of Mulliken charges =  -0.00000

 Dipole moment (field-independent basis, Debye):
    X=              0.0000    Y=              0.0000    Z=              0.0000  Tot=              0.0000
 Quadrupole moment (field-independent basis, Debye-Ang):
   XX=            -15.5544   YY=            -14.2201   ZZ=            -12.8412
   XY=             -1.6219   XZ=              0.0000   YZ=              0.0000

 Normal termination of Gaussian 09 at Thu Feb  9 15:28:58 2017.
