 Gaussian 09, Revision E.01,
 Gaussian 09:  ES64L-G09RevE.01 30-Nov-2015

 ----------------------------------------------------------------------
 #rhf/gen scf(symm,tight,novaracc,noincfock,fulldiag) stable(crhf) geom
 =nocrowd test
 ----------------------------------------------------------------------

 ----------------------------------------------------------------------
 hf stability analysis of h10 triangular lattice, y= 1.3894344756637986
 ----------------------------------------------------------------------
 Symbolic Z-matrix:
 Charge =  0 Multiplicity = 1

                         Standard orientation:
 ---------------------------------------------------------------------
 Center     Atomic      Atomic             Coordinates (Angstroms)
 Number     Number       Type             X           Y           Z
 ---------------------------------------------------------------------
      1          1           0        1.592428    3.149360    0.000000
      2          1           0        1.592428    1.699121    0.000000
      3          1           0        0.796214    1.937240    0.000000
      4          1           0        0.796214    0.487001    0.000000
      5          1           0        0.000000    0.725119    0.000000
      6          1           0       -0.000000   -0.725119   -0.000000
      7          1           0       -0.796214   -0.487001   -0.000000
      8          1           0       -0.796214   -1.937240   -0.000000
      9          1           0       -1.592428   -1.699121   -0.000000
     10          1           0       -1.592428   -3.149360   -0.000000
 ---------------------------------------------------------------------

 SCF Done:  E(RHF) =  -4.81215637527     A.U. after   10 cycles
 E2 =    -0.2928150737D+00 EUMP2 =    -0.51049714490166D+01

 The electronic state is 1-AG.
 Alpha  occ. eigenvalues --   -0.80920  -0.72729  -0.60262  -0.44540  -0.12424
 Alpha virt. eigenvalues --   -0.01127   0.12071   0.24372   0.41944   0.58266

 Mulliken charges:
               1
     1  H   -0.192988
     2  H    0.045085
     3  H    0.084148
     4  H    0.028184
     5  H    0.035571
     6  H    0.035571
     7  H    0.028184
     8  H    0.084148
     9  H    0.045085
    10  H   -0.192988
 Sum of Mulliken charges =   0.00000

 Dipole moment (field-independent basis, Debye):
    X=              0.0000    Y=              0.0000    Z=              0.0000  Tot=              0.0000
 Quadrupole moment (field-independent basis, Debye-Ang):
   XX=            -15.5908   YY=            -31.1958   ZZ=            -12.8305
   XY=             -9.9347   XZ=             -0.0000   YZ=             -0.0000

 Normal termination of Gaussian 09 at Thu Feb  9 15:49:09 2017.
