 Gaussian 09, Revision E.01,
 Gaussian 09:  ES64L-G09RevE.01 30-Nov-2015

 ----------------------------------------------------------------------
 #rhf/gen scf(symm,tight,novaracc,noincfock,fulldiag) stable(crhf) geom
 =nocrowd test
 ----------------------------------------------------------------------

 ----------------------------------------------------------------------
 hf stability analysis of h10 triangular lattice, y= 1.1578395597018831
 ----------------------------------------------------------------------
 Symbolic Z-matrix:
 Charge =  0 Multiplicity = 1

                         Standard orientation:
 ---------------------------------------------------------------------
 Center     Atomic      Atomic             Coordinates (Angstroms)
 Number     Number       Type             X           Y           Z
 ---------------------------------------------------------------------
      1          1           0        1.831913    2.362679    0.000000
      2          1           0        1.831913    1.102029    0.000000
      3          1           0        0.915956    1.496502    0.000000
      4          1           0        0.915956    0.235852    0.000000
      5          1           0       -0.000000    0.630325    0.000000
      6          1           0       -0.000000   -0.630325   -0.000000
      7          1           0       -0.915956   -0.235852   -0.000000
      8          1           0       -0.915956   -1.496502   -0.000000
      9          1           0       -1.831913   -1.102029   -0.000000
     10          1           0       -1.831913   -2.362679   -0.000000
 ---------------------------------------------------------------------

 SCF Done:  E(RHF) =  -4.81487730103     A.U. after   10 cycles
 E2 =    -0.1229507879D+00 EUMP2 =    -0.49378280888976D+01

 The electronic state is 1-AG.
 Alpha  occ. eigenvalues --   -0.80446  -0.73010  -0.55316  -0.33245  -0.23877
 Alpha virt. eigenvalues --    0.02961   0.14384   0.22522   0.40843   0.60816

 Mulliken charges:
               1
     1  H   -0.011944
     2  H    0.104869
     3  H    0.111584
     4  H   -0.109793
     5  H   -0.094716
     6  H   -0.094716
     7  H   -0.109793
     8  H    0.111584
     9  H    0.104869
    10  H   -0.011944
 Sum of Mulliken charges =  -0.00000

 Dipole moment (field-independent basis, Debye):
    X=              0.0000    Y=              0.0000    Z=             -0.0000  Tot=              0.0000
 Quadrupole moment (field-independent basis, Debye-Ang):
   XX=            -11.8756   YY=            -12.2569   ZZ=            -13.1386
   XY=              2.6465   XZ=              0.0000   YZ=              0.0000

 Normal termination of Gaussian 09 at Thu Feb  9 15:42:42 2017.
