 Gaussian 09, Revision E.01,
 Gaussian 09:  ES64L-G09RevE.01 30-Nov-2015

 ----------------------------------------------------------------------
 #rhf/gen scf(symm,tight,novaracc,noincfock,fulldiag) stable(crhf) geom
 =nocrowd test
 ----------------------------------------------------------------------

 ----------------------------------------------------------------------
 hf stability analysis of h10 triangular lattice, y= 1.0081271448700442
 ----------------------------------------------------------------------
 Symbolic Z-matrix:
 Charge =  0 Multiplicity = 1

                         Standard orientation:
 ---------------------------------------------------------------------
 Center     Atomic      Atomic             Coordinates (Angstroms)
 Number     Number       Type             X           Y           Z
 ---------------------------------------------------------------------
      1          1           0        1.991825    1.767086   -0.000000
      2          1           0        1.991825    0.607646   -0.000000
      3          1           0        0.995912    1.173403    0.000000
      4          1           0        0.995912    0.013963   -0.000000
      5          1           0        0.000000    0.579720    0.000000
      6          1           0       -0.000000   -0.579720    0.000000
      7          1           0       -0.995912   -0.013963   -0.000000
      8          1           0       -0.995912   -1.173403    0.000000
      9          1           0       -1.991825   -0.607646    0.000000
     10          1           0       -1.991825   -1.767086    0.000000
 ---------------------------------------------------------------------

 SCF Done:  E(RHF) =  -4.86723441718     A.U. after   10 cycles
 E2 =    -0.1133578769D+00 EUMP2 =    -0.49805922941015D+01

 The electronic state is 1-AG.
 Alpha  occ. eigenvalues --   -0.84032  -0.74002  -0.55146  -0.33592  -0.30892
 Alpha virt. eigenvalues --    0.00088   0.21443   0.23917   0.56239   0.56948

 Mulliken charges:
               1
     1  H   -0.088780
     2  H    0.145349
     3  H    0.109008
     4  H   -0.121270
     5  H   -0.044306
     6  H   -0.044306
     7  H   -0.121270
     8  H    0.109008
     9  H    0.145349
    10  H   -0.088780
 Sum of Mulliken charges =  -0.00000

 Dipole moment (field-independent basis, Debye):
    X=             -0.0000    Y=             -0.0000    Z=             -0.0000  Tot=              0.0000
 Quadrupole moment (field-independent basis, Debye-Ang):
   XX=            -13.4695   YY=            -15.4597   ZZ=            -12.9971
   XY=             -0.8828   XZ=              0.0000   YZ=              0.0000

 Normal termination of Gaussian 09 at Thu Feb  9 15:36:35 2017.
