 Gaussian 09, Revision E.01,
 Gaussian 09:  ES64L-G09RevE.01 30-Nov-2015

 ----------------------------------------------------------------------
 #rhf/gen scf(symm,tight,novaracc,noincfock,fulldiag) stable(crhf) geom
 =nocrowd test
 ----------------------------------------------------------------------

 ----------------------------------------------------------------------
 hf stability analysis of h10 triangular lattice, y= 1.1101850963965334
 ----------------------------------------------------------------------
 Symbolic Z-matrix:
 Charge =  0 Multiplicity = 1

                         Standard orientation:
 ---------------------------------------------------------------------
 Center     Atomic      Atomic             Coordinates (Angstroms)
 Number     Number       Type             X           Y           Z
 ---------------------------------------------------------------------
      1          1           0        1.883759    2.182466   -0.000000
      2          1           0        1.883759    0.956513   -0.000000
      3          1           0        0.941880    1.397721   -0.000000
      4          1           0        0.941880    0.171768   -0.000000
      5          1           0        0.000000    0.612977   -0.000000
      6          1           0       -0.000000   -0.612977   -0.000000
      7          1           0       -0.941880   -0.171768   -0.000000
      8          1           0       -0.941880   -1.397721   -0.000000
      9          1           0       -1.883759   -0.956513   -0.000000
     10          1           0       -1.883759   -2.182466   -0.000000
 ---------------------------------------------------------------------

 SCF Done:  E(RHF) =  -4.84036605817     A.U. after   10 cycles
 E2 =    -0.1189124985D+00 EUMP2 =    -0.49592785566276D+01

 The electronic state is 1-AG.
 Alpha  occ. eigenvalues --   -0.81702  -0.73450  -0.55332  -0.32712  -0.26996
 Alpha virt. eigenvalues --    0.02517   0.15772   0.24098   0.43915   0.59319

 Mulliken charges:
               1
     1  H   -0.042349
     2  H    0.123989
     3  H    0.112902
     4  H   -0.117072
     5  H   -0.077470
     6  H   -0.077470
     7  H   -0.117072
     8  H    0.112902
     9  H    0.123989
    10  H   -0.042349
 Sum of Mulliken charges =  -0.00000

 Dipole moment (field-independent basis, Debye):
    X=              0.0000    Y=              0.0000    Z=             -0.0000  Tot=              0.0000
 Quadrupole moment (field-independent basis, Debye-Ang):
   XX=            -12.2672   YY=            -13.8748   ZZ=            -13.0989
   XY=              1.3665   XZ=              0.0000   YZ=             -0.0000

 Normal termination of Gaussian 09 at Thu Feb  9 15:40:56 2017.
