 Gaussian 09, Revision E.01,
 Gaussian 09:  ES64L-G09RevE.01 30-Nov-2015

 ----------------------------------------------------------------------
 #rhf/gen scf(symm,tight,novaracc,noincfock,fulldiag) stable(crhf) geom
 =nocrowd test
 ----------------------------------------------------------------------

 ----------------------------------------------------------------------
 hf stability analysis of h10 triangular lattice, y= 2.1229520373144530
 ----------------------------------------------------------------------
 Symbolic Z-matrix:
 Charge =  0 Multiplicity = 1

                         Standard orientation:
 ---------------------------------------------------------------------
 Center     Atomic      Atomic             Coordinates (Angstroms)
 Number     Number       Type             X           Y           Z
 ---------------------------------------------------------------------
      1          1           0        1.079008    5.212527    0.000000
      2          1           0        1.079008    3.072226    0.000000
      3          1           0        0.539504    3.141338    0.000000
      4          1           0        0.539504    1.001038    0.000000
      5          1           0       -0.000000    1.070150    0.000000
      6          1           0       -0.000000   -1.070150    0.000000
      7          1           0       -0.539504   -1.001038    0.000000
      8          1           0       -0.539504   -3.141338    0.000000
      9          1           0       -1.079008   -3.072226    0.000000
     10          1           0       -1.079008   -5.212527    0.000000
 ---------------------------------------------------------------------

 SCF Done:  E(RHF) =  -4.70517365654     A.U. after    5 cycles
 E2 =    -0.8726936025D+00 EUMP2 =    -0.55778672590836D+01

 The electronic state is 1-AG.
 Alpha  occ. eigenvalues --   -0.73334  -0.71292  -0.68276  -0.65267  -0.20224
 Alpha virt. eigenvalues --   -0.15229   0.46483   0.52642   0.61429   0.69645

 Mulliken charges:
               1
     1  H   -0.000916
     2  H    0.001078
     3  H   -0.000393
     4  H   -0.000201
     5  H    0.000432
     6  H    0.000432
     7  H   -0.000201
     8  H   -0.000393
     9  H    0.001078
    10  H   -0.000916
 Sum of Mulliken charges =   0.00000

 Dipole moment (field-independent basis, Debye):
    X=             -0.0000    Y=             -0.0000    Z=             -0.0000  Tot=              0.0000
 Quadrupole moment (field-independent basis, Debye-Ang):
   XX=            -12.4638   YY=            -16.1385   ZZ=            -13.3580
   XY=             -0.7226   XZ=              0.0000   YZ=             -0.0000

 Normal termination of Gaussian 09 at Thu Feb  9 15:58:06 2017.
