 Gaussian 09, Revision E.01,
 Gaussian 09:  ES64L-G09RevE.01 30-Nov-2015

 ----------------------------------------------------------------------
 #rhf/gen scf(symm,tight,novaracc,noincfock,fulldiag) stable(crhf) geom
 =nocrowd test
 ----------------------------------------------------------------------

 ----------------------------------------------------------------------
 hf stability analysis of h10 triangular lattice, y= 1.0531284965820111
 ----------------------------------------------------------------------
 Symbolic Z-matrix:
 Charge =  0 Multiplicity = 1

                         Standard orientation:
 ---------------------------------------------------------------------
 Center     Atomic      Atomic             Coordinates (Angstroms)
 Number     Number       Type             X           Y           Z
 ---------------------------------------------------------------------
      1          1           0        1.945122    1.955628   -0.000000
      2          1           0        1.945122    0.768350   -0.000000
      3          1           0        0.972561    1.274634   -0.000000
      4          1           0        0.972561    0.087356   -0.000000
      5          1           0       -0.000000    0.593639   -0.000000
      6          1           0       -0.000000   -0.593639    0.000000
      7          1           0       -0.972561   -0.087356   -0.000000
      8          1           0       -0.972561   -1.274634   -0.000000
      9          1           0       -1.945122   -0.768350   -0.000000
     10          1           0       -1.945122   -1.955628   -0.000000
 ---------------------------------------------------------------------

 SCF Done:  E(RHF) =  -4.86004606427     A.U. after   10 cycles
 E2 =    -0.1152272549D+00 EUMP2 =    -0.49752733191439D+01

 The electronic state is 1-AG.
 Alpha  occ. eigenvalues --   -0.83079  -0.73830  -0.55263  -0.32314  -0.30217
 Alpha virt. eigenvalues --    0.01251   0.18648   0.24392   0.50308   0.57564

 Mulliken charges:
               1
     1  H   -0.072257
     2  H    0.139495
     3  H    0.112644
     4  H   -0.121175
     5  H   -0.058706
     6  H   -0.058706
     7  H   -0.121175
     8  H    0.112644
     9  H    0.139495
    10  H   -0.072257
 Sum of Mulliken charges =   0.00000

 Dipole moment (field-independent basis, Debye):
    X=             -0.0000    Y=             -0.0000    Z=             -0.0000  Tot=              0.0000
 Quadrupole moment (field-independent basis, Debye-Ang):
   XX=            -12.8850   YY=            -15.0680   ZZ=            -13.0443
   XY=             -0.0048   XZ=              0.0000   YZ=              0.0000

 Normal termination of Gaussian 09 at Thu Feb  9 15:38:39 2017.
