 Gaussian 09, Revision E.01,
 Gaussian 09:  ES64L-G09RevE.01 30-Nov-2015

 ----------------------------------------------------------------------
 #rhf/gen scf(symm,tight,novaracc,noincfock,fulldiag) stable(crhf) geom
 =nocrowd test
 ----------------------------------------------------------------------

 ----------------------------------------------------------------------
 hf stability analysis of h10 triangular lattice, y= 1.8475661216340147
 ----------------------------------------------------------------------
 Symbolic Z-matrix:
 Charge =  0 Multiplicity = 1

                         Standard orientation:
 ---------------------------------------------------------------------
 Center     Atomic      Atomic             Coordinates (Angstroms)
 Number     Number       Type             X           Y           Z
 ---------------------------------------------------------------------
      1          1           0        1.232465    4.476061   -0.000000
      2          1           0        1.232465    2.602254   -0.000000
      3          1           0        0.616233    2.706482   -0.000000
      4          1           0        0.616233    0.832675   -0.000000
      5          1           0        0.000000    0.936903   -0.000000
      6          1           0       -0.000000   -0.936903   -0.000000
      7          1           0       -0.616233   -0.832675   -0.000000
      8          1           0       -0.616233   -2.706482   -0.000000
      9          1           0       -1.232465   -2.602254   -0.000000
     10          1           0       -1.232465   -4.476061   -0.000000
 ---------------------------------------------------------------------

 SCF Done:  E(RHF) =  -4.88270050651     A.U. after    7 cycles
 E2 =    -0.7237192577D+00 EUMP2 =    -0.56064197642162D+01

 The electronic state is 1-AG.
 Alpha  occ. eigenvalues --   -0.73768  -0.70347  -0.64932  -0.58892  -0.19162
 Alpha virt. eigenvalues --   -0.13296   0.36069   0.44001   0.55792   0.67262

 Mulliken charges:
               1
     1  H   -0.014713
     2  H    0.005946
     3  H    0.006234
     4  H    0.000218
     5  H    0.002314
     6  H    0.002314
     7  H    0.000218
     8  H    0.006234
     9  H    0.005946
    10  H   -0.014713
 Sum of Mulliken charges =  -0.00000

 Dipole moment (field-independent basis, Debye):
    X=              0.0000    Y=             -0.0000    Z=              0.0000  Tot=              0.0000
 Quadrupole moment (field-independent basis, Debye-Ang):
   XX=            -12.3260   YY=            -18.8103   ZZ=            -13.1754
   XY=             -1.7993   XZ=              0.0000   YZ=              0.0000

 Normal termination of Gaussian 09 at Thu Feb  9 15:55:56 2017.
