 Gaussian 09, Revision E.01,
 Gaussian 09:  ES64L-G09RevE.01 30-Nov-2015

 ----------------------------------------------------------------------
 #rhf/gen scf(symm,tight,novaracc,noincfock,fulldiag) stable(crhf) geom
 =nocrowd test
 ----------------------------------------------------------------------

 ----------------------------------------------------------------------
 hf stability analysis of h10 triangular lattice, y= 1.0989661700694118
 ----------------------------------------------------------------------
 Symbolic Z-matrix:
 Charge =  0 Multiplicity = 1

                         Standard orientation:
 ---------------------------------------------------------------------
 Center     Atomic      Atomic             Coordinates (Angstroms)
 Number     Number       Type             X           Y           Z
 ---------------------------------------------------------------------
      1          1           0        1.895930    2.138865    0.000000
      2          1           0        1.895930    0.920781    0.000000
      3          1           0        0.947965    1.373953    0.000000
      4          1           0        0.947965    0.155870    0.000000
      5          1           0        0.000000    0.609042    0.000000
      6          1           0       -0.000000   -0.609042   -0.000000
      7          1           0       -0.947965   -0.155870    0.000000
      8          1           0       -0.947965   -1.373953    0.000000
      9          1           0       -1.895930   -0.920781    0.000000
     10          1           0       -1.895930   -2.138865    0.000000
 ---------------------------------------------------------------------

 SCF Done:  E(RHF) =  -4.84518179908     A.U. after   10 cycles
 E2 =    -0.1180824388D+00 EUMP2 =    -0.49632642378754D+01

 The electronic state is 1-AG.
 Alpha  occ. eigenvalues --   -0.81986  -0.73538  -0.55326  -0.32595  -0.27695
 Alpha virt. eigenvalues --    0.02311   0.16254   0.24273   0.44955   0.58969

 Mulliken charges:
               1
     1  H   -0.048871
     2  H    0.127681
     3  H    0.113102
     4  H   -0.118231
     5  H   -0.073681
     6  H   -0.073681
     7  H   -0.118231
     8  H    0.113102
     9  H    0.127681
    10  H   -0.048871
 Sum of Mulliken charges =  -0.00000

 Dipole moment (field-independent basis, Debye):
    X=              0.0000    Y=             -0.0000    Z=              0.0000  Tot=              0.0000
 Quadrupole moment (field-independent basis, Debye-Ang):
   XX=            -12.3765   YY=            -14.1731   ZZ=            -13.0887
   XY=              1.0795   XZ=              0.0000   YZ=             -0.0000

 Normal termination of Gaussian 09 at Thu Feb  9 15:40:29 2017.
