 Gaussian 09, Revision E.01,
 Gaussian 09:  ES64L-G09RevE.01 30-Nov-2015

 ----------------------------------------------------------------------
 #rhf/gen scf(symm,tight,novaracc,noincfock,fulldiag) stable(crhf) geom
 =nocrowd test
 ----------------------------------------------------------------------

 ----------------------------------------------------------------------
 hf stability analysis of h10 triangular lattice, y= 1.9954740303864316
 ----------------------------------------------------------------------
 Symbolic Z-matrix:
 Charge =  0 Multiplicity = 1

                         Standard orientation:
 ---------------------------------------------------------------------
 Center     Atomic      Atomic             Coordinates (Angstroms)
 Number     Number       Type             X           Y           Z
 ---------------------------------------------------------------------
      1          1           0        1.145343    4.874784    0.000000
      2          1           0        1.145343    2.858444    0.000000
      3          1           0        0.572672    2.941477    0.000000
      4          1           0        0.572672    0.925137    0.000000
      5          1           0        0.000000    1.008170    0.000000
      6          1           0       -0.000000   -1.008170    0.000000
      7          1           0       -0.572672   -0.925137    0.000000
      8          1           0       -0.572672   -2.941477    0.000000
      9          1           0       -1.145343   -2.858444    0.000000
     10          1           0       -1.145343   -4.874784    0.000000
 ---------------------------------------------------------------------

 SCF Done:  E(RHF) =  -4.80167751409     A.U. after    6 cycles
 E2 =    -0.8091772353D+00 EUMP2 =    -0.56108547493560D+01

 The electronic state is 1-AG.
 Alpha  occ. eigenvalues --   -0.73377  -0.70764  -0.66771  -0.62583  -0.19880
 Alpha virt. eigenvalues --   -0.14537   0.41880   0.48829   0.58940   0.68574

 Mulliken charges:
               1
     1  H   -0.004628
     2  H    0.002544
     3  H    0.001368
     4  H   -0.000191
     5  H    0.000907
     6  H    0.000907
     7  H   -0.000191
     8  H    0.001368
     9  H    0.002544
    10  H   -0.004628
 Sum of Mulliken charges =   0.00000

 Dipole moment (field-independent basis, Debye):
    X=              0.0000    Y=              0.0000    Z=             -0.0000  Tot=              0.0000
 Quadrupole moment (field-independent basis, Debye-Ang):
   XX=            -12.3666   YY=            -17.0994   ZZ=            -13.2807
   XY=             -1.0835   XZ=              0.0000   YZ=              0.0000

 Normal termination of Gaussian 09 at Thu Feb  9 15:57:13 2017.
