 Gaussian 09, Revision E.01,
 Gaussian 09:  ES64L-G09RevE.01 30-Nov-2015

 ----------------------------------------------------------------------
 #rhf/gen scf(symm,tight,novaracc,noincfock,fulldiag) stable(crhf) geom
 =nocrowd test
 ----------------------------------------------------------------------

 ----------------------------------------------------------------------
 hf stability analysis of h10 triangular lattice, y= 1.2075679961521408
 ----------------------------------------------------------------------
 Symbolic Z-matrix:
 Charge =  0 Multiplicity = 1

                         Standard orientation:
 ---------------------------------------------------------------------
 Center     Atomic      Atomic             Coordinates (Angstroms)
 Number     Number       Type             X           Y           Z
 ---------------------------------------------------------------------
      1          1           0        1.778142    2.542915    0.000000
      2          1           0        1.778142    1.244142    0.000000
      3          1           0        0.889071    1.596150    0.000000
      4          1           0        0.889071    0.297378    0.000000
      5          1           0        0.000000    0.649386    0.000000
      6          1           0       -0.000000   -0.649386    0.000000
      7          1           0       -0.889071   -0.297378    0.000000
      8          1           0       -0.889071   -1.596150    0.000000
      9          1           0       -1.778142   -1.244142    0.000000
     10          1           0       -1.778142   -2.542915    0.000000
 ---------------------------------------------------------------------

 SCF Done:  E(RHF) =  -4.78020047652     A.U. after   11 cycles
 E2 =    -0.1279964086D+00 EUMP2 =    -0.49081968851601D+01

 The electronic state is 1-AG.
 Alpha  occ. eigenvalues --   -0.79069  -0.72451  -0.55230  -0.33830  -0.20450
 Alpha virt. eigenvalues --    0.02403   0.14329   0.19568   0.39784   0.62374

 Mulliken charges:
               1
     1  H    0.023159
     2  H    0.077762
     3  H    0.111719
     4  H   -0.095713
     5  H   -0.116926
     6  H   -0.116926
     7  H   -0.095713
     8  H    0.111719
     9  H    0.077762
    10  H    0.023159
 Sum of Mulliken charges =  -0.00000

 Dipole moment (field-independent basis, Debye):
    X=             -0.0000    Y=             -0.0000    Z=              0.0000  Tot=              0.0000
 Quadrupole moment (field-independent basis, Debye-Ang):
   XX=            -11.6133   YY=             -9.9804   ZZ=            -13.1722
   XY=              4.0159   XZ=             -0.0000   YZ=             -0.0000

 Normal termination of Gaussian 09 at Thu Feb  9 15:44:21 2017.
