 Gaussian 09, Revision E.01,
 Gaussian 09:  ES64L-G09RevE.01 30-Nov-2015

 ----------------------------------------------------------------------
 #rhf/gen scf(symm,tight,novaracc,noincfock,fulldiag) stable(crhf) geom
 =nocrowd test
 ----------------------------------------------------------------------

 hf stability analysis of h10 triangular lattice, y= 0.7882277041353643
 6
 ----------------------------------------------------------------------
 Symbolic Z-matrix:
 Charge =  0 Multiplicity = 1

                         Standard orientation:
 ---------------------------------------------------------------------
 Center     Atomic      Atomic             Coordinates (Angstroms)
 Number     Number       Type             X           Y           Z
 ---------------------------------------------------------------------
      1          1           0        2.146252    0.695619    0.000000
      2          1           0        2.146252   -0.380397    0.000000
      3          1           0        1.073126    0.616813    0.000000
      4          1           0        1.073126   -0.459202    0.000000
      5          1           0       -0.000000    0.538008    0.000000
      6          1           0       -0.000000   -0.538008    0.000000
      7          1           0       -1.073126    0.459202    0.000000
      8          1           0       -1.073126   -0.616813    0.000000
      9          1           0       -2.146252    0.380397    0.000000
     10          1           0       -2.146252   -0.695619    0.000000
 ---------------------------------------------------------------------

 SCF Done:  E(RHF) =  -4.88421898902     A.U. after   10 cycles
 E2 =    -0.1051249008D+00 EUMP2 =    -0.49893438897972D+01

 The electronic state is 1-AG.
 Alpha  occ. eigenvalues --   -0.87707  -0.74494  -0.52664  -0.46732  -0.31080
 Alpha virt. eigenvalues --   -0.01457   0.15518   0.36455   0.51469   0.89516

 Mulliken charges:
               1
     1  H    0.063141
     2  H    0.017405
     3  H   -0.032684
     4  H   -0.034074
     5  H   -0.013789
     6  H   -0.013789
     7  H   -0.034074
     8  H   -0.032684
     9  H    0.017405
    10  H    0.063141
 Sum of Mulliken charges =  -0.00000

 Dipole moment (field-independent basis, Debye):
    X=             -0.0000    Y=             -0.0000    Z=              0.0000  Tot=              0.0000
 Quadrupole moment (field-independent basis, Debye-Ang):
   XX=            -10.1053   YY=            -17.2960   ZZ=            -12.9552
   XY=              1.0802   XZ=              0.0000   YZ=             -0.0000

 Normal termination of Gaussian 09 at Thu Feb  9 15:24:48 2017.
