 Gaussian 09, Revision E.01,
 Gaussian 09:  ES64L-G09RevE.01 30-Nov-2015

 ----------------------------------------------------------------------
 #rhf/gen scf(symm,tight,novaracc,noincfock,fulldiag) stable(crhf) geom
 =nocrowd test
 ----------------------------------------------------------------------

 ----------------------------------------------------------------------
 hf stability analysis of h10 triangular lattice, y= 1.2733373859559551
 ----------------------------------------------------------------------
 Symbolic Z-matrix:
 Charge =  0 Multiplicity = 1

                         Standard orientation:
 ---------------------------------------------------------------------
 Center     Atomic      Atomic             Coordinates (Angstroms)
 Number     Number       Type             X           Y           Z
 ---------------------------------------------------------------------
      1          1           0        1.708572    2.770744   -0.000000
      2          1           0        1.708572    1.419088   -0.000000
      3          1           0        0.854286    1.723286   -0.000000
      4          1           0        0.854286    0.371630   -0.000000
      5          1           0        0.000000    0.675828    0.000000
      6          1           0       -0.000000   -0.675828   -0.000000
      7          1           0       -0.854286   -0.371630   -0.000000
      8          1           0       -0.854286   -1.723286   -0.000000
      9          1           0       -1.708572   -1.419088   -0.000000
     10          1           0       -1.708572   -2.770744   -0.000000
 ---------------------------------------------------------------------

 SCF Done:  E(RHF) =  -4.72526419149     A.U. after   12 cycles
 E2 =    -0.1370837500D+00 EUMP2 =    -0.48623479415418D+01

 The electronic state is 1-AG.
 Alpha  occ. eigenvalues --   -0.77217  -0.71566  -0.55061  -0.34809  -0.15688
 Alpha virt. eigenvalues --    0.00205   0.14845   0.16386   0.40498   0.64296

 Mulliken charges:
               1
     1  H    0.069498
     2  H    0.014698
     3  H    0.129573
     4  H   -0.044958
     5  H   -0.168810
     6  H   -0.168810
     7  H   -0.044958
     8  H    0.129573
     9  H    0.014698
    10  H    0.069498
 Sum of Mulliken charges =   0.00000

 Dipole moment (field-independent basis, Debye):
    X=             -0.0000    Y=             -0.0000    Z=             -0.0000  Tot=              0.0000
 Quadrupole moment (field-independent basis, Debye-Ang):
   XX=            -11.7174   YY=             -6.4021   ZZ=            -13.1853
   XY=              5.3929   XZ=              0.0000   YZ=              0.0000

 Normal termination of Gaussian 09 at Thu Feb  9 15:46:17 2017.
