 Gaussian 09, Revision E.01,
 Gaussian 09:  ES64L-G09RevE.01 30-Nov-2015

 ----------------------------------------------------------------------
 #rhf/gen scf(symm,tight,novaracc,noincfock,fulldiag) stable(crhf) geom
 =nocrowd test
 ----------------------------------------------------------------------

 ----------------------------------------------------------------------
 hf stability analysis of h10 triangular lattice, y= 2.1012334776544206
 ----------------------------------------------------------------------
 Symbolic Z-matrix:
 Charge =  0 Multiplicity = 1

                         Standard orientation:
 ---------------------------------------------------------------------
 Center     Atomic      Atomic             Coordinates (Angstroms)
 Number     Number       Type             X           Y           Z
 ---------------------------------------------------------------------
      1          1           0        1.089792    5.155299   -0.000000
      2          1           0        1.089792    3.036177   -0.000000
      3          1           0        0.544896    3.107430   -0.000000
      4          1           0        0.544896    0.988308   -0.000000
      5          1           0        0.000000    1.059561    0.000000
      6          1           0       -0.000000   -1.059561    0.000000
      7          1           0       -0.544896   -0.988308   -0.000000
      8          1           0       -0.544896   -3.107430   -0.000000
      9          1           0       -1.089792   -3.036177   -0.000000
     10          1           0       -1.089792   -5.155299   -0.000000
 ---------------------------------------------------------------------

 SCF Done:  E(RHF) =  -4.72309152560     A.U. after    6 cycles
 E2 =    -0.8622894579D+00 EUMP2 =    -0.55853809834950D+01

 The electronic state is 1-AG.
 Alpha  occ. eigenvalues --   -0.73327  -0.71195  -0.68027  -0.64840  -0.20178
 Alpha virt. eigenvalues --   -0.15129   0.45721   0.52012   0.61016   0.69462

 Mulliken charges:
               1
     1  H   -0.001353
     2  H    0.001265
     3  H   -0.000193
     4  H   -0.000207
     5  H    0.000488
     6  H    0.000488
     7  H   -0.000207
     8  H   -0.000193
     9  H    0.001265
    10  H   -0.001353
 Sum of Mulliken charges =  -0.00000

 Dipole moment (field-independent basis, Debye):
    X=             -0.0000    Y=             -0.0000    Z=              0.0000  Tot=              0.0000
 Quadrupole moment (field-independent basis, Debye-Ang):
   XX=            -12.4456   YY=            -16.2780   ZZ=            -13.3458
   XY=             -0.7729   XZ=              0.0000   YZ=             -0.0000

 Normal termination of Gaussian 09 at Thu Feb  9 15:57:58 2017.
