 Gaussian 09, Revision E.01,
 Gaussian 09:  ES64L-G09RevE.01 30-Nov-2015

 ----------------------------------------------------------------------
 #rhf/gen scf(symm,tight,novaracc,noincfock,fulldiag) stable(crhf) geom
 =nocrowd test
 ----------------------------------------------------------------------

 ----------------------------------------------------------------------
 hf stability analysis of h10 triangular lattice, y= 1.4730384057919645
 ----------------------------------------------------------------------
 Symbolic Z-matrix:
 Charge =  0 Multiplicity = 1

                         Standard orientation:
 ---------------------------------------------------------------------
 Center     Atomic      Atomic             Coordinates (Angstroms)
 Number     Number       Type             X           Y           Z
 ---------------------------------------------------------------------
      1          1           0        1.515066    3.407600   -0.000000
      2          1           0        1.515066    1.883309   -0.000000
      3          1           0        0.757533    2.084873    0.000000
      4          1           0        0.757533    0.560582   -0.000000
      5          1           0       -0.000000    0.762146    0.000000
      6          1           0       -0.000000   -0.762146    0.000000
      7          1           0       -0.757533   -0.560582   -0.000000
      8          1           0       -0.757533   -2.084873   -0.000000
      9          1           0       -1.515066   -1.883309   -0.000000
     10          1           0       -1.515066   -3.407600   -0.000000
 ---------------------------------------------------------------------

 SCF Done:  E(RHF) =  -4.86897936876     A.U. after    9 cycles
 E2 =    -0.3844678586D+00 EUMP2 =    -0.52534472273428D+01

 The electronic state is 1-AG.
 Alpha  occ. eigenvalues --   -0.78613  -0.71686  -0.60883  -0.47340  -0.14204
 Alpha virt. eigenvalues --   -0.04855   0.17272   0.28583   0.45083   0.60923

 Mulliken charges:
               1
     1  H   -0.133846
     2  H    0.034834
     3  H    0.056869
     4  H    0.017289
     5  H    0.024854
     6  H    0.024854
     7  H    0.017289
     8  H    0.056869
     9  H    0.034834
    10  H   -0.133846
 Sum of Mulliken charges =  -0.00000

 Dipole moment (field-independent basis, Debye):
    X=             -0.0000    Y=              0.0000    Z=              0.0000  Tot=              0.0000
 Quadrupole moment (field-independent basis, Debye-Ang):
   XX=            -14.1663   YY=            -28.6368   ZZ=            -12.8861
   XY=             -7.5338   XZ=             -0.0000   YZ=             -0.0000

 Normal termination of Gaussian 09 at Thu Feb  9 15:50:50 2017.
