 Gaussian 09, Revision E.01,
 Gaussian 09:  ES64L-G09RevE.01 30-Nov-2015

 ----------------------------------------------------------------------
 #rhf/gen scf(symm,tight,novaracc,noincfock,fulldiag) stable(crhf) geom
 =nocrowd test
 ----------------------------------------------------------------------

 ----------------------------------------------------------------------
 hf stability analysis of h10 triangular lattice, y= 1.1820721773158904
 ----------------------------------------------------------------------
 Symbolic Z-matrix:
 Charge =  0 Multiplicity = 1

                         Standard orientation:
 ---------------------------------------------------------------------
 Center     Atomic      Atomic             Coordinates (Angstroms)
 Number     Number       Type             X           Y           Z
 ---------------------------------------------------------------------
      1          1           0        1.805625    2.451441   -0.000000
      2          1           0        1.805625    1.172437   -0.000000
      3          1           0        0.902812    1.545471   -0.000000
      4          1           0        0.902812    0.266467   -0.000000
      5          1           0        0.000000    0.639502    0.000000
      6          1           0       -0.000000   -0.639502   -0.000000
      7          1           0       -0.902812   -0.266467    0.000000
      8          1           0       -0.902812   -1.545471   -0.000000
      9          1           0       -1.805625   -1.172437   -0.000000
     10          1           0       -1.805625   -2.451441   -0.000000
 ---------------------------------------------------------------------

 SCF Done:  E(RHF) =  -4.79893824159     A.U. after   10 cycles
 E2 =    -0.1253021735D+00 EUMP2 =    -0.49242404150536D+01

 The electronic state is 1-AG.
 Alpha  occ. eigenvalues --   -0.79781  -0.72750  -0.55282  -0.33525  -0.22225
 Alpha virt. eigenvalues --    0.02828   0.14171   0.21214   0.40092   0.61578

 Mulliken charges:
               1
     1  H    0.004843
     2  H    0.092778
     3  H    0.111194
     4  H   -0.104091
     5  H   -0.104724
     6  H   -0.104724
     7  H   -0.104091
     8  H    0.111194
     9  H    0.092778
    10  H    0.004843
 Sum of Mulliken charges =   0.00000

 Dipole moment (field-independent basis, Debye):
    X=              0.0000    Y=              0.0000    Z=             -0.0000  Tot=              0.0000
 Quadrupole moment (field-independent basis, Debye-Ang):
   XX=            -11.7263   YY=            -11.2194   ZZ=            -13.1562
   XY=              3.3172   XZ=              0.0000   YZ=             -0.0000

 Normal termination of Gaussian 09 at Thu Feb  9 15:43:32 2017.
