 Gaussian 09, Revision E.01,
 Gaussian 09:  ES64L-G09RevE.01 30-Nov-2015

 ----------------------------------------------------------------------
 #rhf/gen scf(symm,tight,novaracc,noincfock,fulldiag) stable(crhf) geom
 =nocrowd test
 ----------------------------------------------------------------------

 hf stability analysis of h10 triangular lattice, y= 0.7725416295777047
 8
 ----------------------------------------------------------------------
 Symbolic Z-matrix:
 Charge =  0 Multiplicity = 1

                         Standard orientation:
 ---------------------------------------------------------------------
 Center     Atomic      Atomic             Coordinates (Angstroms)
 Number     Number       Type             X           Y           Z
 ---------------------------------------------------------------------
      1          1           0        2.148549    0.608707   -0.000000
      2          1           0        2.148549   -0.466158   -0.000000
      3          1           0        1.074275    0.573070   -0.000000
      4          1           0        1.074275   -0.501795   -0.000000
      5          1           0        0.000000    0.537433   -0.000000
      6          1           0       -0.000000   -0.537433   -0.000000
      7          1           0       -1.074275    0.501795   -0.000000
      8          1           0       -1.074275   -0.573070   -0.000000
      9          1           0       -2.148549    0.466158   -0.000000
     10          1           0       -2.148549   -0.608707   -0.000000
 ---------------------------------------------------------------------

 SCF Done:  E(RHF) =  -4.88616591507     A.U. after   10 cycles
 E2 =    -0.1050010718D+00 EUMP2 =    -0.49911669868651D+01

 The electronic state is 1-AG.
 Alpha  occ. eigenvalues --   -0.87758  -0.74524  -0.52644  -0.46847  -0.31194
 Alpha virt. eigenvalues --   -0.01326   0.15363   0.36756   0.51320   0.90197

 Mulliken charges:
               1
     1  H    0.050806
     2  H    0.030076
     3  H   -0.033105
     4  H   -0.033672
     5  H   -0.014105
     6  H   -0.014105
     7  H   -0.033672
     8  H   -0.033105
     9  H    0.030076
    10  H    0.050806
 Sum of Mulliken charges =  -0.00000

 Dipole moment (field-independent basis, Debye):
    X=              0.0000    Y=              0.0000    Z=             -0.0000  Tot=              0.0000
 Quadrupole moment (field-independent basis, Debye-Ang):
   XX=            -10.0725   YY=            -17.3858   ZZ=            -12.9545
   XY=              0.4894   XZ=             -0.0000   YZ=             -0.0000

 Normal termination of Gaussian 09 at Thu Feb  9 15:23:49 2017.
