 Gaussian 09, Revision E.01,
 Gaussian 09:  ES64L-G09RevE.01 30-Nov-2015

 ----------------------------------------------------------------------
 #rhf/gen scf(symm,tight,novaracc,noincfock,fulldiag) stable(crhf) geom
 =nocrowd test
 ----------------------------------------------------------------------

 ----------------------------------------------------------------------
 hf stability analysis of h10 triangular lattice, y= 1.1864761049786312
 ----------------------------------------------------------------------
 Symbolic Z-matrix:
 Charge =  0 Multiplicity = 1

                         Standard orientation:
 ---------------------------------------------------------------------
 Center     Atomic      Atomic             Coordinates (Angstroms)
 Number     Number       Type             X           Y           Z
 ---------------------------------------------------------------------
      1          1           0        1.800863    2.467378    0.000000
      2          1           0        1.800863    1.184992    0.000000
      3          1           0        0.900431    1.554285    0.000000
      4          1           0        0.900431    0.271899    0.000000
      5          1           0       -0.000000    0.641193    0.000000
      6          1           0       -0.000000   -0.641193    0.000000
      7          1           0       -0.900431   -0.271899    0.000000
      8          1           0       -0.900431   -1.554285    0.000000
      9          1           0       -1.800863   -1.184992    0.000000
     10          1           0       -1.800863   -2.467378    0.000000
 ---------------------------------------------------------------------

 SCF Done:  E(RHF) =  -4.79584007235     A.U. after   10 cycles
 E2 =    -0.1257507939D+00 EUMP2 =    -0.49215908662310D+01

 The electronic state is 1-AG.
 Alpha  occ. eigenvalues --   -0.79659  -0.72700  -0.55274  -0.33577  -0.21921
 Alpha virt. eigenvalues --    0.02774   0.14171   0.20946   0.40007   0.61716

 Mulliken charges:
               1
     1  H    0.007967
     2  H    0.090373
     3  H    0.111194
     4  H   -0.102849
     5  H   -0.106685
     6  H   -0.106685
     7  H   -0.102849
     8  H    0.111194
     9  H    0.090373
    10  H    0.007967
 Sum of Mulliken charges =  -0.00000

 Dipole moment (field-independent basis, Debye):
    X=              0.0000    Y=             -0.0000    Z=              0.0000  Tot=              0.0000
 Quadrupole moment (field-independent basis, Debye-Ang):
   XX=            -11.7033   YY=            -11.0158   ZZ=            -13.1591
   XY=              3.4390   XZ=             -0.0000   YZ=             -0.0000

 Normal termination of Gaussian 09 at Thu Feb  9 15:43:40 2017.
