 Gaussian 09, Revision E.01,
 Gaussian 09:  ES64L-G09RevE.01 30-Nov-2015

 ----------------------------------------------------------------------
 #rhf/gen scf(symm,tight,novaracc,noincfock,fulldiag) stable(crhf) geom
 =nocrowd test
 ----------------------------------------------------------------------

 hf stability analysis of h10 triangular lattice, y= 0.8777001811777626
 1
 ----------------------------------------------------------------------
 Symbolic Z-matrix:
 Charge =  0 Multiplicity = 1

                         Standard orientation:
 ---------------------------------------------------------------------
 Center     Atomic      Atomic             Coordinates (Angstroms)
 Number     Number       Type             X           Y           Z
 ---------------------------------------------------------------------
      1          1           0        2.105505    1.164113    0.000000
      2          1           0        2.105505    0.067273    0.000000
      3          1           0        1.052752    0.856266    0.000000
      4          1           0        1.052752   -0.240573   -0.000000
      5          1           0        0.000000    0.548420    0.000000
      6          1           0       -0.000000   -0.548420    0.000000
      7          1           0       -1.052752    0.240573   -0.000000
      8          1           0       -1.052752   -0.856266    0.000000
      9          1           0       -2.105505   -0.067273    0.000000
     10          1           0       -2.105505   -1.164113    0.000000
 ---------------------------------------------------------------------

 SCF Done:  E(RHF) =  -4.85548138563     A.U. after   11 cycles
 E2 =    -0.1136067288D+00 EUMP2 =    -0.49690881144148D+01

 The electronic state is 1-AG.
 Alpha  occ. eigenvalues --   -0.85903  -0.73872  -0.54626  -0.39014  -0.29338
 Alpha virt. eigenvalues --   -0.02583   0.21732   0.30012   0.53019   0.79944

 Mulliken charges:
               1
     1  H   -0.080722
     2  H    0.117136
     3  H    0.065294
     4  H   -0.098631
     5  H   -0.003077
     6  H   -0.003077
     7  H   -0.098631
     8  H    0.065294
     9  H    0.117136
    10  H   -0.080722
 Sum of Mulliken charges =   0.00000

 Dipole moment (field-independent basis, Debye):
    X=             -0.0000    Y=             -0.0000    Z=             -0.0000  Tot=              0.0000
 Quadrupole moment (field-independent basis, Debye-Ang):
   XX=            -15.3202   YY=            -14.4987   ZZ=            -12.8588
   XY=             -1.7596   XZ=              0.0000   YZ=              0.0000

 Normal termination of Gaussian 09 at Thu Feb  9 15:30:03 2017.
