 Gaussian 09, Revision E.01,
 Gaussian 09:  ES64L-G09RevE.01 30-Nov-2015

 ----------------------------------------------------------------------
 #rhf/gen scf(symm,tight,novaracc,noincfock,fulldiag) stable(crhf) geom
 =nocrowd test
 ----------------------------------------------------------------------

 hf stability analysis of h10 triangular lattice, y= 0.9575054703582485
 1
 ----------------------------------------------------------------------
 Symbolic Z-matrix:
 Charge =  0 Multiplicity = 1

                         Standard orientation:
 ---------------------------------------------------------------------
 Center     Atomic      Atomic             Coordinates (Angstroms)
 Number     Number       Type             X           Y           Z
 ---------------------------------------------------------------------
      1          1           0        2.040928    1.543621   -0.000000
      2          1           0        2.040928    0.412076   -0.000000
      3          1           0        1.020464    1.054697   -0.000000
      4          1           0        1.020464   -0.076848   -0.000000
      5          1           0       -0.000000    0.565772   -0.000000
      6          1           0       -0.000000   -0.565772   -0.000000
      7          1           0       -1.020464    0.076848   -0.000000
      8          1           0       -1.020464   -1.054697   -0.000000
      9          1           0       -2.040928   -0.412076   -0.000000
     10          1           0       -2.040928   -1.543621   -0.000000
 ---------------------------------------------------------------------

 SCF Done:  E(RHF) =  -4.86735399066     A.U. after   10 cycles
 E2 =    -0.1124814631D+00 EUMP2 =    -0.49798354537726D+01

 The electronic state is 1-AG.
 Alpha  occ. eigenvalues --   -0.84930  -0.74055  -0.54962  -0.35963  -0.30363
 Alpha virt. eigenvalues --   -0.01140   0.23087   0.24836   0.54853   0.65560

 Mulliken charges:
               1
     1  H   -0.097140
     2  H    0.143522
     3  H    0.099073
     4  H   -0.117380
     5  H   -0.028076
     6  H   -0.028076
     7  H   -0.117380
     8  H    0.099073
     9  H    0.143522
    10  H   -0.097140
 Sum of Mulliken charges =   0.00000

 Dipole moment (field-independent basis, Debye):
    X=              0.0000    Y=              0.0000    Z=             -0.0000  Tot=              0.0000
 Quadrupole moment (field-independent basis, Debye-Ang):
   XX=            -14.1957   YY=            -15.3860   ZZ=            -12.9419
   XY=             -1.5635   XZ=             -0.0000   YZ=             -0.0000

 Normal termination of Gaussian 09 at Thu Feb  9 15:34:07 2017.
