 Gaussian 09, Revision E.01,
 Gaussian 09:  ES64L-G09RevE.01 30-Nov-2015

 ----------------------------------------------------------------------
 #rhf/gen scf(symm,tight,novaracc,noincfock,fulldiag) stable(crhf) geom
 =nocrowd test
 ----------------------------------------------------------------------

 ----------------------------------------------------------------------
 hf stability analysis of h10 triangular lattice, y= 1.0667800313561446
 ----------------------------------------------------------------------
 Symbolic Z-matrix:
 Charge =  0 Multiplicity = 1

                         Standard orientation:
 ---------------------------------------------------------------------
 Center     Atomic      Atomic             Coordinates (Angstroms)
 Number     Number       Type             X           Y           Z
 ---------------------------------------------------------------------
      1          1           0        1.930593    2.011087    0.000000
      2          1           0        1.930593    0.814874    0.000000
      3          1           0        0.965297    1.304597    0.000000
      4          1           0        0.965297    0.108384    0.000000
      5          1           0        0.000000    0.598107    0.000000
      6          1           0       -0.000000   -0.598107   -0.000000
      7          1           0       -0.965297   -0.108384   -0.000000
      8          1           0       -0.965297   -1.304597   -0.000000
      9          1           0       -1.930593   -0.814874   -0.000000
     10          1           0       -1.930593   -2.011087   -0.000000
 ---------------------------------------------------------------------

 SCF Done:  E(RHF) =  -4.85642799037     A.U. after   10 cycles
 E2 =    -0.1159830432D+00 EUMP2 =    -0.49724110335753D+01

 The electronic state is 1-AG.
 Alpha  occ. eigenvalues --   -0.82765  -0.73755  -0.55288  -0.32331  -0.29558
 Alpha virt. eigenvalues --    0.01591   0.17875   0.24440   0.48544   0.57977

 Mulliken charges:
               1
     1  H   -0.065897
     2  H    0.136547
     3  H    0.113049
     4  H   -0.120590
     5  H   -0.063109
     6  H   -0.063109
     7  H   -0.120590
     8  H    0.113049
     9  H    0.136547
    10  H   -0.065897
 Sum of Mulliken charges =  -0.00000

 Dipole moment (field-independent basis, Debye):
    X=              0.0000    Y=              0.0000    Z=             -0.0000  Tot=              0.0000
 Quadrupole moment (field-independent basis, Debye-Ang):
   XX=            -12.7236   YY=            -14.8552   ZZ=            -13.0580
   XY=              0.3011   XZ=              0.0000   YZ=              0.0000

 Normal termination of Gaussian 09 at Thu Feb  9 15:39:11 2017.
