 Gaussian 09, Revision E.01,
 Gaussian 09:  ES64L-G09RevE.01 30-Nov-2015

 ----------------------------------------------------------------------
 #rhf/gen scf(symm,tight,novaracc,noincfock,fulldiag) stable(crhf) geom
 =nocrowd test
 ----------------------------------------------------------------------

 ----------------------------------------------------------------------
 hf stability analysis of h10 triangular lattice, y= 1.2750986286448989
 ----------------------------------------------------------------------
 Symbolic Z-matrix:
 Charge =  0 Multiplicity = 1

                         Standard orientation:
 ---------------------------------------------------------------------
 Center     Atomic      Atomic             Coordinates (Angstroms)
 Number     Number       Type             X           Y           Z
 ---------------------------------------------------------------------
      1          1           0        1.706742    2.776698   -0.000000
      2          1           0        1.706742    1.423592   -0.000000
      3          1           0        0.853371    1.726625   -0.000000
      4          1           0        0.853371    0.373520   -0.000000
      5          1           0        0.000000    0.676553   -0.000000
      6          1           0       -0.000000   -0.676553   -0.000000
      7          1           0       -0.853371   -0.373520   -0.000000
      8          1           0       -0.853371   -1.726625   -0.000000
      9          1           0       -1.706742   -1.423592   -0.000000
     10          1           0       -1.706742   -2.776698   -0.000000
 ---------------------------------------------------------------------

 SCF Done:  E(RHF) =  -4.72376698527     A.U. after   12 cycles
 E2 =    -0.1374581931D+00 EUMP2 =    -0.48612251783459D+01

 The electronic state is 1-AG.
 Alpha  occ. eigenvalues --   -0.77168  -0.71539  -0.55059  -0.34847  -0.15553
 Alpha virt. eigenvalues --    0.00124   0.14723   0.16481   0.40539   0.64340

 Mulliken charges:
               1
     1  H    0.070512
     2  H    0.011929
     3  H    0.130878
     4  H   -0.042270
     5  H   -0.171050
     6  H   -0.171050
     7  H   -0.042270
     8  H    0.130878
     9  H    0.011929
    10  H    0.070512
 Sum of Mulliken charges =   0.00000

 Dipole moment (field-independent basis, Debye):
    X=             -0.0000    Y=             -0.0000    Z=             -0.0000  Tot=              0.0000
 Quadrupole moment (field-independent basis, Debye-Ang):
   XX=            -11.7371   YY=             -6.3187   ZZ=            -13.1841
   XY=              5.4004   XZ=              0.0000   YZ=              0.0000

 Normal termination of Gaussian 09 at Thu Feb  9 15:46:20 2017.
