 Gaussian 09, Revision E.01,
 Gaussian 09:  ES64L-G09RevE.01 30-Nov-2015

 ----------------------------------------------------------------------
 #rhf/gen scf(symm,tight,novaracc,noincfock,fulldiag) stable(crhf) geom
 =nocrowd test
 ----------------------------------------------------------------------

 ----------------------------------------------------------------------
 hf stability analysis of h10 triangular lattice, y= 1.5050035516311675
 ----------------------------------------------------------------------
 Symbolic Z-matrix:
 Charge =  0 Multiplicity = 1

                         Standard orientation:
 ---------------------------------------------------------------------
 Center     Atomic      Atomic             Coordinates (Angstroms)
 Number     Number       Type             X           Y           Z
 ---------------------------------------------------------------------
      1          1           0        1.486938    3.503799    0.000000
      2          1           0        1.486938    1.950673   -0.000000
      3          1           0        0.743469    2.140181    0.000000
      4          1           0        0.743469    0.587055   -0.000000
      5          1           0       -0.000000    0.776563    0.000000
      6          1           0       -0.000000   -0.776563   -0.000000
      7          1           0       -0.743469   -0.587055   -0.000000
      8          1           0       -0.743469   -2.140181   -0.000000
      9          1           0       -1.486938   -1.950673   -0.000000
     10          1           0       -1.486938   -3.503799   -0.000000
 ---------------------------------------------------------------------

 SCF Done:  E(RHF) =  -4.88527580630     A.U. after    9 cycles
 E2 =    -0.4199386459D+00 EUMP2 =    -0.53052144522019D+01

 The electronic state is 1-AG.
 Alpha  occ. eigenvalues --   -0.77851  -0.71361  -0.61143  -0.48388  -0.14854
 Alpha virt. eigenvalues --   -0.06078   0.19205   0.30133   0.46220   0.61804

 Mulliken charges:
               1
     1  H   -0.114445
     2  H    0.030875
     3  H    0.048780
     4  H    0.013781
     5  H    0.021009
     6  H    0.021009
     7  H    0.013781
     8  H    0.048780
     9  H    0.030875
    10  H   -0.114445
 Sum of Mulliken charges =  -0.00000

 Dipole moment (field-independent basis, Debye):
    X=              0.0000    Y=             -0.0000    Z=              0.0000  Tot=              0.0000
 Quadrupole moment (field-independent basis, Debye-Ang):
   XX=            -13.7628   YY=            -27.5230   ZZ=            -12.9089
   XY=             -6.6958   XZ=             -0.0000   YZ=             -0.0000

 Normal termination of Gaussian 09 at Thu Feb  9 15:51:25 2017.
