 Gaussian 09, Revision E.01,
 Gaussian 09:  ES64L-G09RevE.01 30-Nov-2015

 ----------------------------------------------------------------------
 #rhf/gen scf(symm,tight,novaracc,noincfock,fulldiag) stable(crhf) geom
 =nocrowd test
 ----------------------------------------------------------------------

 ----------------------------------------------------------------------
 hf stability analysis of h10 triangular lattice, y= 1.0553774980117010
 ----------------------------------------------------------------------
 Symbolic Z-matrix:
 Charge =  0 Multiplicity = 1

                         Standard orientation:
 ---------------------------------------------------------------------
 Center     Atomic      Atomic             Coordinates (Angstroms)
 Number     Number       Type             X           Y           Z
 ---------------------------------------------------------------------
      1          1           0        1.942738    1.964819    0.000000
      2          1           0        1.942738    0.776083    0.000000
      3          1           0        0.971369    1.279593    0.000000
      4          1           0        0.971369    0.090858    0.000000
      5          1           0        0.000000    0.594368    0.000000
      6          1           0       -0.000000   -0.594368    0.000000
      7          1           0       -0.971369   -0.090858    0.000000
      8          1           0       -0.971369   -1.279593    0.000000
      9          1           0       -1.942738   -0.776083    0.000000
     10          1           0       -1.942738   -1.964819    0.000000
 ---------------------------------------------------------------------

 SCF Done:  E(RHF) =  -4.85949694519     A.U. after   10 cycles
 E2 =    -0.1153459854D+00 EUMP2 =    -0.49748429305765D+01

 The electronic state is 1-AG.
 Alpha  occ. eigenvalues --   -0.83028  -0.73819  -0.55268  -0.32309  -0.30118
 Alpha virt. eigenvalues --    0.01308   0.18518   0.24404   0.50008   0.57631

 Mulliken charges:
               1
     1  H   -0.071248
     2  H    0.139044
     3  H    0.112729
     4  H   -0.121096
     5  H   -0.059429
     6  H   -0.059429
     7  H   -0.121096
     8  H    0.112729
     9  H    0.139044
    10  H   -0.071248
 Sum of Mulliken charges =   0.00000

 Dipole moment (field-independent basis, Debye):
    X=              0.0000    Y=             -0.0000    Z=              0.0000  Tot=              0.0000
 Quadrupole moment (field-independent basis, Debye-Ang):
   XX=            -12.8578   YY=            -15.0360   ZZ=            -13.0466
   XY=              0.0444   XZ=             -0.0000   YZ=             -0.0000

 Normal termination of Gaussian 09 at Thu Feb  9 15:38:44 2017.
