 Gaussian 09, Revision E.01,
 Gaussian 09:  ES64L-G09RevE.01 30-Nov-2015

 ----------------------------------------------------------------------
 #rhf/gen scf(symm,tight,novaracc,noincfock,fulldiag) stable(crhf) geom
 =nocrowd test
 ----------------------------------------------------------------------

 hf stability analysis of h10 triangular lattice, y= 0.9989933810987597
 9
 ----------------------------------------------------------------------
 Symbolic Z-matrix:
 Charge =  0 Multiplicity = 1

                         Standard orientation:
 ---------------------------------------------------------------------
 Center     Atomic      Atomic             Coordinates (Angstroms)
 Number     Number       Type             X           Y           Z
 ---------------------------------------------------------------------
      1          1           0        2.001006    1.727689    0.000000
      2          1           0        2.001006    0.573569    0.000000
      3          1           0        1.000503    1.152375    0.000000
      4          1           0        1.000503   -0.001745    0.000000
      5          1           0       -0.000000    0.577060    0.000000
      6          1           0       -0.000000   -0.577060   -0.000000
      7          1           0       -1.000503    0.001745    0.000000
      8          1           0       -1.000503   -1.152375   -0.000000
      9          1           0       -2.001006   -0.573569    0.000000
     10          1           0       -2.001006   -1.727689   -0.000000
 ---------------------------------------------------------------------

 SCF Done:  E(RHF) =  -4.86784216577     A.U. after   10 cycles
 E2 =    -0.1131014327D+00 EUMP2 =    -0.49809435984385D+01

 The electronic state is 1-AG.
 Alpha  occ. eigenvalues --   -0.84209  -0.74023  -0.55116  -0.34019  -0.30826
 Alpha virt. eigenvalues --   -0.00145   0.22044   0.23782   0.55980   0.58427

 Mulliken charges:
               1
     1  H   -0.091174
     2  H    0.145734
     3  H    0.107738
     4  H   -0.120914
     5  H   -0.041384
     6  H   -0.041384
     7  H   -0.120914
     8  H    0.107738
     9  H    0.145734
    10  H   -0.091174
 Sum of Mulliken charges =  -0.00000

 Dipole moment (field-independent basis, Debye):
    X=             -0.0000    Y=             -0.0000    Z=              0.0000  Tot=              0.0000
 Quadrupole moment (field-independent basis, Debye-Ang):
   XX=            -13.5965   YY=            -15.4840   ZZ=            -12.9872
   XY=             -1.0323   XZ=             -0.0000   YZ=             -0.0000

 Normal termination of Gaussian 09 at Thu Feb  9 15:36:09 2017.
