 Gaussian 09, Revision E.01,
 Gaussian 09:  ES64L-G09RevE.01 30-Nov-2015

 ----------------------------------------------------------------------
 #rhf/gen scf(symm,tight,novaracc,noincfock,fulldiag) stable(crhf) geom
 =nocrowd test
 ----------------------------------------------------------------------

 ----------------------------------------------------------------------
 hf stability analysis of h10 triangular lattice, y= 1.0832039369499773
 ----------------------------------------------------------------------
 Symbolic Z-matrix:
 Charge =  0 Multiplicity = 1

                         Standard orientation:
 ---------------------------------------------------------------------
 Center     Atomic      Atomic             Coordinates (Angstroms)
 Number     Number       Type             X           Y           Z
 ---------------------------------------------------------------------
      1          1           0        1.912963    2.076799   -0.000000
      2          1           0        1.912963    0.869561   -0.000000
      3          1           0        0.956482    1.340209   -0.000000
      4          1           0        0.956482    0.132971   -0.000000
      5          1           0        0.000000    0.603619    0.000000
      6          1           0       -0.000000   -0.603619   -0.000000
      7          1           0       -0.956482   -0.132971   -0.000000
      8          1           0       -0.956482   -1.340209   -0.000000
      9          1           0       -1.912963   -0.869561   -0.000000
     10          1           0       -1.912963   -2.076799   -0.000000
 ---------------------------------------------------------------------

 SCF Done:  E(RHF) =  -4.85116665917     A.U. after   10 cycles
 E2 =    -0.1170004481D+00 EUMP2 =    -0.49681671072857D+01

 The electronic state is 1-AG.
 Alpha  occ. eigenvalues --   -0.82374  -0.73651  -0.55311  -0.32446  -0.28641
 Alpha virt. eigenvalues --    0.01977   0.17008   0.24411   0.46607   0.58481

 Mulliken charges:
               1
     1  H   -0.057541
     2  H    0.132349
     3  H    0.113212
     4  H   -0.119560
     5  H   -0.068460
     6  H   -0.068460
     7  H   -0.119560
     8  H    0.113212
     9  H    0.132349
    10  H   -0.057541
 Sum of Mulliken charges =  -0.00000

 Dipole moment (field-independent basis, Debye):
    X=             -0.0000    Y=              0.0000    Z=             -0.0000  Tot=              0.0000
 Quadrupole moment (field-independent basis, Debye-Ang):
   XX=            -12.5404   YY=            -14.5392   ZZ=            -13.0739
   XY=              0.6892   XZ=              0.0000   YZ=             -0.0000

 Normal termination of Gaussian 09 at Thu Feb  9 15:39:51 2017.
