 Gaussian 09, Revision E.01,
 Gaussian 09:  ES64L-G09RevE.01 30-Nov-2015

 ----------------------------------------------------------------------
 #rhf/gen scf(symm,tight,novaracc,noincfock,fulldiag) stable(crhf) geom
 =nocrowd test
 ----------------------------------------------------------------------

 ----------------------------------------------------------------------
 hf stability analysis of h10 triangular lattice, y= 1.4627903246301464
 ----------------------------------------------------------------------
 Symbolic Z-matrix:
 Charge =  0 Multiplicity = 1

                         Standard orientation:
 ---------------------------------------------------------------------
 Center     Atomic      Atomic             Coordinates (Angstroms)
 Number     Number       Type             X           Y           Z
 ---------------------------------------------------------------------
      1          1           0        1.524254    3.376482    0.000000
      2          1           0        1.524254    1.861379    0.000000
      3          1           0        0.762127    2.067017    0.000000
      4          1           0        0.762127    0.551914    0.000000
      5          1           0        0.000000    0.757551    0.000000
      6          1           0       -0.000000   -0.757551   -0.000000
      7          1           0       -0.762127   -0.551914   -0.000000
      8          1           0       -0.762127   -2.067017   -0.000000
      9          1           0       -1.524254   -1.861379   -0.000000
     10          1           0       -1.524254   -3.376482   -0.000000
 ---------------------------------------------------------------------

 SCF Done:  E(RHF) =  -4.86310617340     A.U. after    9 cycles
 E2 =    -0.3730847627D+00 EUMP2 =    -0.52361909360624D+01

 The electronic state is 1-AG.
 Alpha  occ. eigenvalues --   -0.78873  -0.71800  -0.60804  -0.47002  -0.13989
 Alpha virt. eigenvalues --   -0.04437   0.16641   0.28078   0.44709   0.60624

 Mulliken charges:
               1
     1  H   -0.140492
     2  H    0.036131
     3  H    0.059696
     4  H    0.018515
     5  H    0.026150
     6  H    0.026150
     7  H    0.018515
     8  H    0.059696
     9  H    0.036131
    10  H   -0.140492
 Sum of Mulliken charges =  -0.00000

 Dipole moment (field-independent basis, Debye):
    X=              0.0000    Y=             -0.0000    Z=              0.0000  Tot=              0.0000
 Quadrupole moment (field-independent basis, Debye-Ang):
   XX=            -14.3113   YY=            -28.9875   ZZ=            -12.8789
   XY=             -7.8155   XZ=             -0.0000   YZ=             -0.0000

 Normal termination of Gaussian 09 at Thu Feb  9 15:50:38 2017.
