 Gaussian 09, Revision E.01,
 Gaussian 09:  ES64L-G09RevE.01 30-Nov-2015

 ----------------------------------------------------------------------
 #rhf/gen scf(symm,tight,novaracc,noincfock,fulldiag) stable(crhf) geom
 =nocrowd test
 ----------------------------------------------------------------------

 hf stability analysis of h10 triangular lattice, y= 0.8635150515934925
 1
 ----------------------------------------------------------------------
 Symbolic Z-matrix:
 Charge =  0 Multiplicity = 1

                         Standard orientation:
 ---------------------------------------------------------------------
 Center     Atomic      Atomic             Coordinates (Angstroms)
 Number     Number       Type             X           Y           Z
 ---------------------------------------------------------------------
      1          1           0        2.114635    1.092934    0.000000
      2          1           0        2.114635    0.000830    0.000000
      3          1           0        1.057318    0.819493    0.000000
      4          1           0        1.057318   -0.272611    0.000000
      5          1           0        0.000000    0.546052   -0.000000
      6          1           0       -0.000000   -0.546052   -0.000000
      7          1           0       -1.057318    0.272611    0.000000
      8          1           0       -1.057318   -0.819493   -0.000000
      9          1           0       -2.114635   -0.000830    0.000000
     10          1           0       -2.114635   -1.092934   -0.000000
 ---------------------------------------------------------------------

 SCF Done:  E(RHF) =  -4.85265743216     A.U. after   10 cycles
 E2 =    -0.1140350747D+00 EUMP2 =    -0.49666925069042D+01

 The electronic state is 1-AG.
 Alpha  occ. eigenvalues --   -0.86016  -0.73818  -0.54570  -0.39423  -0.29172
 Alpha virt. eigenvalues --   -0.02760   0.21525   0.30818   0.52755   0.82328

 Mulliken charges:
               1
     1  H   -0.073368
     2  H    0.108906
     3  H    0.056566
     4  H   -0.093097
     5  H    0.000992
     6  H    0.000992
     7  H   -0.093097
     8  H    0.056566
     9  H    0.108906
    10  H   -0.073368
 Sum of Mulliken charges =   0.00000

 Dipole moment (field-independent basis, Debye):
    X=              0.0000    Y=              0.0000    Z=              0.0000  Tot=              0.0000
 Quadrupole moment (field-independent basis, Debye-Ang):
   XX=            -15.4923   YY=            -14.2969   ZZ=            -12.8459
   XY=             -1.6673   XZ=             -0.0000   YZ=             -0.0000

 Normal termination of Gaussian 09 at Thu Feb  9 15:29:16 2017.
