 Gaussian 09, Revision E.01,
 Gaussian 09:  ES64L-G09RevE.01 30-Nov-2015

 ----------------------------------------------------------------------
 #rhf/gen scf(symm,tight,novaracc,noincfock,fulldiag) stable(crhf) geom
 =nocrowd test
 ----------------------------------------------------------------------

 ----------------------------------------------------------------------
 hf stability analysis of h10 triangular lattice, y= 1.8235128059726211
 ----------------------------------------------------------------------
 Symbolic Z-matrix:
 Charge =  0 Multiplicity = 1

                         Standard orientation:
 ---------------------------------------------------------------------
 Center     Atomic      Atomic             Coordinates (Angstroms)
 Number     Number       Type             X           Y           Z
 ---------------------------------------------------------------------
      1          1           0        1.247789    4.410336   -0.000000
      2          1           0        1.247789    2.559541    0.000000
      3          1           0        0.623894    2.667867   -0.000000
      4          1           0        0.623894    0.817072    0.000000
      5          1           0       -0.000000    0.925398   -0.000000
      6          1           0       -0.000000   -0.925398   -0.000000
      7          1           0       -0.623894   -0.817072    0.000000
      8          1           0       -0.623894   -2.667867   -0.000000
      9          1           0       -1.247789   -2.559541    0.000000
     10          1           0       -1.247789   -4.410336   -0.000000
 ---------------------------------------------------------------------

 SCF Done:  E(RHF) =  -4.89209204784     A.U. after    7 cycles
 E2 =    -0.7079357107D+00 EUMP2 =    -0.56000277585734D+01

 The electronic state is 1-AG.
 Alpha  occ. eigenvalues --   -0.73881  -0.70310  -0.64630  -0.58232  -0.18999
 Alpha virt. eigenvalues --   -0.13029   0.35065   0.43165   0.55243   0.67025

 Mulliken charges:
               1
     1  H   -0.017350
     2  H    0.006768
     3  H    0.007484
     4  H    0.000385
     5  H    0.002712
     6  H    0.002712
     7  H    0.000385
     8  H    0.007484
     9  H    0.006768
    10  H   -0.017350
 Sum of Mulliken charges =   0.00000

 Dipole moment (field-independent basis, Debye):
    X=             -0.0000    Y=             -0.0000    Z=              0.0000  Tot=              0.0000
 Quadrupole moment (field-independent basis, Debye-Ang):
   XX=            -12.3347   YY=            -19.1755   ZZ=            -13.1570
   XY=             -1.9625   XZ=             -0.0000   YZ=             -0.0000

 Normal termination of Gaussian 09 at Thu Feb  9 15:55:41 2017.
