 Gaussian 09, Revision E.01,
 Gaussian 09:  ES64L-G09RevE.01 30-Nov-2015

 ----------------------------------------------------------------------
 #rhf/gen scf(symm,tight,novaracc,noincfock,fulldiag) stable(crhf) geom
 =nocrowd test
 ----------------------------------------------------------------------

 hf stability analysis of h10 triangular lattice, y= 0.8171217145794329
 5
 ----------------------------------------------------------------------
 Symbolic Z-matrix:
 Charge =  0 Multiplicity = 1

                         Standard orientation:
 ---------------------------------------------------------------------
 Center     Atomic      Atomic             Coordinates (Angstroms)
 Number     Number       Type             X           Y           Z
 ---------------------------------------------------------------------
      1          1           0        2.137855    0.852000    0.000000
      2          1           0        2.137855   -0.228242    0.000000
      3          1           0        1.068927    0.696061    0.000000
      4          1           0        1.068927   -0.384181    0.000000
      5          1           0        0.000000    0.540121    0.000000
      6          1           0       -0.000000   -0.540121    0.000000
      7          1           0       -1.068927    0.384181    0.000000
      8          1           0       -1.068927   -0.696061    0.000000
      9          1           0       -2.137855    0.228242    0.000000
     10          1           0       -2.137855   -0.852000    0.000000
 ---------------------------------------------------------------------

 SCF Done:  E(RHF) =  -4.87701136797     A.U. after   10 cycles
 E2 =    -0.1055882891D+00 EUMP2 =    -0.49825996571205D+01

 The electronic state is 1-AG.
 Alpha  occ. eigenvalues --   -0.87522  -0.74385  -0.52736  -0.46313  -0.30663
 Alpha virt. eigenvalues --   -0.01914   0.16064   0.35405   0.51970   0.87089

 Mulliken charges:
               1
     1  H    0.084497
     2  H   -0.005219
     3  H   -0.031473
     4  H   -0.035238
     5  H   -0.012567
     6  H   -0.012567
     7  H   -0.035238
     8  H   -0.031473
     9  H   -0.005219
    10  H    0.084497
 Sum of Mulliken charges =   0.00000

 Dipole moment (field-independent basis, Debye):
    X=              0.0000    Y=              0.0000    Z=              0.0000  Tot=              0.0000
 Quadrupole moment (field-independent basis, Debye-Ang):
   XX=            -10.2271   YY=            -16.9679   ZZ=            -12.9578
   XY=              2.1212   XZ=              0.0000   YZ=              0.0000

 Normal termination of Gaussian 09 at Thu Feb  9 15:26:36 2017.
