 Gaussian 09, Revision E.01,
 Gaussian 09:  ES64L-G09RevE.01 30-Nov-2015

 ----------------------------------------------------------------------
 #rhf/gen scf(symm,tight,novaracc,noincfock,fulldiag) stable(crhf) geom
 =nocrowd test
 ----------------------------------------------------------------------

 hf stability analysis of h10 triangular lattice, y= 0.7698484628422243
 0
 ----------------------------------------------------------------------
 Symbolic Z-matrix:
 Charge =  0 Multiplicity = 1

                         Standard orientation:
 ---------------------------------------------------------------------
 Center     Atomic      Atomic             Coordinates (Angstroms)
 Number     Number       Type             X           Y           Z
 ---------------------------------------------------------------------
      1          1           0        2.148772    0.593645    0.000000
      2          1           0        2.148772   -0.481109    0.000000
      3          1           0        1.074386    0.565511    0.000000
      4          1           0        1.074386   -0.509243    0.000000
      5          1           0        0.000000    0.537377    0.000000
      6          1           0       -0.000000   -0.537377    0.000000
      7          1           0       -1.074386    0.509243    0.000000
      8          1           0       -1.074386   -0.565511    0.000000
      9          1           0       -2.148772    0.481109    0.000000
     10          1           0       -2.148772   -0.593645    0.000000
 ---------------------------------------------------------------------

 SCF Done:  E(RHF) =  -4.88635403951     A.U. after   10 cycles
 E2 =    -0.1049891362D+00 EUMP2 =    -0.49913431756845D+01

 The electronic state is 1-AG.
 Alpha  occ. eigenvalues --   -0.87762  -0.74527  -0.52642  -0.46858  -0.31205
 Alpha virt. eigenvalues --   -0.01314   0.15348   0.36786   0.51305   0.90264

 Mulliken charges:
               1
     1  H    0.048642
     2  H    0.032273
     3  H   -0.033168
     4  H   -0.033611
     5  H   -0.014136
     6  H   -0.014136
     7  H   -0.033611
     8  H   -0.033168
     9  H    0.032273
    10  H    0.048642
 Sum of Mulliken charges =   0.00000

 Dipole moment (field-independent basis, Debye):
    X=             -0.0000    Y=              0.0000    Z=              0.0000  Tot=              0.0000
 Quadrupole moment (field-independent basis, Debye-Ang):
   XX=            -10.0694   YY=            -17.3945   ZZ=            -12.9545
   XY=              0.3865   XZ=              0.0000   YZ=              0.0000

 Normal termination of Gaussian 09 at Thu Feb  9 15:23:39 2017.
