 Gaussian 09, Revision E.01,
 Gaussian 09:  ES64L-G09RevE.01 30-Nov-2015

 ----------------------------------------------------------------------
 #rhf/gen scf(symm,tight,novaracc,noincfock,fulldiag) stable(crhf) geom
 =nocrowd test
 ----------------------------------------------------------------------

 ----------------------------------------------------------------------
 hf stability analysis of h10 triangular lattice, y= 1.3079075690836115
 ----------------------------------------------------------------------
 Symbolic Z-matrix:
 Charge =  0 Multiplicity = 1

                         Standard orientation:
 ---------------------------------------------------------------------
 Center     Atomic      Atomic             Coordinates (Angstroms)
 Number     Number       Type             X           Y           Z
 ---------------------------------------------------------------------
      1          1           0        1.673004    2.886327    0.000000
      2          1           0        1.673004    1.505935    0.000000
      3          1           0        0.836502    1.788262    0.000000
      4          1           0        0.836502    0.407869    0.000000
      5          1           0       -0.000000    0.690196   -0.000000
      6          1           0       -0.000000   -0.690196   -0.000000
      7          1           0       -0.836502   -0.407869    0.000000
      8          1           0       -0.836502   -1.788262   -0.000000
      9          1           0       -1.673004   -1.505935    0.000000
     10          1           0       -1.673004   -2.886327    0.000000
 ---------------------------------------------------------------------

 SCF Done:  E(RHF) =  -4.74074107511     A.U. after   12 cycles
 E2 =    -0.2085533721D+00 EUMP2 =    -0.49492944471778D+01

 The electronic state is 1-AG.
 Alpha  occ. eigenvalues --   -0.83262  -0.73858  -0.59588  -0.41542  -0.11133
 Alpha virt. eigenvalues --    0.01812   0.08697   0.20299   0.38878   0.55453

 Mulliken charges:
               1
     1  H   -0.249396
     2  H    0.049065
     3  H    0.123484
     4  H    0.034420
     5  H    0.042428
     6  H    0.042428
     7  H    0.034420
     8  H    0.123484
     9  H    0.049065
    10  H   -0.249396
 Sum of Mulliken charges =  -0.00000

 Dipole moment (field-independent basis, Debye):
    X=              0.0000    Y=              0.0000    Z=             -0.0000  Tot=              0.0000
 Quadrupole moment (field-independent basis, Debye-Ang):
   XX=            -17.4437   YY=            -31.8744   ZZ=            -12.7918
   XY=            -11.8249   XZ=             -0.0000   YZ=             -0.0000

 Normal termination of Gaussian 09 at Thu Feb  9 15:47:13 2017.
