 Gaussian 09, Revision E.01,
 Gaussian 09:  ES64L-G09RevE.01 30-Nov-2015

 ----------------------------------------------------------------------
 #rhf/gen scf(symm,tight,novaracc,noincfock,fulldiag) stable(crhf) geom
 =nocrowd test
 ----------------------------------------------------------------------

 ----------------------------------------------------------------------
 hf stability analysis of h10 triangular lattice, y= 1.5245539459466628
 ----------------------------------------------------------------------
 Symbolic Z-matrix:
 Charge =  0 Multiplicity = 1

                         Standard orientation:
 ---------------------------------------------------------------------
 Center     Atomic      Atomic             Coordinates (Angstroms)
 Number     Number       Type             X           Y           Z
 ---------------------------------------------------------------------
      1          1           0        1.470128    3.562031    0.000000
      2          1           0        1.470128    1.991146    0.000000
      3          1           0        0.735064    2.173736    0.000000
      4          1           0        0.735064    0.602852    0.000000
      5          1           0        0.000000    0.785442    0.000000
      6          1           0       -0.000000   -0.785442   -0.000000
      7          1           0       -0.735064   -0.602852   -0.000000
      8          1           0       -0.735064   -2.173736   -0.000000
      9          1           0       -1.470128   -1.991146   -0.000000
     10          1           0       -1.470128   -3.562031   -0.000000
 ---------------------------------------------------------------------

 SCF Done:  E(RHF) =  -4.89373199475     A.U. after    9 cycles
 E2 =    -0.4414658353D+00 EUMP2 =    -0.53351978300536D+01

 The electronic state is 1-AG.
 Alpha  occ. eigenvalues --   -0.77423  -0.71184  -0.61310  -0.49025  -0.15234
 Alpha virt. eigenvalues --   -0.06767   0.20355   0.31059   0.46894   0.62303

 Mulliken charges:
               1
     1  H   -0.103600
     2  H    0.028553
     3  H    0.044326
     4  H    0.011885
     5  H    0.018836
     6  H    0.018836
     7  H    0.011885
     8  H    0.044326
     9  H    0.028553
    10  H   -0.103600
 Sum of Mulliken charges =   0.00000

 Dipole moment (field-independent basis, Debye):
    X=              0.0000    Y=              0.0000    Z=              0.0000  Tot=              0.0000
 Quadrupole moment (field-independent basis, Debye-Ang):
   XX=            -13.5504   YY=            -26.8403   ZZ=            -12.9233
   XY=             -6.2172   XZ=             -0.0000   YZ=             -0.0000

 Normal termination of Gaussian 09 at Thu Feb  9 15:51:46 2017.
