 Gaussian 09, Revision E.01,
 Gaussian 09:  ES64L-G09RevE.01 30-Nov-2015

 ----------------------------------------------------------------------
 #rhf/gen scf(symm,tight,novaracc,noincfock,fulldiag) stable(crhf) geom
 =nocrowd test
 ----------------------------------------------------------------------

 ----------------------------------------------------------------------
 hf stability analysis of h10 triangular lattice, y= 1.8049072731613405
 ----------------------------------------------------------------------
 Symbolic Z-matrix:
 Charge =  0 Multiplicity = 1

                         Standard orientation:
 ---------------------------------------------------------------------
 Center     Atomic      Atomic             Coordinates (Angstroms)
 Number     Number       Type             X           Y           Z
 ---------------------------------------------------------------------
      1          1           0        1.259880    4.359299   -0.000000
      2          1           0        1.259880    2.526266   -0.000000
      3          1           0        0.629940    2.637908   -0.000000
      4          1           0        0.629940    0.804875   -0.000000
      5          1           0        0.000000    0.916517    0.000000
      6          1           0       -0.000000   -0.916517    0.000000
      7          1           0       -0.629940   -0.804875    0.000000
      8          1           0       -0.629940   -2.637908    0.000000
      9          1           0       -1.259880   -2.526266    0.000000
     10          1           0       -1.259880   -4.359299    0.000000
 ---------------------------------------------------------------------

 SCF Done:  E(RHF) =  -4.89854303565     A.U. after    7 cycles
 E2 =    -0.6952577361D+00 EUMP2 =    -0.55938007717671D+01

 The electronic state is 1-AG.
 Alpha  occ. eigenvalues --   -0.73980  -0.70288  -0.64398  -0.57711  -0.18862
 Alpha virt. eigenvalues --   -0.12806   0.34276   0.42508   0.54810   0.66835

 Mulliken charges:
               1
     1  H   -0.019655
     2  H    0.007471
     3  H    0.008568
     4  H    0.000547
     5  H    0.003069
     6  H    0.003069
     7  H    0.000547
     8  H    0.008568
     9  H    0.007471
    10  H   -0.019655
 Sum of Mulliken charges =   0.00000

 Dipole moment (field-independent basis, Debye):
    X=             -0.0000    Y=             -0.0000    Z=             -0.0000  Tot=              0.0000
 Quadrupole moment (field-independent basis, Debye-Ang):
   XX=            -12.3459   YY=            -19.4789   ZZ=            -13.1426
   XY=             -2.1006   XZ=             -0.0000   YZ=              0.0000

 Normal termination of Gaussian 09 at Thu Feb  9 15:55:30 2017.
