 Gaussian 09, Revision E.01,
 Gaussian 09:  ES64L-G09RevE.01 30-Nov-2015

 ----------------------------------------------------------------------
 #rhf/gen scf(symm,tight,novaracc,noincfock,fulldiag) stable(crhf) geom
 =nocrowd test
 ----------------------------------------------------------------------

 ----------------------------------------------------------------------
 hf stability analysis of h10 triangular lattice, y= 1.0195230727433033
 ----------------------------------------------------------------------
 Symbolic Z-matrix:
 Charge =  0 Multiplicity = 1

                         Standard orientation:
 ---------------------------------------------------------------------
 Center     Atomic      Atomic             Coordinates (Angstroms)
 Number     Number       Type             X           Y           Z
 ---------------------------------------------------------------------
      1          1           0        1.980210    1.815692    0.000000
      2          1           0        1.980210    0.649452    0.000000
      3          1           0        0.990105    1.199406    0.000000
      4          1           0        0.990105    0.033166    0.000000
      5          1           0        0.000000    0.583120    0.000000
      6          1           0       -0.000000   -0.583120    0.000000
      7          1           0       -0.990105   -0.033166    0.000000
      8          1           0       -0.990105   -1.199406    0.000000
      9          1           0       -1.980210   -0.649452    0.000000
     10          1           0       -1.980210   -1.815692    0.000000
 ---------------------------------------------------------------------

 SCF Done:  E(RHF) =  -4.86608428017     A.U. after   10 cycles
 E2 =    -0.1137373379D+00 EUMP2 =    -0.49798216180904D+01

 The electronic state is 1-AG.
 Alpha  occ. eigenvalues --   -0.83804  -0.73970  -0.55180  -0.33091  -0.30924
 Alpha virt. eigenvalues --    0.00382   0.20707   0.24072   0.55159   0.56568

 Mulliken charges:
               1
     1  H   -0.085308
     2  H    0.144467
     3  H    0.110316
     4  H   -0.121528
     5  H   -0.047948
     6  H   -0.047948
     7  H   -0.121528
     8  H    0.110316
     9  H    0.144467
    10  H   -0.085308
 Sum of Mulliken charges =  -0.00000

 Dipole moment (field-independent basis, Debye):
    X=              0.0000    Y=              0.0000    Z=              0.0000  Tot=              0.0000
 Quadrupole moment (field-independent basis, Debye-Ang):
   XX=            -13.3146   YY=            -15.4039   ZZ=            -13.0093
   XY=             -0.6817   XZ=              0.0000   YZ=              0.0000

 Normal termination of Gaussian 09 at Thu Feb  9 15:37:08 2017.
