 Gaussian 09, Revision E.01,
 Gaussian 09:  ES64L-G09RevE.01 30-Nov-2015

 ----------------------------------------------------------------------
 #rhf/gen scf(symm,tight,novaracc,noincfock,fulldiag) stable(crhf) geom
 =nocrowd test
 ----------------------------------------------------------------------

 hf stability analysis of h10 triangular lattice, y= 0.8650738659253496
 3
 ----------------------------------------------------------------------
 Symbolic Z-matrix:
 Charge =  0 Multiplicity = 1

                         Standard orientation:
 ---------------------------------------------------------------------
 Center     Atomic      Atomic             Coordinates (Angstroms)
 Number     Number       Type             X           Y           Z
 ---------------------------------------------------------------------
      1          1           0        2.113674    1.100812   -0.000000
      2          1           0        2.113674    0.008212   -0.000000
      3          1           0        1.056837    0.823556   -0.000000
      4          1           0        1.056837   -0.269044   -0.000000
      5          1           0        0.000000    0.546300    0.000000
      6          1           0       -0.000000   -0.546300    0.000000
      7          1           0       -1.056837    0.269044    0.000000
      8          1           0       -1.056837   -0.823556    0.000000
      9          1           0       -2.113674   -0.008212    0.000000
     10          1           0       -2.113674   -1.100812    0.000000
 ---------------------------------------------------------------------

 SCF Done:  E(RHF) =  -4.85296845593     A.U. after   10 cycles
 E2 =    -0.1139862819D+00 EUMP2 =    -0.49669547378692D+01

 The electronic state is 1-AG.
 Alpha  occ. eigenvalues --   -0.86005  -0.73824  -0.54576  -0.39381  -0.29190
 Alpha virt. eigenvalues --   -0.02741   0.21547   0.30732   0.52783   0.82072

 Mulliken charges:
               1
     1  H   -0.074244
     2  H    0.109866
     3  H    0.057566
     4  H   -0.093743
     5  H    0.000556
     6  H    0.000556
     7  H   -0.093743
     8  H    0.057566
     9  H    0.109866
    10  H   -0.074244
 Sum of Mulliken charges =  -0.00000

 Dipole moment (field-independent basis, Debye):
    X=              0.0000    Y=             -0.0000    Z=              0.0000  Tot=              0.0000
 Quadrupole moment (field-independent basis, Debye-Ang):
   XX=            -15.4741   YY=            -14.3191   ZZ=            -12.8473
   XY=             -1.6794   XZ=              0.0000   YZ=              0.0000

 Normal termination of Gaussian 09 at Thu Feb  9 15:29:21 2017.
