 Gaussian 09, Revision E.01,
 Gaussian 09:  ES64L-G09RevE.01 30-Nov-2015

 ----------------------------------------------------------------------
 #rhf/gen scf(symm,tight,novaracc,noincfock,fulldiag) stable(crhf) geom
 =nocrowd test
 ----------------------------------------------------------------------

 hf stability analysis of h10 triangular lattice, y= 0.7745680896380032
 8
 ----------------------------------------------------------------------
 Symbolic Z-matrix:
 Charge =  0 Multiplicity = 1

                         Standard orientation:
 ---------------------------------------------------------------------
 Center     Atomic      Atomic             Coordinates (Angstroms)
 Number     Number       Type             X           Y           Z
 ---------------------------------------------------------------------
      1          1           0        2.148348    0.620014    0.000000
      2          1           0        2.148348   -0.454952    0.000000
      3          1           0        1.074174    0.578749    0.000000
      4          1           0        1.074174   -0.496217    0.000000
      5          1           0        0.000000    0.537483    0.000000
      6          1           0       -0.000000   -0.537483    0.000000
      7          1           0       -1.074174    0.496217   -0.000000
      8          1           0       -1.074174   -0.578749    0.000000
      9          1           0       -2.148348    0.454952   -0.000000
     10          1           0       -2.148348   -0.620014    0.000000
 ---------------------------------------------------------------------

 SCF Done:  E(RHF) =  -4.88599568156     A.U. after   10 cycles
 E2 =    -0.1050118768D+00 EUMP2 =    -0.49910075583271D+01

 The electronic state is 1-AG.
 Alpha  occ. eigenvalues --   -0.87753  -0.74521  -0.52645  -0.46837  -0.31184
 Alpha virt. eigenvalues --   -0.01338   0.15377   0.36729   0.51333   0.90137

 Mulliken charges:
               1
     1  H    0.052426
     2  H    0.028427
     3  H   -0.033056
     4  H   -0.033719
     5  H   -0.014078
     6  H   -0.014078
     7  H   -0.033719
     8  H   -0.033056
     9  H    0.028427
    10  H    0.052426
 Sum of Mulliken charges =  -0.00000

 Dipole moment (field-independent basis, Debye):
    X=              0.0000    Y=             -0.0000    Z=              0.0000  Tot=              0.0000
 Quadrupole moment (field-independent basis, Debye-Ang):
   XX=            -10.0754   YY=            -17.3779   ZZ=            -12.9546
   XY=              0.5666   XZ=             -0.0000   YZ=              0.0000

 Normal termination of Gaussian 09 at Thu Feb  9 15:23:56 2017.
