 Gaussian 09, Revision E.01,
 Gaussian 09:  ES64L-G09RevE.01 30-Nov-2015

 ----------------------------------------------------------------------
 #rhf/gen scf(symm,tight,novaracc,noincfock,fulldiag) stable(crhf) geom
 =nocrowd test
 ----------------------------------------------------------------------

 ----------------------------------------------------------------------
 hf stability analysis of h10 triangular lattice, y= 1.0174315389116453
 ----------------------------------------------------------------------
 Symbolic Z-matrix:
 Charge =  0 Multiplicity = 1

                         Standard orientation:
 ---------------------------------------------------------------------
 Center     Atomic      Atomic             Coordinates (Angstroms)
 Number     Number       Type             X           Y           Z
 ---------------------------------------------------------------------
      1          1           0        1.982354    1.806816   -0.000000
      2          1           0        1.982354    0.641837    0.000000
      3          1           0        0.991177    1.194653   -0.000000
      4          1           0        0.991177    0.029674    0.000000
      5          1           0        0.000000    0.582490   -0.000000
      6          1           0       -0.000000   -0.582490   -0.000000
      7          1           0       -0.991177   -0.029674   -0.000000
      8          1           0       -0.991177   -1.194653   -0.000000
      9          1           0       -1.982354   -0.641837   -0.000000
     10          1           0       -1.982354   -1.806816   -0.000000
 ---------------------------------------------------------------------

 SCF Done:  E(RHF) =  -4.86632854786     A.U. after   10 cycles
 E2 =    -0.1136627961D+00 EUMP2 =    -0.49799913439324D+01

 The electronic state is 1-AG.
 Alpha  occ. eigenvalues --   -0.83846  -0.73976  -0.55174  -0.33179  -0.30924
 Alpha virt. eigenvalues --    0.00328   0.20841   0.24045   0.55482   0.56507

 Mulliken charges:
               1
     1  H   -0.085984
     2  H    0.144661
     3  H    0.110098
     4  H   -0.121496
     5  H   -0.047280
     6  H   -0.047280
     7  H   -0.121496
     8  H    0.110098
     9  H    0.144661
    10  H   -0.085984
 Sum of Mulliken charges =   0.00000

 Dipole moment (field-independent basis, Debye):
    X=              0.0000    Y=              0.0000    Z=             -0.0000  Tot=              0.0000
 Quadrupole moment (field-independent basis, Debye-Ang):
   XX=            -13.3427   YY=            -15.4163   ZZ=            -13.0071
   XY=             -0.7198   XZ=             -0.0000   YZ=             -0.0000

 Normal termination of Gaussian 09 at Thu Feb  9 15:37:02 2017.
