 Gaussian 09, Revision E.01,
 Gaussian 09:  ES64L-G09RevE.01 30-Nov-2015

 ----------------------------------------------------------------------
 #rhf/gen scf(symm,tight,novaracc,noincfock,fulldiag) stable(crhf) geom
 =nocrowd test
 ----------------------------------------------------------------------

 ----------------------------------------------------------------------
 hf stability analysis of h10 triangular lattice, y= 1.4120005093904389
 ----------------------------------------------------------------------
 Symbolic Z-matrix:
 Charge =  0 Multiplicity = 1

                         Standard orientation:
 ---------------------------------------------------------------------
 Center     Atomic      Atomic             Coordinates (Angstroms)
 Number     Number       Type             X           Y           Z
 ---------------------------------------------------------------------
      1          1           0        1.571009    3.220096    0.000000
      2          1           0        1.571009    1.750084    0.000000
      3          1           0        0.785504    1.977551    0.000000
      4          1           0        0.785504    0.507539    0.000000
      5          1           0        0.000000    0.735006    0.000000
      6          1           0       -0.000000   -0.735006   -0.000000
      7          1           0       -0.785504   -0.507539   -0.000000
      8          1           0       -0.785504   -1.977551   -0.000000
      9          1           0       -1.571009   -1.750084   -0.000000
     10          1           0       -1.571009   -3.220096   -0.000000
 ---------------------------------------------------------------------

 SCF Done:  E(RHF) =  -4.82944022758     A.U. after   10 cycles
 E2 =    -0.3171753801D+00 EUMP2 =    -0.51466156077304D+01

 The electronic state is 1-AG.
 Alpha  occ. eigenvalues --   -0.80261  -0.72424  -0.60425  -0.45309  -0.12901
 Alpha virt. eigenvalues --   -0.02194   0.13467   0.25524   0.42808   0.59028

 Mulliken charges:
               1
     1  H   -0.176105
     2  H    0.042495
     3  H    0.075726
     4  H    0.025137
     5  H    0.032747
     6  H    0.032747
     7  H    0.025137
     8  H    0.075726
     9  H    0.042495
    10  H   -0.176105
 Sum of Mulliken charges =   0.00000

 Dipole moment (field-independent basis, Debye):
    X=             -0.0000    Y=              0.0000    Z=              0.0000  Tot=              0.0000
 Quadrupole moment (field-independent basis, Debye-Ang):
   XX=            -15.1513   YY=            -30.5994   ZZ=            -12.8447
   XY=             -9.2760   XZ=             -0.0000   YZ=             -0.0000

 Normal termination of Gaussian 09 at Thu Feb  9 15:49:38 2017.
