 Gaussian 09, Revision E.01,
 Gaussian 09:  ES64L-G09RevE.01 30-Nov-2015

 ----------------------------------------------------------------------
 #rhf/gen scf(symm,tight,novaracc,noincfock,fulldiag) stable(crhf) geom
 =nocrowd test
 ----------------------------------------------------------------------

 hf stability analysis of h10 triangular lattice, y= 0.9055188689148155
 9
 ----------------------------------------------------------------------
 Symbolic Z-matrix:
 Charge =  0 Multiplicity = 1

                         Standard orientation:
 ---------------------------------------------------------------------
 Center     Atomic      Atomic             Coordinates (Angstroms)
 Number     Number       Type             X           Y           Z
 ---------------------------------------------------------------------
      1          1           0        2.085298    1.300379   -0.000000
      2          1           0        2.085298    0.192910   -0.000000
      3          1           0        1.042649    0.927056   -0.000000
      4          1           0        1.042649   -0.180412   -0.000000
      5          1           0        0.000000    0.553734   -0.000000
      6          1           0       -0.000000   -0.553734   -0.000000
      7          1           0       -1.042649    0.180412   -0.000000
      8          1           0       -1.042649   -0.927056   -0.000000
      9          1           0       -2.085298   -0.192910   -0.000000
     10          1           0       -2.085298   -1.300379   -0.000000
 ---------------------------------------------------------------------

 SCF Done:  E(RHF) =  -4.86070579729     A.U. after   10 cycles
 E2 =    -0.1129198066D+00 EUMP2 =    -0.49736256039409D+01

 The electronic state is 1-AG.
 Alpha  occ. eigenvalues --   -0.85628  -0.73965  -0.54743  -0.38087  -0.29687
 Alpha virt. eigenvalues --   -0.02164   0.22178   0.28298   0.53597   0.75006

 Mulliken charges:
               1
     1  H   -0.091119
     2  H    0.130037
     3  H    0.079962
     4  H   -0.107349
     5  H   -0.011532
     6  H   -0.011532
     7  H   -0.107349
     8  H    0.079962
     9  H    0.130037
    10  H   -0.091119
 Sum of Mulliken charges =   0.00000

 Dipole moment (field-independent basis, Debye):
    X=              0.0000    Y=             -0.0000    Z=             -0.0000  Tot=              0.0000
 Quadrupole moment (field-independent basis, Debye-Ang):
   XX=            -14.9495   YY=            -14.8765   ZZ=            -12.8862
   XY=             -1.8269   XZ=              0.0000   YZ=              0.0000

 Normal termination of Gaussian 09 at Thu Feb  9 15:31:32 2017.
