 Gaussian 09, Revision E.01,
 Gaussian 09:  ES64L-G09RevE.01 30-Nov-2015

 ----------------------------------------------------------------------
 #rhf/gen scf(symm,tight,novaracc,noincfock,fulldiag) stable(crhf) geom
 =nocrowd test
 ----------------------------------------------------------------------

 ----------------------------------------------------------------------
 hf stability analysis of h10 triangular lattice, y= 1.6516426580229577
 ----------------------------------------------------------------------
 Symbolic Z-matrix:
 Charge =  0 Multiplicity = 1

                         Standard orientation:
 ---------------------------------------------------------------------
 Center     Atomic      Atomic             Coordinates (Angstroms)
 Number     Number       Type             X           Y           Z
 ---------------------------------------------------------------------
      1          1           0        1.367943    3.931054    0.000000
      2          1           0        1.367943    2.242825    0.000000
      3          1           0        0.683972    2.387584    0.000000
      4          1           0        0.683972    0.699355    0.000000
      5          1           0        0.000000    0.844114    0.000000
      6          1           0       -0.000000   -0.844114    0.000000
      7          1           0       -0.683972   -0.699355   -0.000000
      8          1           0       -0.683972   -2.387584   -0.000000
      9          1           0       -1.367943   -2.242825   -0.000000
     10          1           0       -1.367943   -3.931054   -0.000000
 ---------------------------------------------------------------------

 SCF Done:  E(RHF) =  -4.92154597495     A.U. after    8 cycles
 E2 =    -0.5716381924D+00 EUMP2 =    -0.54931841673368D+01

 The electronic state is 1-AG.
 Alpha  occ. eigenvalues --   -0.75311  -0.70438  -0.62572  -0.53108  -0.17288
 Alpha virt. eigenvalues --   -0.10267   0.27215   0.36652   0.50858   0.64865

 Mulliken charges:
               1
     1  H   -0.051202
     2  H    0.016186
     3  H    0.022627
     4  H    0.003840
     5  H    0.008549
     6  H    0.008549
     7  H    0.003840
     8  H    0.022627
     9  H    0.016186
    10  H   -0.051202
 Sum of Mulliken charges =  -0.00000

 Dipole moment (field-independent basis, Debye):
    X=              0.0000    Y=              0.0000    Z=              0.0000  Tot=              0.0000
 Quadrupole moment (field-independent basis, Debye-Ang):
   XX=            -12.6764   YY=            -22.8232   ZZ=            -13.0210
   XY=             -3.7757   XZ=              0.0000   YZ=             -0.0000

 Normal termination of Gaussian 09 at Thu Feb  9 15:53:41 2017.
