 Gaussian 09, Revision E.01,
 Gaussian 09:  ES64L-G09RevE.01 30-Nov-2015

 ----------------------------------------------------------------------
 #rhf/gen scf(symm,tight,novaracc,noincfock,fulldiag) stable(crhf) geom
 =nocrowd test
 ----------------------------------------------------------------------

 hf stability analysis of h10 triangular lattice, y= 0.9295513923648614
 0
 ----------------------------------------------------------------------
 Symbolic Z-matrix:
 Charge =  0 Multiplicity = 1

                         Standard orientation:
 ---------------------------------------------------------------------
 Center     Atomic      Atomic             Coordinates (Angstroms)
 Number     Number       Type             X           Y           Z
 ---------------------------------------------------------------------
      1          1           0        2.065724    1.414632    0.000000
      2          1           0        2.065724    0.296670    0.000000
      3          1           0        1.032862    0.986806    0.000000
      4          1           0        1.032862   -0.131155    0.000000
      5          1           0        0.000000    0.558981    0.000000
      6          1           0       -0.000000   -0.558981    0.000000
      7          1           0       -1.032862    0.131155   -0.000000
      8          1           0       -1.032862   -0.986806   -0.000000
      9          1           0       -2.065724   -0.296670   -0.000000
     10          1           0       -2.065724   -1.414632   -0.000000
 ---------------------------------------------------------------------

 SCF Done:  E(RHF) =  -4.86444481267     A.U. after   10 cycles
 E2 =    -0.1125606319D+00 EUMP2 =    -0.49770054445756D+01

 The electronic state is 1-AG.
 Alpha  occ. eigenvalues --   -0.85335  -0.74022  -0.54846  -0.37162  -0.30001
 Alpha virt. eigenvalues --   -0.01727   0.22593   0.26723   0.54152   0.70621

 Mulliken charges:
               1
     1  H   -0.095961
     2  H    0.137896
     3  H    0.090073
     4  H   -0.112888
     5  H   -0.019121
     6  H   -0.019121
     7  H   -0.112888
     8  H    0.090073
     9  H    0.137896
    10  H   -0.095961
 Sum of Mulliken charges =   0.00000

 Dipole moment (field-independent basis, Debye):
    X=              0.0000    Y=              0.0000    Z=             -0.0000  Tot=              0.0000
 Quadrupole moment (field-independent basis, Debye-Ang):
   XX=            -14.6060   YY=            -15.1545   ZZ=            -12.9115
   XY=             -1.7657   XZ=             -0.0000   YZ=             -0.0000

 Normal termination of Gaussian 09 at Thu Feb  9 15:32:45 2017.
