 Gaussian 09, Revision E.01,
 Gaussian 09:  ES64L-G09RevE.01 30-Nov-2015

 ----------------------------------------------------------------------
 #rhf/gen scf(symm,tight,novaracc,noincfock,fulldiag) stable(crhf) geom
 =nocrowd test
 ----------------------------------------------------------------------

 hf stability analysis of h10 triangular lattice, y= 0.7793188866684501
 7
 ----------------------------------------------------------------------
 Symbolic Z-matrix:
 Charge =  0 Multiplicity = 1

                         Standard orientation:
 ---------------------------------------------------------------------
 Center     Atomic      Atomic             Coordinates (Angstroms)
 Number     Number       Type             X           Y           Z
 ---------------------------------------------------------------------
      1          1           0        2.147763    0.646430    0.000000
      2          1           0        2.147763   -0.428828    0.000000
      3          1           0        1.073882    0.592030    0.000000
      4          1           0        1.073882   -0.483229    0.000000
      5          1           0        0.000000    0.537629    0.000000
      6          1           0       -0.000000   -0.537629   -0.000000
      7          1           0       -1.073882    0.483229   -0.000000
      8          1           0       -1.073882   -0.592030   -0.000000
      9          1           0       -2.147763    0.428828   -0.000000
     10          1           0       -2.147763   -0.646430   -0.000000
 ---------------------------------------------------------------------

 SCF Done:  E(RHF) =  -4.88550109684     A.U. after   10 cycles
 E2 =    -0.1050432929D+00 EUMP2 =    -0.49905443897624D+01

 The electronic state is 1-AG.
 Alpha  occ. eigenvalues --   -0.87740  -0.74513  -0.52651  -0.46808  -0.31155
 Alpha virt. eigenvalues --   -0.01371   0.15417   0.36652   0.51371   0.89963

 Mulliken charges:
               1
     1  H    0.056194
     2  H    0.024574
     3  H   -0.032936
     4  H   -0.033834
     5  H   -0.013998
     6  H   -0.013998
     7  H   -0.033834
     8  H   -0.032936
     9  H    0.024574
    10  H    0.056194
 Sum of Mulliken charges =   0.00000

 Dipole moment (field-independent basis, Debye):
    X=              0.0000    Y=             -0.0000    Z=             -0.0000  Tot=              0.0000
 Quadrupole moment (field-independent basis, Debye-Ang):
   XX=            -10.0837   YY=            -17.3551   ZZ=            -12.9548
   XY=              0.7466   XZ=              0.0000   YZ=              0.0000

 Normal termination of Gaussian 09 at Thu Feb  9 15:24:15 2017.
