 Gaussian 09, Revision E.01,
 Gaussian 09:  ES64L-G09RevE.01 30-Nov-2015

 ----------------------------------------------------------------------
 #rhf/gen scf(symm,tight,novaracc,noincfock,fulldiag) stable(crhf) geom
 =nocrowd test
 ----------------------------------------------------------------------

 ----------------------------------------------------------------------
 hf stability analysis of h10 triangular lattice, y= 1.1999306234657463
 ----------------------------------------------------------------------
 Symbolic Z-matrix:
 Charge =  0 Multiplicity = 1

                         Standard orientation:
 ---------------------------------------------------------------------
 Center     Atomic      Atomic             Coordinates (Angstroms)
 Number     Number       Type             X           Y           Z
 ---------------------------------------------------------------------
      1          1           0        1.786351    2.515711    0.000000
      2          1           0        1.786351    1.222907    0.000000
      3          1           0        0.893175    1.581057    0.000000
      4          1           0        0.893175    0.288253    0.000000
      5          1           0        0.000000    0.646402    0.000000
      6          1           0       -0.000000   -0.646402   -0.000000
      7          1           0       -0.893175   -0.288253    0.000000
      8          1           0       -0.893175   -1.581057   -0.000000
      9          1           0       -1.786351   -1.222907    0.000000
     10          1           0       -1.786351   -2.515711   -0.000000
 ---------------------------------------------------------------------

 SCF Done:  E(RHF) =  -4.78601196223     A.U. after   10 cycles
 E2 =    -0.1271639213D+00 EUMP2 =    -0.49131758834986D+01

 The electronic state is 1-AG.
 Alpha  occ. eigenvalues --   -0.79284  -0.72543  -0.55247  -0.33737  -0.20985
 Alpha virt. eigenvalues --    0.02559   0.14242   0.20083   0.39832   0.62137

 Mulliken charges:
               1
     1  H    0.017619
     2  H    0.082557
     3  H    0.111410
     4  H   -0.098551
     5  H   -0.113035
     6  H   -0.113035
     7  H   -0.098551
     8  H    0.111410
     9  H    0.082557
    10  H    0.017619
 Sum of Mulliken charges =   0.00000

 Dipole moment (field-independent basis, Debye):
    X=              0.0000    Y=             -0.0000    Z=              0.0000  Tot=              0.0000
 Quadrupole moment (field-independent basis, Debye-Ang):
   XX=            -11.6417   YY=            -10.3665   ZZ=            -13.1677
   XY=              3.8088   XZ=              0.0000   YZ=              0.0000

 Normal termination of Gaussian 09 at Thu Feb  9 15:44:06 2017.
