 Gaussian 09, Revision E.01,
 Gaussian 09:  ES64L-G09RevE.01 30-Nov-2015

 ----------------------------------------------------------------------
 #rhf/gen scf(symm,tight,novaracc,noincfock,fulldiag) stable(crhf) geom
 =nocrowd test
 ----------------------------------------------------------------------

 hf stability analysis of h10 triangular lattice, y= 0.7958570277676497
 7
 ----------------------------------------------------------------------
 Symbolic Z-matrix:
 Charge =  0 Multiplicity = 1

                         Standard orientation:
 ---------------------------------------------------------------------
 Center     Atomic      Atomic             Coordinates (Angstroms)
 Number     Number       Type             X           Y           Z
 ---------------------------------------------------------------------
      1          1           0        2.144541    0.737380    0.000000
      2          1           0        2.144541   -0.339494    0.000000
      3          1           0        1.072270    0.637909    0.000000
      4          1           0        1.072270   -0.438966    0.000000
      5          1           0        0.000000    0.538437    0.000000
      6          1           0       -0.000000   -0.538437    0.000000
      7          1           0       -1.072270    0.438966    0.000000
      8          1           0       -1.072270   -0.637909    0.000000
      9          1           0       -2.144541    0.339494    0.000000
     10          1           0       -2.144541   -0.737380    0.000000
 ---------------------------------------------------------------------

 SCF Done:  E(RHF) =  -4.88276151883     A.U. after   10 cycles
 E2 =    -0.1052179676D+00 EUMP2 =    -0.49879794864367D+01

 The electronic state is 1-AG.
 Alpha  occ. eigenvalues --   -0.87669  -0.74472  -0.52679  -0.46647  -0.30994
 Alpha virt. eigenvalues --   -0.01553   0.15632   0.36234   0.51577   0.89013

 Mulliken charges:
               1
     1  H    0.068962
     2  H    0.011332
     3  H   -0.032430
     4  H   -0.034315
     5  H   -0.013549
     6  H   -0.013549
     7  H   -0.034315
     8  H   -0.032430
     9  H    0.011332
    10  H    0.068962
 Sum of Mulliken charges =   0.00000

 Dipole moment (field-independent basis, Debye):
    X=              0.0000    Y=             -0.0000    Z=              0.0000  Tot=              0.0000
 Quadrupole moment (field-independent basis, Debye-Ang):
   XX=            -10.1299   YY=            -17.2292   ZZ=            -12.9557
   XY=              1.3614   XZ=              0.0000   YZ=              0.0000

 Normal termination of Gaussian 09 at Thu Feb  9 15:25:17 2017.
