 Gaussian 09, Revision E.01,
 Gaussian 09:  ES64L-G09RevE.01 30-Nov-2015

 ----------------------------------------------------------------------
 #rhf/gen scf(symm,tight,novaracc,noincfock,fulldiag) stable(crhf) geom
 =nocrowd test
 ----------------------------------------------------------------------

 ----------------------------------------------------------------------
 hf stability analysis of h10 triangular lattice, y= 2.2598583125136917
 ----------------------------------------------------------------------
 Symbolic Z-matrix:
 Charge =  0 Multiplicity = 1

                         Standard orientation:
 ---------------------------------------------------------------------
 Center     Atomic      Atomic             Coordinates (Angstroms)
 Number     Number       Type             X           Y           Z
 ---------------------------------------------------------------------
      1          1           0        1.015455    5.570835    0.000000
      2          1           0        1.015455    3.296582    0.000000
      3          1           0        0.507727    3.353981    0.000000
      4          1           0        0.507727    1.079727    0.000000
      5          1           0        0.000000    1.137127    0.000000
      6          1           0       -0.000000   -1.137127    0.000000
      7          1           0       -0.507727   -1.079727   -0.000000
      8          1           0       -0.507727   -3.353981   -0.000000
      9          1           0       -1.015455   -3.296582   -0.000000
     10          1           0       -1.015455   -5.570835   -0.000000
 ---------------------------------------------------------------------

 SCF Done:  E(RHF) =  -4.58042348888     A.U. after    5 cycles
 E2 =    -0.9358360877D+00 EUMP2 =    -0.55162595766152D+01

 The electronic state is 1-AG.
 Alpha  occ. eigenvalues --   -0.73488  -0.71952  -0.69767  -0.67693  -0.20422
 Alpha virt. eigenvalues --   -0.15741   0.51082   0.56448   0.63953   0.70836

 Mulliken charges:
               1
     1  H    0.000721
     2  H    0.000290
     3  H   -0.001074
     4  H   -0.000146
     5  H    0.000209
     6  H    0.000209
     7  H   -0.000146
     8  H   -0.001074
     9  H    0.000290
    10  H    0.000721
 Sum of Mulliken charges =   0.00000

 Dipole moment (field-independent basis, Debye):
    X=             -0.0000    Y=              0.0000    Z=             -0.0000  Tot=              0.0000
 Quadrupole moment (field-independent basis, Debye-Ang):
   XX=            -12.5830   YY=            -15.4277   ZZ=            -13.4259
   XY=             -0.4801   XZ=              0.0000   YZ=             -0.0000

 Normal termination of Gaussian 09 at Thu Feb  9 15:58:54 2017.
