 Gaussian 09, Revision E.01,
 Gaussian 09:  ES64L-G09RevE.01 30-Nov-2015

 ----------------------------------------------------------------------
 #rhf/gen scf(symm,tight,novaracc,noincfock,fulldiag) stable(crhf) geom
 =nocrowd test
 ----------------------------------------------------------------------

 ----------------------------------------------------------------------
 hf stability analysis of h10 triangular lattice, y= 1.1414311402849235
 ----------------------------------------------------------------------
 Symbolic Z-matrix:
 Charge =  0 Multiplicity = 1

                         Standard orientation:
 ---------------------------------------------------------------------
 Center     Atomic      Atomic             Coordinates (Angstroms)
 Number     Number       Type             X           Y           Z
 ---------------------------------------------------------------------
      1          1           0        1.849765    2.301506    0.000000
      2          1           0        1.849765    1.053023    0.000000
      3          1           0        0.924882    1.462874    0.000000
      4          1           0        0.924882    0.214390    0.000000
      5          1           0       -0.000000    0.624242    0.000000
      6          1           0       -0.000000   -0.624242   -0.000000
      7          1           0       -0.924882   -0.214390    0.000000
      8          1           0       -0.924882   -1.462874    0.000000
      9          1           0       -1.849765   -1.053023    0.000000
     10          1           0       -1.849765   -2.301506    0.000000
 ---------------------------------------------------------------------

 SCF Done:  E(RHF) =  -4.82455536232     A.U. after   10 cycles
 E2 =    -0.1214705417D+00 EUMP2 =    -0.49460259040329D+01

 The electronic state is 1-AG.
 Alpha  occ. eigenvalues --   -0.80887  -0.73173  -0.55329  -0.33058  -0.24974
 Alpha virt. eigenvalues --    0.02903   0.14726   0.23222   0.41651   0.60299

 Mulliken charges:
               1
     1  H   -0.022853
     2  H    0.112098
     3  H    0.112048
     4  H   -0.112790
     5  H   -0.088503
     6  H   -0.088503
     7  H   -0.112790
     8  H    0.112048
     9  H    0.112098
    10  H   -0.022853
 Sum of Mulliken charges =   0.00000

 Dipole moment (field-independent basis, Debye):
    X=              0.0000    Y=              0.0000    Z=              0.0000  Tot=              0.0000
 Quadrupole moment (field-independent basis, Debye-Ang):
   XX=            -11.9966   YY=            -12.8779   ZZ=            -13.1257
   XY=              2.1972   XZ=             -0.0000   YZ=             -0.0000

 Normal termination of Gaussian 09 at Thu Feb  9 15:42:06 2017.
