 Gaussian 09, Revision E.01,
 Gaussian 09:  ES64L-G09RevE.01 30-Nov-2015

 ----------------------------------------------------------------------
 #rhf/gen scf(symm,tight,novaracc,noincfock,fulldiag) stable(crhf) geom
 =nocrowd test
 ----------------------------------------------------------------------

 ----------------------------------------------------------------------
 hf stability analysis of h10 triangular lattice, y= 1.1676724918407646
 ----------------------------------------------------------------------
 Symbolic Z-matrix:
 Charge =  0 Multiplicity = 1

                         Standard orientation:
 ---------------------------------------------------------------------
 Center     Atomic      Atomic             Coordinates (Angstroms)
 Number     Number       Type             X           Y           Z
 ---------------------------------------------------------------------
      1          1           0        1.821231    2.398918   -0.000000
      2          1           0        1.821231    1.130874   -0.000000
      3          1           0        0.910616    1.516470   -0.000000
      4          1           0        0.910616    0.248426   -0.000000
      5          1           0        0.000000    0.634022   -0.000000
      6          1           0       -0.000000   -0.634022   -0.000000
      7          1           0       -0.910616   -0.248426   -0.000000
      8          1           0       -0.910616   -1.516470   -0.000000
      9          1           0       -1.821231   -1.130874   -0.000000
     10          1           0       -1.821231   -2.398918   -0.000000
 ---------------------------------------------------------------------

 SCF Done:  E(RHF) =  -4.80864069125     A.U. after   10 cycles
 E2 =    -0.1238812297D+00 EUMP2 =    -0.49325219209240D+01

 The electronic state is 1-AG.
 Alpha  occ. eigenvalues --   -0.80178  -0.72907  -0.55304  -0.33358  -0.23211
 Alpha virt. eigenvalues --    0.02939   0.14254   0.22027   0.40478   0.61125

 Mulliken charges:
               1
     1  H   -0.005220
     2  H    0.100181
     3  H    0.111364
     4  H   -0.107688
     5  H   -0.098636
     6  H   -0.098636
     7  H   -0.107688
     8  H    0.111364
     9  H    0.100181
    10  H   -0.005220
 Sum of Mulliken charges =  -0.00000

 Dipole moment (field-independent basis, Debye):
    X=             -0.0000    Y=             -0.0000    Z=             -0.0000  Tot=              0.0000
 Quadrupole moment (field-independent basis, Debye-Ang):
   XX=            -11.8106   YY=            -11.8530   ZZ=            -13.1460
   XY=              2.9182   XZ=              0.0000   YZ=              0.0000

 Normal termination of Gaussian 09 at Thu Feb  9 15:43:03 2017.
