 Gaussian 09, Revision E.01,
 Gaussian 09:  ES64L-G09RevE.01 30-Nov-2015

 ----------------------------------------------------------------------
 #rhf/gen scf(symm,tight,novaracc,noincfock,fulldiag) stable(crhf) geom
 =nocrowd test
 ----------------------------------------------------------------------

 hf stability analysis of h10 triangular lattice, y= 0.8674200594573238
 1
 ----------------------------------------------------------------------
 Symbolic Z-matrix:
 Charge =  0 Multiplicity = 1

                         Standard orientation:
 ---------------------------------------------------------------------
 Center     Atomic      Atomic             Coordinates (Angstroms)
 Number     Number       Type             X           Y           Z
 ---------------------------------------------------------------------
      1          1           0        2.112207    1.112644   -0.000000
      2          1           0        2.112207    0.019285   -0.000000
      3          1           0        1.056104    0.829662   -0.000000
      4          1           0        1.056104   -0.263697   -0.000000
      5          1           0        0.000000    0.546680    0.000000
      6          1           0       -0.000000   -0.546680    0.000000
      7          1           0       -1.056104    0.263697   -0.000000
      8          1           0       -1.056104   -0.829662   -0.000000
      9          1           0       -2.112207   -0.019285   -0.000000
     10          1           0       -2.112207   -1.112644   -0.000000
 ---------------------------------------------------------------------

 SCF Done:  E(RHF) =  -4.85343681923     A.U. after   11 cycles
 E2 =    -0.1139135315D+00 EUMP2 =    -0.49673503507511D+01

 The electronic state is 1-AG.
 Alpha  occ. eigenvalues --   -0.85987  -0.73833  -0.54585  -0.39315  -0.29217
 Alpha virt. eigenvalues --   -0.02714   0.21580   0.30601   0.52825   0.81684

 Mulliken charges:
               1
     1  H   -0.075531
     2  H    0.111285
     3  H    0.059052
     4  H   -0.094699
     5  H   -0.000107
     6  H   -0.000107
     7  H   -0.094699
     8  H    0.059052
     9  H    0.111285
    10  H   -0.075531
 Sum of Mulliken charges =  -0.00000

 Dipole moment (field-independent basis, Debye):
    X=             -0.0000    Y=              0.0000    Z=             -0.0000  Tot=              0.0000
 Quadrupole moment (field-independent basis, Debye-Ang):
   XX=            -15.4463   YY=            -14.3525   ZZ=            -12.8494
   XY=             -1.6966   XZ=              0.0000   YZ=              0.0000

 Normal termination of Gaussian 09 at Thu Feb  9 15:29:29 2017.
