 Gaussian 09, Revision E.01,
 Gaussian 09:  ES64L-G09RevE.01 30-Nov-2015

 ----------------------------------------------------------------------
 #rhf/gen scf(symm,tight,novaracc,noincfock,fulldiag) stable(crhf) geom
 =nocrowd test
 ----------------------------------------------------------------------

 hf stability analysis of h10 triangular lattice, y= 0.7993536348196611
 5
 ----------------------------------------------------------------------
 Symbolic Z-matrix:
 Charge =  0 Multiplicity = 1

                         Standard orientation:
 ---------------------------------------------------------------------
 Center     Atomic      Atomic             Coordinates (Angstroms)
 Number     Number       Type             X           Y           Z
 ---------------------------------------------------------------------
      1          1           0        2.143632    0.756408   -0.000000
      2          1           0        2.143632   -0.320923    0.000000
      3          1           0        1.071816    0.647537   -0.000000
      4          1           0        1.071816   -0.429794    0.000000
      5          1           0       -0.000000    0.538666   -0.000000
      6          1           0       -0.000000   -0.538666    0.000000
      7          1           0       -1.071816    0.429794   -0.000000
      8          1           0       -1.071816   -0.647537    0.000000
      9          1           0       -2.143632    0.320923   -0.000000
     10          1           0       -2.143632   -0.756408    0.000000
 ---------------------------------------------------------------------

 SCF Done:  E(RHF) =  -4.88198491332     A.U. after   10 cycles
 E2 =    -0.1052676879D+00 EUMP2 =    -0.49872526012208D+01

 The electronic state is 1-AG.
 Alpha  occ. eigenvalues --   -0.87649  -0.74460  -0.52687  -0.46602  -0.30949
 Alpha virt. eigenvalues --   -0.01603   0.15692   0.36119   0.51633   0.88748

 Mulliken charges:
               1
     1  H    0.071587
     2  H    0.008571
     3  H   -0.032300
     4  H   -0.034439
     5  H   -0.013419
     6  H   -0.013419
     7  H   -0.034439
     8  H   -0.032300
     9  H    0.008571
    10  H    0.071587
 Sum of Mulliken charges =   0.00000

 Dipole moment (field-independent basis, Debye):
    X=             -0.0000    Y=              0.0000    Z=              0.0000  Tot=              0.0000
 Quadrupole moment (field-independent basis, Debye-Ang):
   XX=            -10.1430   YY=            -17.1937   ZZ=            -12.9560
   XY=              1.4888   XZ=             -0.0000   YZ=              0.0000

 Normal termination of Gaussian 09 at Thu Feb  9 15:25:30 2017.
