 Gaussian 09, Revision E.01,
 Gaussian 09:  ES64L-G09RevE.01 30-Nov-2015

 ----------------------------------------------------------------------
 #rhf/gen scf(symm,tight,novaracc,noincfock,fulldiag) stable(crhf) geom
 =nocrowd test
 ----------------------------------------------------------------------

 ----------------------------------------------------------------------
 hf stability analysis of h10 triangular lattice, y= 1.1374139499019000
 ----------------------------------------------------------------------
 Symbolic Z-matrix:
 Charge =  0 Multiplicity = 1

                         Standard orientation:
 ---------------------------------------------------------------------
 Center     Atomic      Atomic             Coordinates (Angstroms)
 Number     Number       Type             X           Y           Z
 ---------------------------------------------------------------------
      1          1           0        1.854138    2.286392    0.000000
      2          1           0        1.854138    1.040853    0.000000
      3          1           0        0.927069    1.454581    0.000000
      4          1           0        0.927069    0.209042    0.000000
      5          1           0        0.000000    0.622769    0.000000
      6          1           0       -0.000000   -0.622769   -0.000000
      7          1           0       -0.927069   -0.209042    0.000000
      8          1           0       -0.927069   -1.454581   -0.000000
      9          1           0       -1.854138   -1.040853   -0.000000
     10          1           0       -1.854138   -2.286392   -0.000000
 ---------------------------------------------------------------------

 SCF Done:  E(RHF) =  -4.82678269950     A.U. after   10 cycles
 E2 =    -0.1211221695D+00 EUMP2 =    -0.49479048690141D+01

 The electronic state is 1-AG.
 Alpha  occ. eigenvalues --   -0.80994  -0.73212  -0.55331  -0.33013  -0.25239
 Alpha virt. eigenvalues --    0.02873   0.14833   0.23368   0.41888   0.60172

 Mulliken charges:
               1
     1  H   -0.025459
     2  H    0.113762
     3  H    0.112168
     4  H   -0.113437
     5  H   -0.087033
     6  H   -0.087033
     7  H   -0.113437
     8  H    0.112168
     9  H    0.113762
    10  H   -0.025459
 Sum of Mulliken charges =  -0.00000

 Dipole moment (field-independent basis, Debye):
    X=             -0.0000    Y=             -0.0000    Z=             -0.0000  Tot=              0.0000
 Quadrupole moment (field-independent basis, Debye-Ang):
   XX=            -12.0285   YY=            -13.0198   ZZ=            -13.1224
   XY=              2.0882   XZ=              0.0000   YZ=             -0.0000

 Normal termination of Gaussian 09 at Thu Feb  9 15:41:57 2017.
