 Gaussian 09, Revision E.01,
 Gaussian 09:  ES64L-G09RevE.01 30-Nov-2015

 ----------------------------------------------------------------------
 #rhf/gen scf(symm,tight,novaracc,noincfock,fulldiag) stable(crhf) geom
 =nocrowd test
 ----------------------------------------------------------------------

 hf stability analysis of h10 triangular lattice, y= 0.8841209406657646
 3
 ----------------------------------------------------------------------
 Symbolic Z-matrix:
 Charge =  0 Multiplicity = 1

                         Standard orientation:
 ---------------------------------------------------------------------
 Center     Atomic      Atomic             Coordinates (Angstroms)
 Number     Number       Type             X           Y           Z
 ---------------------------------------------------------------------
      1          1           0        2.101099    1.195952    0.000000
      2          1           0        2.101099    0.096813    0.000000
      3          1           0        1.050550    0.872761    0.000000
      4          1           0        1.050550   -0.226378    0.000000
      5          1           0        0.000000    0.549570    0.000000
      6          1           0       -0.000000   -0.549570    0.000000
      7          1           0       -1.050550    0.226378    0.000000
      8          1           0       -1.050550   -0.872761    0.000000
      9          1           0       -2.101099   -0.096813    0.000000
     10          1           0       -2.101099   -1.195952    0.000000
 ---------------------------------------------------------------------

 SCF Done:  E(RHF) =  -4.85674010713     A.U. after   10 cycles
 E2 =    -0.1134273078D+00 EUMP2 =    -0.49701674149089D+01

 The electronic state is 1-AG.
 Alpha  occ. eigenvalues --   -0.85845  -0.73895  -0.54652  -0.38815  -0.29417
 Alpha virt. eigenvalues --   -0.02495   0.21830   0.29630   0.53146   0.78829

 Mulliken charges:
               1
     1  H   -0.083592
     2  H    0.120490
     3  H    0.068968
     4  H   -0.100884
     5  H   -0.004982
     6  H   -0.004982
     7  H   -0.100884
     8  H    0.068968
     9  H    0.120490
    10  H   -0.083592
 Sum of Mulliken charges =  -0.00000

 Dipole moment (field-independent basis, Debye):
    X=             -0.0000    Y=             -0.0000    Z=              0.0000  Tot=              0.0000
 Quadrupole moment (field-independent basis, Debye-Ang):
   XX=            -15.2381   YY=            -14.5891   ZZ=            -12.8649
   XY=             -1.7885   XZ=             -0.0000   YZ=             -0.0000

 Normal termination of Gaussian 09 at Thu Feb  9 15:30:24 2017.
