 Gaussian 09, Revision E.01,
 Gaussian 09:  ES64L-G09RevE.01 30-Nov-2015

 ----------------------------------------------------------------------
 #rhf/gen scf(symm,tight,novaracc,noincfock,fulldiag) stable(crhf) geom
 =nocrowd test
 ----------------------------------------------------------------------

 hf stability analysis of h10 triangular lattice, y= 0.8792984807723166
 5
 ----------------------------------------------------------------------
 Symbolic Z-matrix:
 Charge =  0 Multiplicity = 1

                         Standard orientation:
 ---------------------------------------------------------------------
 Center     Atomic      Atomic             Coordinates (Angstroms)
 Number     Number       Type             X           Y           Z
 ---------------------------------------------------------------------
      1          1           0        2.104424    1.172060    0.000000
      2          1           0        2.104424    0.074657    0.000000
      3          1           0        1.052212    0.860381    0.000000
      4          1           0        1.052212   -0.237022    0.000000
      5          1           0        0.000000    0.548702    0.000000
      6          1           0       -0.000000   -0.548702    0.000000
      7          1           0       -1.052212    0.237022    0.000000
      8          1           0       -1.052212   -0.860381    0.000000
      9          1           0       -2.104424   -0.074657    0.000000
     10          1           0       -2.104424   -1.172060    0.000000
 ---------------------------------------------------------------------

 SCF Done:  E(RHF) =  -4.85579655885     A.U. after   11 cycles
 E2 =    -0.1135610893D+00 EUMP2 =    -0.49693576481626D+01

 The electronic state is 1-AG.
 Alpha  occ. eigenvalues --   -0.85889  -0.73878  -0.54633  -0.38965  -0.29358
 Alpha virt. eigenvalues --   -0.02562   0.21756   0.29918   0.53050   0.79668

 Mulliken charges:
               1
     1  H   -0.081463
     2  H    0.117992
     3  H    0.066224
     4  H   -0.099206
     5  H   -0.003548
     6  H   -0.003548
     7  H   -0.099206
     8  H    0.066224
     9  H    0.117992
    10  H   -0.081463
 Sum of Mulliken charges =  -0.00000

 Dipole moment (field-independent basis, Debye):
    X=              0.0000    Y=              0.0000    Z=              0.0000  Tot=              0.0000
 Quadrupole moment (field-independent basis, Debye-Ang):
   XX=            -15.3000   YY=            -14.5213   ZZ=            -12.8603
   XY=             -1.7675   XZ=              0.0000   YZ=              0.0000

 Normal termination of Gaussian 09 at Thu Feb  9 15:30:08 2017.
