 Gaussian 09, Revision E.01,
 Gaussian 09:  ES64L-G09RevE.01 30-Nov-2015

 ----------------------------------------------------------------------
 #rhf/gen scf(symm,tight,novaracc,noincfock,fulldiag) stable(crhf) geom
 =nocrowd test
 ----------------------------------------------------------------------

 ----------------------------------------------------------------------
 hf stability analysis of h10 triangular lattice, y= 2.4486760461856742
 ----------------------------------------------------------------------
 Symbolic Z-matrix:
 Charge =  0 Multiplicity = 1

                         Standard orientation:
 ---------------------------------------------------------------------
 Center     Atomic      Atomic             Coordinates (Angstroms)
 Number     Number       Type             X           Y           Z
 ---------------------------------------------------------------------
      1          1           0        0.938781    6.059609    0.000000
      2          1           0        0.938781    3.599608    0.000000
      3          1           0        0.469390    3.644805    0.000000
      4          1           0        0.469390    1.184804    0.000000
      5          1           0        0.000000    1.230001    0.000000
      6          1           0       -0.000000   -1.230001    0.000000
      7          1           0       -0.469390   -1.184804    0.000000
      8          1           0       -0.469390   -3.644805    0.000000
      9          1           0       -0.938781   -3.599608    0.000000
     10          1           0       -0.938781   -6.059609    0.000000
 ---------------------------------------------------------------------

 SCF Done:  E(RHF) =  -4.38122210615     A.U. after    5 cycles
 E2 =    -0.1019305270D+01 EUMP2 =    -0.54005273757622D+01

 The electronic state is 1-AG.
 Alpha  occ. eigenvalues --   -0.73923  -0.72934  -0.71593  -0.70397  -0.20529
 Alpha virt. eigenvalues --   -0.16212   0.56906   0.61282   0.67259   0.72609

 Mulliken charges:
               1
     1  H    0.001271
     2  H   -0.000137
     3  H   -0.001141
     4  H   -0.000079
     5  H    0.000085
     6  H    0.000085
     7  H   -0.000079
     8  H   -0.001141
     9  H   -0.000137
    10  H    0.001271
 Sum of Mulliken charges =   0.00000

 Dipole moment (field-independent basis, Debye):
    X=             -0.0000    Y=              0.0000    Z=              0.0000  Tot=              0.0000
 Quadrupole moment (field-independent basis, Debye-Ang):
   XX=            -12.7380   YY=            -14.7822   ZZ=            -13.4958
   XY=             -0.2832   XZ=              0.0000   YZ=             -0.0000

 Normal termination of Gaussian 09 at Thu Feb  9 15:59:46 2017.
