 Gaussian 09, Revision E.01,
 Gaussian 09:  ES64L-G09RevE.01 30-Nov-2015

 ----------------------------------------------------------------------
 #rhf/gen scf(symm,tight,novaracc,noincfock,fulldiag) stable(crhf) geom
 =nocrowd test
 ----------------------------------------------------------------------

 hf stability analysis of h10 triangular lattice, y= 0.8988453699635604
 6
 ----------------------------------------------------------------------
 Symbolic Z-matrix:
 Charge =  0 Multiplicity = 1

                         Standard orientation:
 ---------------------------------------------------------------------
 Center     Atomic      Atomic             Coordinates (Angstroms)
 Number     Number       Type             X           Y           Z
 ---------------------------------------------------------------------
      1          1           0        2.090402    1.268087    0.000000
      2          1           0        2.090402    0.163323    0.000000
      3          1           0        1.045201    0.910234    0.000000
      4          1           0        1.045201   -0.194530    0.000000
      5          1           0        0.000000    0.552382    0.000000
      6          1           0       -0.000000   -0.552382    0.000000
      7          1           0       -1.045201    0.194530    0.000000
      8          1           0       -1.045201   -0.910234    0.000000
      9          1           0       -2.090402   -0.163323    0.000000
     10          1           0       -2.090402   -1.268087    0.000000
 ---------------------------------------------------------------------

 SCF Done:  E(RHF) =  -4.85951810179     A.U. after   10 cycles
 E2 =    -0.1130612944D+00 EUMP2 =    -0.49725793961644D+01

 The electronic state is 1-AG.
 Alpha  occ. eigenvalues --   -0.85700  -0.73945  -0.54714  -0.38324  -0.29601
 Alpha virt. eigenvalues --   -0.02273   0.22067   0.28722   0.53452   0.76212

 Mulliken charges:
               1
     1  H   -0.089104
     2  H    0.127325
     3  H    0.076739
     4  H   -0.105498
     5  H   -0.009461
     6  H   -0.009461
     7  H   -0.105498
     8  H    0.076739
     9  H    0.127325
    10  H   -0.089104
 Sum of Mulliken charges =   0.00000

 Dipole moment (field-independent basis, Debye):
    X=              0.0000    Y=             -0.0000    Z=              0.0000  Tot=              0.0000
 Quadrupole moment (field-independent basis, Debye-Ang):
   XX=            -15.0416   YY=            -14.7899   ZZ=            -12.8794
   XY=             -1.8244   XZ=              0.0000   YZ=              0.0000

 Normal termination of Gaussian 09 at Thu Feb  9 15:31:11 2017.
