 Gaussian 09, Revision E.01,
 Gaussian 09:  ES64L-G09RevE.01 30-Nov-2015

 ----------------------------------------------------------------------
 #rhf/gen scf(symm,tight,novaracc,noincfock,fulldiag) stable(crhf) geom
 =nocrowd test
 ----------------------------------------------------------------------

 ----------------------------------------------------------------------
 hf stability analysis of h10 triangular lattice, y= 1.4143115637001062
 ----------------------------------------------------------------------
 Symbolic Z-matrix:
 Charge =  0 Multiplicity = 1

                         Standard orientation:
 ---------------------------------------------------------------------
 Center     Atomic      Atomic             Coordinates (Angstroms)
 Number     Number       Type             X           Y           Z
 ---------------------------------------------------------------------
      1          1           0        1.568837    3.227295   -0.000000
      2          1           0        1.568837    1.755248    0.000000
      3          1           0        0.784419    1.981659   -0.000000
      4          1           0        0.784419    0.509612    0.000000
      5          1           0       -0.000000    0.736023   -0.000000
      6          1           0       -0.000000   -0.736023   -0.000000
      7          1           0       -0.784419   -0.509612    0.000000
      8          1           0       -0.784419   -1.981659   -0.000000
      9          1           0       -1.568837   -1.755248    0.000000
     10          1           0       -1.568837   -3.227295   -0.000000
 ---------------------------------------------------------------------

 SCF Done:  E(RHF) =  -4.83113260469     A.U. after   10 cycles
 E2 =    -0.3196901897D+00 EUMP2 =    -0.51508227943559D+01

 The electronic state is 1-AG.
 Alpha  occ. eigenvalues --   -0.80195  -0.72393  -0.60442  -0.45387  -0.12950
 Alpha virt. eigenvalues --   -0.02302   0.13612   0.25641   0.42896   0.59104

 Mulliken charges:
               1
     1  H   -0.174403
     2  H    0.042217
     3  H    0.074914
     4  H    0.024824
     5  H    0.032449
     6  H    0.032449
     7  H    0.024824
     8  H    0.074914
     9  H    0.042217
    10  H   -0.174403
 Sum of Mulliken charges =   0.00000

 Dipole moment (field-independent basis, Debye):
    X=             -0.0000    Y=              0.0000    Z=              0.0000  Tot=              0.0000
 Quadrupole moment (field-independent basis, Debye-Ang):
   XX=            -15.1086   YY=            -30.5330   ZZ=            -12.8462
   XY=             -9.2082   XZ=             -0.0000   YZ=              0.0000

 Normal termination of Gaussian 09 at Thu Feb  9 15:49:41 2017.
