 Gaussian 09, Revision E.01,
 Gaussian 09:  ES64L-G09RevE.01 30-Nov-2015

 ----------------------------------------------------------------------
 #rhf/gen scf(symm,tight,novaracc,noincfock,fulldiag) stable(crhf) geom
 =nocrowd test
 ----------------------------------------------------------------------

 ----------------------------------------------------------------------
 hf stability analysis of h10 triangular lattice, y= 1.4782365797854315
 ----------------------------------------------------------------------
 Symbolic Z-matrix:
 Charge =  0 Multiplicity = 1

                         Standard orientation:
 ---------------------------------------------------------------------
 Center     Atomic      Atomic             Coordinates (Angstroms)
 Number     Number       Type             X           Y           Z
 ---------------------------------------------------------------------
      1          1           0        1.510437    3.423331    0.000000
      2          1           0        1.510437    1.894369    0.000000
      3          1           0        0.755219    2.093906    0.000000
      4          1           0        0.755219    0.564944    0.000000
      5          1           0        0.000000    0.764481    0.000000
      6          1           0       -0.000000   -0.764481    0.000000
      7          1           0       -0.755219   -0.564944    0.000000
      8          1           0       -0.755219   -2.093906    0.000000
      9          1           0       -1.510437   -1.894369    0.000000
     10          1           0       -1.510437   -3.423331    0.000000
 ---------------------------------------------------------------------

 SCF Done:  E(RHF) =  -4.87183832854     A.U. after    9 cycles
 E2 =    -0.3902444776D+00 EUMP2 =    -0.52620828061707D+01

 The electronic state is 1-AG.
 Alpha  occ. eigenvalues --   -0.78484  -0.71630  -0.60924  -0.47511  -0.14312
 Alpha virt. eigenvalues --   -0.05062   0.17590   0.28838   0.45270   0.61072

 Mulliken charges:
               1
     1  H   -0.130552
     2  H    0.034180
     3  H    0.055480
     4  H    0.016685
     5  H    0.024208
     6  H    0.024208
     7  H    0.016685
     8  H    0.055480
     9  H    0.034180
    10  H   -0.130552
 Sum of Mulliken charges =   0.00000

 Dipole moment (field-independent basis, Debye):
    X=             -0.0000    Y=             -0.0000    Z=              0.0000  Tot=              0.0000
 Quadrupole moment (field-independent basis, Debye-Ang):
   XX=            -14.0957   YY=            -28.4572   ZZ=            -12.8897
   XY=             -7.3932   XZ=              0.0000   YZ=              0.0000

 Normal termination of Gaussian 09 at Thu Feb  9 15:50:56 2017.
