 Gaussian 09, Revision E.01,
 Gaussian 09:  ES64L-G09RevE.01 30-Nov-2015

 ----------------------------------------------------------------------
 #rhf/gen scf(symm,tight,novaracc,noincfock,fulldiag) stable(crhf) geom
 =nocrowd test
 ----------------------------------------------------------------------

 ----------------------------------------------------------------------
 hf stability analysis of h10 triangular lattice, y= 1.8932739204348596
 ----------------------------------------------------------------------
 Symbolic Z-matrix:
 Charge =  0 Multiplicity = 1

                         Standard orientation:
 ---------------------------------------------------------------------
 Center     Atomic      Atomic             Coordinates (Angstroms)
 Number     Number       Type             X           Y           Z
 ---------------------------------------------------------------------
      1          1           0        1.204271    4.600218    0.000000
      2          1           0        1.204271    2.682542    0.000000
      3          1           0        0.602136    2.779528    0.000000
      4          1           0        0.602136    0.861852    0.000000
      5          1           0       -0.000000    0.958838    0.000000
      6          1           0       -0.000000   -0.958838    0.000000
      7          1           0       -0.602136   -0.861852    0.000000
      8          1           0       -0.602136   -2.779528    0.000000
      9          1           0       -1.204271   -2.682542    0.000000
     10          1           0       -1.204271   -4.600218    0.000000
 ---------------------------------------------------------------------

 SCF Done:  E(RHF) =  -4.86175291260     A.U. after    7 cycles
 E2 =    -0.7520386135D+00 EUMP2 =    -0.56137915261046D+01

 The electronic state is 1-AG.
 Alpha  occ. eigenvalues --   -0.73597  -0.70445  -0.65506  -0.60100  -0.19432
 Alpha virt. eigenvalues --   -0.13747   0.37928   0.45546   0.56804   0.67688

 Mulliken charges:
               1
     1  H   -0.010613
     2  H    0.004623
     3  H    0.004268
     4  H    0.000003
     5  H    0.001719
     6  H    0.001719
     7  H    0.000003
     8  H    0.004268
     9  H    0.004623
    10  H   -0.010613
 Sum of Mulliken charges =  -0.00000

 Dipole moment (field-independent basis, Debye):
    X=              0.0000    Y=              0.0000    Z=             -0.0000  Tot=              0.0000
 Quadrupole moment (field-independent basis, Debye-Ang):
   XX=            -12.3242   YY=            -18.1918   ZZ=            -13.2095
   XY=             -1.5310   XZ=              0.0000   YZ=              0.0000

 Normal termination of Gaussian 09 at Thu Feb  9 15:56:22 2017.
