 Gaussian 09, Revision E.01,
 Gaussian 09:  ES64L-G09RevE.01 30-Nov-2015

 ----------------------------------------------------------------------
 #rhf/gen scf(symm,tight,novaracc,noincfock,fulldiag) stable(crhf) geom
 =nocrowd test
 ----------------------------------------------------------------------

 hf stability analysis of h10 triangular lattice, y= 0.9243093929564640
 8
 ----------------------------------------------------------------------
 Symbolic Z-matrix:
 Charge =  0 Multiplicity = 1

                         Standard orientation:
 ---------------------------------------------------------------------
 Center     Atomic      Atomic             Coordinates (Angstroms)
 Number     Number       Type             X           Y           Z
 ---------------------------------------------------------------------
      1          1           0        2.070143    1.389980    0.000000
      2          1           0        2.070143    0.274404   -0.000000
      3          1           0        1.035072    0.973884    0.000000
      4          1           0        1.035072   -0.141692   -0.000000
      5          1           0       -0.000000    0.557788    0.000000
      6          1           0       -0.000000   -0.557788    0.000000
      7          1           0       -1.035072    0.141692   -0.000000
      8          1           0       -1.035072   -0.973884    0.000000
      9          1           0       -2.070143   -0.274404    0.000000
     10          1           0       -2.070143   -1.389980    0.000000
 ---------------------------------------------------------------------

 SCF Done:  E(RHF) =  -4.86371295834     A.U. after   10 cycles
 E2 =    -0.1126174140D+00 EUMP2 =    -0.49763303723635D+01

 The electronic state is 1-AG.
 Alpha  occ. eigenvalues --   -0.85403  -0.74012  -0.54823  -0.37373  -0.29932
 Alpha virt. eigenvalues --   -0.01828   0.22501   0.27071   0.54027   0.71579

 Mulliken charges:
               1
     1  H   -0.095219
     2  H    0.136430
     3  H    0.088063
     4  H   -0.111822
     5  H   -0.017452
     6  H   -0.017452
     7  H   -0.111822
     8  H    0.088063
     9  H    0.136430
    10  H   -0.095219
 Sum of Mulliken charges =  -0.00000

 Dipole moment (field-independent basis, Debye):
    X=             -0.0000    Y=              0.0000    Z=             -0.0000  Tot=              0.0000
 Quadrupole moment (field-independent basis, Debye-Ang):
   XX=            -14.6821   YY=            -15.0992   ZZ=            -12.9059
   XY=             -1.7883   XZ=              0.0000   YZ=              0.0000

 Normal termination of Gaussian 09 at Thu Feb  9 15:32:29 2017.
