 Gaussian 09, Revision E.01,
 Gaussian 09:  ES64L-G09RevE.01 30-Nov-2015

 ----------------------------------------------------------------------
 #rhf/gen scf(symm,tight,novaracc,noincfock,fulldiag) stable(crhf) geom
 =nocrowd test
 ----------------------------------------------------------------------

 hf stability analysis of h10 triangular lattice, y= 0.8938933231831239
 8
 ----------------------------------------------------------------------
 Symbolic Z-matrix:
 Charge =  0 Multiplicity = 1

                         Standard orientation:
 ---------------------------------------------------------------------
 Center     Atomic      Atomic             Coordinates (Angstroms)
 Number     Number       Type             X           Y           Z
 ---------------------------------------------------------------------
      1          1           0        2.094089    1.243963    0.000000
      2          1           0        2.094089    0.141144    0.000000
      3          1           0        1.047044    0.897686    0.000000
      4          1           0        1.047044   -0.205133    0.000000
      5          1           0        0.000000    0.551410    0.000000
      6          1           0       -0.000000   -0.551410    0.000000
      7          1           0       -1.047044    0.205133   -0.000000
      8          1           0       -1.047044   -0.897686   -0.000000
      9          1           0       -2.094089   -0.141144   -0.000000
     10          1           0       -2.094089   -1.243963   -0.000000
 ---------------------------------------------------------------------

 SCF Done:  E(RHF) =  -4.85860501324     A.U. after   10 cycles
 E2 =    -0.1131765945D+00 EUMP2 =    -0.49717816076888D+01

 The electronic state is 1-AG.
 Alpha  occ. eigenvalues --   -0.85751  -0.73929  -0.54693  -0.38494  -0.29539
 Alpha virt. eigenvalues --   -0.02351   0.21986   0.29032   0.53346   0.77100

 Mulliken charges:
               1
     1  H   -0.087416
     2  H    0.125158
     3  H    0.074227
     4  H   -0.104030
     5  H   -0.007940
     6  H   -0.007940
     7  H   -0.104030
     8  H    0.074227
     9  H    0.125158
    10  H   -0.087416
 Sum of Mulliken charges =   0.00000

 Dipole moment (field-independent basis, Debye):
    X=             -0.0000    Y=             -0.0000    Z=             -0.0000  Tot=              0.0000
 Quadrupole moment (field-independent basis, Debye-Ang):
   XX=            -15.1089   YY=            -14.7237   ZZ=            -12.8745
   XY=             -1.8170   XZ=             -0.0000   YZ=             -0.0000

 Normal termination of Gaussian 09 at Thu Feb  9 15:30:56 2017.
