 Gaussian 09, Revision E.01,
 Gaussian 09:  ES64L-G09RevE.01 30-Nov-2015

 ----------------------------------------------------------------------
 #rhf/gen scf(symm,tight,novaracc,noincfock,fulldiag) stable(crhf) geom
 =nocrowd test
 ----------------------------------------------------------------------

 hf stability analysis of h10 triangular lattice, y= 0.9005060787134614
 4
 ----------------------------------------------------------------------
 Symbolic Z-matrix:
 Charge =  0 Multiplicity = 1

                         Standard orientation:
 ---------------------------------------------------------------------
 Center     Atomic      Atomic             Coordinates (Angstroms)
 Number     Number       Type             X           Y           Z
 ---------------------------------------------------------------------
      1          1           0        2.089146    1.276146   -0.000000
      2          1           0        2.089146    0.170718   -0.000000
      3          1           0        1.044573    0.914430   -0.000000
      4          1           0        1.044573   -0.190998   -0.000000
      5          1           0       -0.000000    0.552714    0.000000
      6          1           0       -0.000000   -0.552714    0.000000
      7          1           0       -1.044573    0.190998   -0.000000
      8          1           0       -1.044573   -0.914430   -0.000000
      9          1           0       -2.089146   -0.170718   -0.000000
     10          1           0       -2.089146   -1.276146   -0.000000
 ---------------------------------------------------------------------

 SCF Done:  E(RHF) =  -4.85981854065     A.U. after   10 cycles
 E2 =    -0.1130245509D+00 EUMP2 =    -0.49728430915642D+01

 The electronic state is 1-AG.
 Alpha  occ. eigenvalues --   -0.85682  -0.73950  -0.54721  -0.38265  -0.29623
 Alpha virt. eigenvalues --   -0.02247   0.22094   0.28617   0.53487   0.75913

 Mulliken charges:
               1
     1  H   -0.089634
     2  H    0.128022
     3  H    0.077558
     4  H   -0.105972
     5  H   -0.009975
     6  H   -0.009975
     7  H   -0.105972
     8  H    0.077558
     9  H    0.128022
    10  H   -0.089634
 Sum of Mulliken charges =   0.00000

 Dipole moment (field-independent basis, Debye):
    X=              0.0000    Y=              0.0000    Z=             -0.0000  Tot=              0.0000
 Quadrupole moment (field-independent basis, Debye-Ang):
   XX=            -15.0189   YY=            -14.8118   ZZ=            -12.8811
   XY=             -1.8258   XZ=             -0.0000   YZ=             -0.0000

 Normal termination of Gaussian 09 at Thu Feb  9 15:31:17 2017.
