 Gaussian 09, Revision E.01,
 Gaussian 09:  ES64L-G09RevE.01 30-Nov-2015

 ----------------------------------------------------------------------
 #rhf/gen scf(symm,tight,novaracc,noincfock,fulldiag) stable(crhf) geom
 =nocrowd test
 ----------------------------------------------------------------------

 hf stability analysis of h10 triangular lattice, y= 0.9072001620813017
 2
 ----------------------------------------------------------------------
 Symbolic Z-matrix:
 Charge =  0 Multiplicity = 1

                         Standard orientation:
 ---------------------------------------------------------------------
 Center     Atomic      Atomic             Coordinates (Angstroms)
 Number     Number       Type             X           Y           Z
 ---------------------------------------------------------------------
      1          1           0        2.083988    1.308475   -0.000000
      2          1           0        2.083988    0.200311   -0.000000
      3          1           0        1.041994    0.931279   -0.000000
      4          1           0        1.041994   -0.176886   -0.000000
      5          1           0       -0.000000    0.554082   -0.000000
      6          1           0       -0.000000   -0.554082   -0.000000
      7          1           0       -1.041994    0.176886    0.000000
      8          1           0       -1.041994   -0.931279   -0.000000
      9          1           0       -2.083988   -0.200311   -0.000000
     10          1           0       -2.083988   -1.308475   -0.000000
 ---------------------------------------------------------------------

 SCF Done:  E(RHF) =  -4.86099630752     A.U. after   10 cycles
 E2 =    -0.1128868191D+00 EUMP2 =    -0.49738831266189D+01

 The electronic state is 1-AG.
 Alpha  occ. eigenvalues --   -0.85609  -0.73969  -0.54750  -0.38025  -0.29709
 Alpha virt. eigenvalues --   -0.02136   0.22206   0.28190   0.53634   0.74701

 Mulliken charges:
               1
     1  H   -0.091580
     2  H    0.130684
     3  H    0.080745
     4  H   -0.107793
     5  H   -0.012056
     6  H   -0.012056
     7  H   -0.107793
     8  H    0.080745
     9  H    0.130684
    10  H   -0.091580
 Sum of Mulliken charges =  -0.00000

 Dipole moment (field-independent basis, Debye):
    X=             -0.0000    Y=              0.0000    Z=              0.0000  Tot=              0.0000
 Quadrupole moment (field-independent basis, Debye-Ang):
   XX=            -14.9260   YY=            -14.8978   ZZ=            -12.8880
   XY=             -1.8261   XZ=             -0.0000   YZ=             -0.0000

 Normal termination of Gaussian 09 at Thu Feb  9 15:31:38 2017.
