 Gaussian 09, Revision E.01,
 Gaussian 09:  ES64L-G09RevE.01 30-Nov-2015

 ----------------------------------------------------------------------
 #rhf/gen scf(symm,tight,novaracc,noincfock,fulldiag) stable(crhf) geom
 =nocrowd test
 ----------------------------------------------------------------------

 ----------------------------------------------------------------------
 hf stability analysis of h10 triangular lattice, y= 1.6272577898344955
 ----------------------------------------------------------------------
 Symbolic Z-matrix:
 Charge =  0 Multiplicity = 1

                         Standard orientation:
 ---------------------------------------------------------------------
 Center     Atomic      Atomic             Coordinates (Angstroms)
 Number     Number       Type             X           Y           Z
 ---------------------------------------------------------------------
      1          1           0        1.386621    3.861388   -0.000000
      2          1           0        1.386621    2.195900   -0.000000
      3          1           0        0.693311    2.347066   -0.000000
      4          1           0        0.693311    0.681578   -0.000000
      5          1           0       -0.000000    0.832744   -0.000000
      6          1           0       -0.000000   -0.832744   -0.000000
      7          1           0       -0.693311   -0.681578   -0.000000
      8          1           0       -0.693311   -2.347066   -0.000000
      9          1           0       -1.386621   -2.195900   -0.000000
     10          1           0       -1.386621   -3.861388   -0.000000
 ---------------------------------------------------------------------

 SCF Done:  E(RHF) =  -4.91974080033     A.U. after    8 cycles
 E2 =    -0.5484394952D+00 EUMP2 =    -0.54681802955199D+01

 The electronic state is 1-AG.
 Alpha  occ. eigenvalues --   -0.75633  -0.70530  -0.62308  -0.52336  -0.16951
 Alpha virt. eigenvalues --   -0.09714   0.25980   0.35636   0.50152   0.64456

 Mulliken charges:
               1
     1  H   -0.059016
     2  H    0.018165
     3  H    0.025942
     4  H    0.004883
     5  H    0.010026
     6  H    0.010026
     7  H    0.004883
     8  H    0.025942
     9  H    0.018165
    10  H   -0.059016
 Sum of Mulliken charges =  -0.00000

 Dipole moment (field-independent basis, Debye):
    X=             -0.0000    Y=             -0.0000    Z=              0.0000  Tot=              0.0000
 Quadrupole moment (field-independent basis, Debye-Ang):
   XX=            -12.7878   YY=            -23.5126   ZZ=            -13.0018
   XY=             -4.1573   XZ=              0.0000   YZ=             -0.0000

 Normal termination of Gaussian 09 at Thu Feb  9 15:53:21 2017.
