 Gaussian 09, Revision E.01,
 Gaussian 09:  ES64L-G09RevE.01 30-Nov-2015

 ----------------------------------------------------------------------
 #rhf/gen scf(symm,tight,novaracc,noincfock,fulldiag) stable(crhf) geom
 =nocrowd test
 ----------------------------------------------------------------------

 ----------------------------------------------------------------------
 hf stability analysis of h10 triangular lattice, y= 1.8330252138232914
 ----------------------------------------------------------------------
 Symbolic Z-matrix:
 Charge =  0 Multiplicity = 1

                         Standard orientation:
 ---------------------------------------------------------------------
 Center     Atomic      Atomic             Coordinates (Angstroms)
 Number     Number       Type             X           Y           Z
 ---------------------------------------------------------------------
      1          1           0        1.241688    4.436362    0.000000
      2          1           0        1.241688    2.576473    0.000000
      3          1           0        0.620844    2.683154    0.000000
      4          1           0        0.620844    0.823264    0.000000
      5          1           0        0.000000    0.929945    0.000000
      6          1           0       -0.000000   -0.929945    0.000000
      7          1           0       -0.620844   -0.823264   -0.000000
      8          1           0       -0.620844   -2.683154   -0.000000
      9          1           0       -1.241688   -2.576473   -0.000000
     10          1           0       -1.241688   -4.436362   -0.000000
 ---------------------------------------------------------------------

 SCF Done:  E(RHF) =  -4.88851739246     A.U. after    7 cycles
 E2 =    -0.7142564544D+00 EUMP2 =    -0.56027738469069D+01

 The electronic state is 1-AG.
 Alpha  occ. eigenvalues --   -0.73834  -0.70323  -0.64750  -0.58495  -0.19065
 Alpha virt. eigenvalues --   -0.13138   0.35465   0.43497   0.55462   0.67120

 Mulliken charges:
               1
     1  H   -0.016263
     2  H    0.006431
     3  H    0.006971
     4  H    0.000314
     5  H    0.002547
     6  H    0.002547
     7  H    0.000314
     8  H    0.006971
     9  H    0.006431
    10  H   -0.016263
 Sum of Mulliken charges =   0.00000

 Dipole moment (field-independent basis, Debye):
    X=             -0.0000    Y=             -0.0000    Z=              0.0000  Tot=              0.0000
 Quadrupole moment (field-independent basis, Debye-Ang):
   XX=            -12.3305   YY=            -19.0275   ZZ=            -13.1644
   XY=             -1.8960   XZ=              0.0000   YZ=             -0.0000

 Normal termination of Gaussian 09 at Thu Feb  9 15:55:47 2017.
