 Gaussian 09, Revision E.01,
 Gaussian 09:  ES64L-G09RevE.01 30-Nov-2015

 ----------------------------------------------------------------------
 #rhf/gen scf(symm,tight,novaracc,noincfock,fulldiag) stable(crhf) geom
 =nocrowd test
 ----------------------------------------------------------------------

 ----------------------------------------------------------------------
 hf stability analysis of h10 triangular lattice, y= 1.0279786700385047
 ----------------------------------------------------------------------
 Symbolic Z-matrix:
 Charge =  0 Multiplicity = 1

                         Standard orientation:
 ---------------------------------------------------------------------
 Center     Atomic      Atomic             Coordinates (Angstroms)
 Number     Number       Type             X           Y           Z
 ---------------------------------------------------------------------
      1          1           0        1.971490    1.851373   -0.000000
      2          1           0        1.971490    0.679974   -0.000000
      3          1           0        0.985745    1.218536   -0.000000
      4          1           0        0.985745    0.047137   -0.000000
      5          1           0        0.000000    0.585700   -0.000000
      6          1           0       -0.000000   -0.585700   -0.000000
      7          1           0       -0.985745   -0.047137   -0.000000
      8          1           0       -0.985745   -1.218536   -0.000000
      9          1           0       -1.971490   -0.679974   -0.000000
     10          1           0       -1.971490   -1.851373   -0.000000
 ---------------------------------------------------------------------

 SCF Done:  E(RHF) =  -4.86494218383     A.U. after   10 cycles
 E2 =    -0.1140608479D+00 EUMP2 =    -0.49790030317489D+01

 The electronic state is 1-AG.
 Alpha  occ. eigenvalues --   -0.83628  -0.73941  -0.55204  -0.32771  -0.30885
 Alpha virt. eigenvalues --    0.00602   0.20172   0.24174   0.53876   0.56815

 Mulliken charges:
               1
     1  H   -0.082403
     2  H    0.143540
     3  H    0.111104
     4  H   -0.121591
     5  H   -0.050650
     6  H   -0.050650
     7  H   -0.121591
     8  H    0.111104
     9  H    0.143540
    10  H   -0.082403
 Sum of Mulliken charges =   0.00000

 Dipole moment (field-independent basis, Debye):
    X=             -0.0000    Y=             -0.0000    Z=             -0.0000  Tot=              0.0000
 Quadrupole moment (field-independent basis, Debye-Ang):
   XX=            -13.2025   YY=            -15.3439   ZZ=            -13.0183
   XY=             -0.5227   XZ=             -0.0000   YZ=             -0.0000

 Normal termination of Gaussian 09 at Thu Feb  9 15:37:31 2017.
