 Gaussian 09, Revision E.01,
 Gaussian 09:  ES64L-G09RevE.01 30-Nov-2015

 ----------------------------------------------------------------------
 #rhf/gen scf(symm,tight,novaracc,noincfock,fulldiag) stable(crhf) geom
 =nocrowd test
 ----------------------------------------------------------------------

 ----------------------------------------------------------------------
 hf stability analysis of h10 triangular lattice, y= 1.2611797784096244
 ----------------------------------------------------------------------
 Symbolic Z-matrix:
 Charge =  0 Multiplicity = 1

                         Standard orientation:
 ---------------------------------------------------------------------
 Center     Atomic      Atomic             Coordinates (Angstroms)
 Number     Number       Type             X           Y           Z
 ---------------------------------------------------------------------
      1          1           0        1.721258    2.729448    0.000000
      2          1           0        1.721258    1.387755    0.000000
      3          1           0        0.860629    1.700148    0.000000
      4          1           0        0.860629    0.358454    0.000000
      5          1           0        0.000000    0.670847    0.000000
      6          1           0       -0.000000   -0.670847   -0.000000
      7          1           0       -0.860629   -0.358454   -0.000000
      8          1           0       -0.860629   -1.700148   -0.000000
      9          1           0       -1.721258   -1.387755   -0.000000
     10          1           0       -1.721258   -2.729448   -0.000000
 ---------------------------------------------------------------------

 SCF Done:  E(RHF) =  -4.73572691377     A.U. after   11 cycles
 E2 =    -0.1348793722D+00 EUMP2 =    -0.48706062859269D+01

 The electronic state is 1-AG.
 Alpha  occ. eigenvalues --   -0.77558  -0.71746  -0.55086  -0.34577  -0.16601
 Alpha virt. eigenvalues --    0.00722   0.15711   0.15810   0.40242   0.63974

 Mulliken charges:
               1
     1  H    0.061772
     2  H    0.031328
     3  H    0.122519
     4  H   -0.060459
     5  H   -0.155160
     6  H   -0.155160
     7  H   -0.060459
     8  H    0.122519
     9  H    0.031328
    10  H    0.061772
 Sum of Mulliken charges =   0.00000

 Dipole moment (field-independent basis, Debye):
    X=              0.0000    Y=              0.0000    Z=             -0.0000  Tot=              0.0000
 Quadrupole moment (field-independent basis, Debye-Ang):
   XX=            -11.6207   YY=             -7.0349   ZZ=            -13.1894
   XY=              5.2602   XZ=              0.0000   YZ=              0.0000

 Normal termination of Gaussian 09 at Thu Feb  9 15:45:57 2017.
