 Gaussian 09, Revision E.01,
 Gaussian 09:  ES64L-G09RevE.01 30-Nov-2015

 ----------------------------------------------------------------------
 #rhf/gen scf(symm,tight,novaracc,noincfock,fulldiag) stable(crhf) geom
 =nocrowd test
 ----------------------------------------------------------------------

 hf stability analysis of h10 triangular lattice, y= 0.8071117745454875
 5
 ----------------------------------------------------------------------
 Symbolic Z-matrix:
 Charge =  0 Multiplicity = 1

                         Standard orientation:
 ---------------------------------------------------------------------
 Center     Atomic      Atomic             Coordinates (Angstroms)
 Number     Number       Type             X           Y           Z
 ---------------------------------------------------------------------
      1          1           0        2.141343    0.798372    0.000000
      2          1           0        2.141343   -0.280110    0.000000
      3          1           0        1.070671    0.668807    0.000000
      4          1           0        1.070671   -0.409676    0.000000
      5          1           0        0.000000    0.539241    0.000000
      6          1           0       -0.000000   -0.539241   -0.000000
      7          1           0       -1.070671    0.409676    0.000000
      8          1           0       -1.070671   -0.668807    0.000000
      9          1           0       -2.141343    0.280110    0.000000
     10          1           0       -2.141343   -0.798372    0.000000
 ---------------------------------------------------------------------

 SCF Done:  E(RHF) =  -4.88002231248     A.U. after   10 cycles
 E2 =    -0.1053937459D+00 EUMP2 =    -0.49854160583800D+01

 The electronic state is 1-AG.
 Alpha  occ. eigenvalues --   -0.87599  -0.74430  -0.52706  -0.46487  -0.30835
 Alpha virt. eigenvalues --   -0.01728   0.15841   0.35832   0.51770   0.88085

 Mulliken charges:
               1
     1  H    0.077315
     2  H    0.002498
     3  H   -0.031975
     4  H   -0.034751
     5  H   -0.013088
     6  H   -0.013088
     7  H   -0.034751
     8  H   -0.031975
     9  H    0.002498
    10  H    0.077315
 Sum of Mulliken charges =  -0.00000

 Dipole moment (field-independent basis, Debye):
    X=              0.0000    Y=             -0.0000    Z=              0.0000  Tot=              0.0000
 Quadrupole moment (field-independent basis, Debye-Ang):
   XX=            -10.1761   YY=            -17.1042   ZZ=            -12.9567
   XY=              1.7681   XZ=              0.0000   YZ=              0.0000

 Normal termination of Gaussian 09 at Thu Feb  9 15:25:59 2017.
