 Gaussian 09, Revision E.01,
 Gaussian 09:  ES64L-G09RevE.01 30-Nov-2015

 ----------------------------------------------------------------------
 #rhf/gen scf(symm,tight,novaracc,noincfock,fulldiag) stable(crhf) geom
 =nocrowd test
 ----------------------------------------------------------------------

 ----------------------------------------------------------------------
 hf stability analysis of h10 triangular lattice, y= 2.2687431536655347
 ----------------------------------------------------------------------
 Symbolic Z-matrix:
 Charge =  0 Multiplicity = 1

                         Standard orientation:
 ---------------------------------------------------------------------
 Center     Atomic      Atomic             Coordinates (Angstroms)
 Number     Number       Type             X           Y           Z
 ---------------------------------------------------------------------
      1          1           0        1.011578    5.593960    0.000000
      2          1           0        1.011578    3.310990    0.000000
      3          1           0        0.505789    3.367723    0.000000
      4          1           0        0.505789    1.084752    0.000000
      5          1           0       -0.000000    1.141485    0.000000
      6          1           0       -0.000000   -1.141485    0.000000
      7          1           0       -0.505789   -1.084752    0.000000
      8          1           0       -0.505789   -3.367723    0.000000
      9          1           0       -1.011578   -3.310990    0.000000
     10          1           0       -1.011578   -5.593960    0.000000
 ---------------------------------------------------------------------

 SCF Done:  E(RHF) =  -4.57169372717     A.U. after    5 cycles
 E2 =    -0.9398287831D+00 EUMP2 =    -0.55115225102400D+01

 The electronic state is 1-AG.
 Alpha  occ. eigenvalues --   -0.73503  -0.71997  -0.69859  -0.67836  -0.20430
 Alpha virt. eigenvalues --   -0.15768   0.51370   0.56685   0.64113   0.70915

 Mulliken charges:
               1
     1  H    0.000779
     2  H    0.000257
     3  H   -0.001093
     4  H   -0.000142
     5  H    0.000200
     6  H    0.000200
     7  H   -0.000142
     8  H   -0.001093
     9  H    0.000257
    10  H    0.000779
 Sum of Mulliken charges =   0.00000

 Dipole moment (field-independent basis, Debye):
    X=             -0.0000    Y=             -0.0000    Z=              0.0000  Tot=              0.0000
 Quadrupole moment (field-independent basis, Debye-Ang):
   XX=            -12.5907   YY=            -15.3899   ZZ=            -13.4298
   XY=             -0.4679   XZ=             -0.0000   YZ=              0.0000

 Normal termination of Gaussian 09 at Thu Feb  9 15:58:57 2017.
