 Gaussian 09, Revision E.01,
 Gaussian 09:  ES64L-G09RevE.01 30-Nov-2015

 ----------------------------------------------------------------------
 #rhf/gen scf(symm,tight,novaracc,noincfock,fulldiag) stable(crhf) geom
 =nocrowd test
 ----------------------------------------------------------------------

 ----------------------------------------------------------------------
 hf stability analysis of h10 triangular lattice, y= 1.4379974234354114
 ----------------------------------------------------------------------
 Symbolic Z-matrix:
 Charge =  0 Multiplicity = 1

                         Standard orientation:
 ---------------------------------------------------------------------
 Center     Atomic      Atomic             Coordinates (Angstroms)
 Number     Number       Type             X           Y           Z
 ---------------------------------------------------------------------
      1          1           0        1.546824    3.300608   -0.000000
      2          1           0        1.546824    1.807612   -0.000000
      3          1           0        0.773412    2.023553   -0.000000
      4          1           0        0.773412    0.530557    0.000000
      5          1           0       -0.000000    0.746498   -0.000000
      6          1           0       -0.000000   -0.746498   -0.000000
      7          1           0       -0.773412   -0.530557   -0.000000
      8          1           0       -0.773412   -2.023553   -0.000000
      9          1           0       -1.546824   -1.807612   -0.000000
     10          1           0       -1.546824   -3.300608   -0.000000
 ---------------------------------------------------------------------

 SCF Done:  E(RHF) =  -4.84760783198     A.U. after    9 cycles
 E2 =    -0.3456473849D+00 EUMP2 =    -0.51932552168635D+01

 The electronic state is 1-AG.
 Alpha  occ. eigenvalues --   -0.79532  -0.72092  -0.60616  -0.46181  -0.13460
 Alpha virt. eigenvalues --   -0.03376   0.15097   0.26840   0.43791   0.59867

 Mulliken charges:
               1
     1  H   -0.157363
     2  H    0.039278
     3  H    0.067070
     4  H    0.021656
     5  H    0.029360
     6  H    0.029360
     7  H    0.021656
     8  H    0.067070
     9  H    0.039278
    10  H   -0.157363
 Sum of Mulliken charges =   0.00000

 Dipole moment (field-independent basis, Debye):
    X=              0.0000    Y=             -0.0000    Z=              0.0000  Tot=              0.0000
 Quadrupole moment (field-independent basis, Debye-Ang):
   XX=            -14.6957   YY=            -29.8081   ZZ=            -12.8619
   XY=             -8.5182   XZ=             -0.0000   YZ=             -0.0000

 Normal termination of Gaussian 09 at Thu Feb  9 15:50:10 2017.
