 Gaussian 09, Revision E.01,
 Gaussian 09:  ES64L-G09RevE.01 30-Nov-2015

 ----------------------------------------------------------------------
 #rhf/gen scf(symm,tight,novaracc,noincfock,fulldiag) stable(crhf) geom
 =nocrowd test
 ----------------------------------------------------------------------

 ----------------------------------------------------------------------
 hf stability analysis of h10 triangular lattice, y= 1.4331745471992983
 ----------------------------------------------------------------------
 Symbolic Z-matrix:
 Charge =  0 Multiplicity = 1

                         Standard orientation:
 ---------------------------------------------------------------------
 Center     Atomic      Atomic             Coordinates (Angstroms)
 Number     Number       Type             X           Y           Z
 ---------------------------------------------------------------------
      1          1           0        1.551271    3.285747    0.000000
      2          1           0        1.551271    1.797031    0.000000
      3          1           0        0.775635    2.015053    0.000000
      4          1           0        0.775635    0.526337    0.000000
      5          1           0        0.000000    0.744358    0.000000
      6          1           0       -0.000000   -0.744358   -0.000000
      7          1           0       -0.775635   -0.526337   -0.000000
      8          1           0       -0.775635   -2.015053   -0.000000
      9          1           0       -1.551271   -1.797031   -0.000000
     10          1           0       -1.551271   -3.285747   -0.000000
 ---------------------------------------------------------------------

 SCF Done:  E(RHF) =  -4.84438352984     A.U. after    9 cycles
 E2 =    -0.3403375022D+00 EUMP2 =    -0.51847210320267D+01

 The electronic state is 1-AG.
 Alpha  occ. eigenvalues --   -0.79664  -0.72152  -0.60580  -0.46020  -0.13356
 Alpha virt. eigenvalues --   -0.03162   0.14795   0.26597   0.43610   0.59715

 Mulliken charges:
               1
     1  H   -0.160766
     2  H    0.039885
     3  H    0.068599
     4  H    0.022291
     5  H    0.029991
     6  H    0.029991
     7  H    0.022291
     8  H    0.068599
     9  H    0.039885
    10  H   -0.160766
 Sum of Mulliken charges =   0.00000

 Dipole moment (field-independent basis, Debye):
    X=              0.0000    Y=              0.0000    Z=              0.0000  Tot=              0.0000
 Quadrupole moment (field-independent basis, Debye-Ang):
   XX=            -14.7762   YY=            -29.9613   ZZ=            -12.8586
   XY=             -8.6577   XZ=             -0.0000   YZ=             -0.0000

 Normal termination of Gaussian 09 at Thu Feb  9 15:50:04 2017.
