 Gaussian 09, Revision E.01,
 Gaussian 09:  ES64L-G09RevE.01 30-Nov-2015

 ----------------------------------------------------------------------
 #rhf/gen scf(symm,tight,novaracc,noincfock,fulldiag) stable(crhf) geom
 =nocrowd test
 ----------------------------------------------------------------------

 ----------------------------------------------------------------------
 hf stability analysis of h10 triangular lattice, y= 2.0801539182411148
 ----------------------------------------------------------------------
 Symbolic Z-matrix:
 Charge =  0 Multiplicity = 1

                         Standard orientation:
 ---------------------------------------------------------------------
 Center     Atomic      Atomic             Coordinates (Angstroms)
 Number     Number       Type             X           Y           Z
 ---------------------------------------------------------------------
      1          1           0        1.100455    5.099640   -0.000000
      2          1           0        1.100455    3.001051   -0.000000
      3          1           0        0.550227    3.074467   -0.000000
      4          1           0        0.550227    0.975878   -0.000000
      5          1           0       -0.000000    1.049294   -0.000000
      6          1           0       -0.000000   -1.049294   -0.000000
      7          1           0       -0.550227   -0.975878   -0.000000
      8          1           0       -0.550227   -3.074467   -0.000000
      9          1           0       -1.100455   -3.001051   -0.000000
     10          1           0       -1.100455   -5.099640   -0.000000
 ---------------------------------------------------------------------

 SCF Done:  E(RHF) =  -4.73993379703     A.U. after    6 cycles
 E2 =    -0.8520520019D+00 EUMP2 =    -0.55919857988780D+01

 The electronic state is 1-AG.
 Alpha  occ. eigenvalues --   -0.73325  -0.71103  -0.67782  -0.64415  -0.20129
 Alpha virt. eigenvalues --   -0.15025   0.44974   0.51393   0.60611   0.69285

 Mulliken charges:
               1
     1  H   -0.001843
     2  H    0.001468
     3  H    0.000035
     4  H   -0.000210
     5  H    0.000550
     6  H    0.000550
     7  H   -0.000210
     8  H    0.000035
     9  H    0.001468
    10  H   -0.001843
 Sum of Mulliken charges =  -0.00000

 Dipole moment (field-independent basis, Debye):
    X=             -0.0000    Y=              0.0000    Z=              0.0000  Tot=              0.0000
 Quadrupole moment (field-independent basis, Debye-Ang):
   XX=            -12.4283   YY=            -16.4220   ZZ=            -13.3335
   XY=             -0.8255   XZ=              0.0000   YZ=              0.0000

 Normal termination of Gaussian 09 at Thu Feb  9 15:57:49 2017.
