 Gaussian 09, Revision E.01,
 Gaussian 09:  ES64L-G09RevE.01 30-Nov-2015

 ----------------------------------------------------------------------
 #rhf/gen scf(symm,tight,novaracc,noincfock,fulldiag) stable(crhf) geom
 =nocrowd test
 ----------------------------------------------------------------------

 ----------------------------------------------------------------------
 hf stability analysis of h10 triangular lattice, y= 1.3594031889372702
 ----------------------------------------------------------------------
 Symbolic Z-matrix:
 Charge =  0 Multiplicity = 1

                         Standard orientation:
 ---------------------------------------------------------------------
 Center     Atomic      Atomic             Coordinates (Angstroms)
 Number     Number       Type             X           Y           Z
 ---------------------------------------------------------------------
      1          1           0        1.621539    3.053902    0.000000
      2          1           0        1.621539    1.629699    0.000000
      3          1           0        0.810770    1.883002    0.000000
      4          1           0        0.810770    0.458799    0.000000
      5          1           0        0.000000    0.712102    0.000000
      6          1           0       -0.000000   -0.712102    0.000000
      7          1           0       -0.810770   -0.458799   -0.000000
      8          1           0       -0.810770   -1.883002   -0.000000
      9          1           0       -1.621539   -1.629699   -0.000000
     10          1           0       -1.621539   -3.053902   -0.000000
 ---------------------------------------------------------------------

 SCF Done:  E(RHF) =  -4.78719054829     A.U. after   11 cycles
 E2 =    -0.2609994754D+00 EUMP2 =    -0.50481900236574D+01

 The electronic state is 1-AG.
 Alpha  occ. eigenvalues --   -0.81813  -0.73152  -0.60038  -0.43487  -0.11832
 Alpha virt. eigenvalues --    0.00287   0.10332   0.22839   0.40790   0.57222

 Mulliken charges:
               1
     1  H   -0.215621
     2  H    0.047910
     3  H    0.096919
     4  H    0.031900
     5  H    0.038891
     6  H    0.038891
     7  H    0.031900
     8  H    0.096919
     9  H    0.047910
    10  H   -0.215621
 Sum of Mulliken charges =   0.00000

 Dipole moment (field-independent basis, Debye):
    X=              0.0000    Y=             -0.0000    Z=              0.0000  Tot=              0.0000
 Quadrupole moment (field-independent basis, Debye-Ang):
   XX=            -16.2356   YY=            -31.7885   ZZ=            -12.8133
   XY=            -10.7714   XZ=             -0.0000   YZ=             -0.0000

 Normal termination of Gaussian 09 at Thu Feb  9 15:48:29 2017.
