 Gaussian 09, Revision E.01,
 Gaussian 09:  ES64L-G09RevE.01 30-Nov-2015

 ----------------------------------------------------------------------
 #rhf/gen scf(symm,tight,novaracc,noincfock,fulldiag) stable(crhf) geom
 =nocrowd test
 ----------------------------------------------------------------------

 ----------------------------------------------------------------------
 hf stability analysis of h10 triangular lattice, y= 1.4808545702551064
 ----------------------------------------------------------------------
 Symbolic Z-matrix:
 Charge =  0 Multiplicity = 1

                         Standard orientation:
 ---------------------------------------------------------------------
 Center     Atomic      Atomic             Coordinates (Angstroms)
 Number     Number       Type             X           Y           Z
 ---------------------------------------------------------------------
      1          1           0        1.508114    3.431241    0.000000
      2          1           0        1.508114    1.899923    0.000000
      3          1           0        0.754057    2.098450    0.000000
      4          1           0        0.754057    0.567132    0.000000
      5          1           0       -0.000000    0.765659    0.000000
      6          1           0       -0.000000   -0.765659   -0.000000
      7          1           0       -0.754057   -0.567132    0.000000
      8          1           0       -0.754057   -2.098450    0.000000
      9          1           0       -1.508114   -1.899923    0.000000
     10          1           0       -1.508114   -3.431241    0.000000
 ---------------------------------------------------------------------

 SCF Done:  E(RHF) =  -4.87324752851     A.U. after    9 cycles
 E2 =    -0.3931536816D+00 EUMP2 =    -0.52664012101237D+01

 The electronic state is 1-AG.
 Alpha  occ. eigenvalues --   -0.78420  -0.71602  -0.60945  -0.47597  -0.14366
 Alpha virt. eigenvalues --   -0.05165   0.17750   0.28966   0.45365   0.61146

 Mulliken charges:
               1
     1  H   -0.128914
     2  H    0.033852
     3  H    0.054792
     4  H    0.016385
     5  H    0.023885
     6  H    0.023885
     7  H    0.016385
     8  H    0.054792
     9  H    0.033852
    10  H   -0.128914
 Sum of Mulliken charges =   0.00000

 Dipole moment (field-independent basis, Debye):
    X=              0.0000    Y=              0.0000    Z=             -0.0000  Tot=              0.0000
 Quadrupole moment (field-independent basis, Debye-Ang):
   XX=            -14.0609   YY=            -28.3664   ZZ=            -12.8916
   XY=             -7.3230   XZ=              0.0000   YZ=              0.0000

 Normal termination of Gaussian 09 at Thu Feb  9 15:50:59 2017.
