 Gaussian 09, Revision E.01,
 Gaussian 09:  ES64L-G09RevE.01 30-Nov-2015

 ----------------------------------------------------------------------
 #rhf/gen scf(symm,tight,novaracc,noincfock,fulldiag) stable(crhf) geom
 =nocrowd test
 ----------------------------------------------------------------------

 ----------------------------------------------------------------------
 hf stability analysis of h10 triangular lattice, y= 1.4166328304064160
 ----------------------------------------------------------------------
 Symbolic Z-matrix:
 Charge =  0 Multiplicity = 1

                         Standard orientation:
 ---------------------------------------------------------------------
 Center     Atomic      Atomic             Coordinates (Angstroms)
 Number     Number       Type             X           Y           Z
 ---------------------------------------------------------------------
      1          1           0        1.566661    3.234517   -0.000000
      2          1           0        1.566661    1.760425   -0.000000
      3          1           0        0.783330    1.985781   -0.000000
      4          1           0        0.783330    0.511690   -0.000000
      5          1           0        0.000000    0.737046   -0.000000
      6          1           0       -0.000000   -0.737046   -0.000000
      7          1           0       -0.783330   -0.511690   -0.000000
      8          1           0       -0.783330   -1.985781   -0.000000
      9          1           0       -1.566661   -1.760425   -0.000000
     10          1           0       -1.566661   -3.234517   -0.000000
 ---------------------------------------------------------------------

 SCF Done:  E(RHF) =  -4.83281751347     A.U. after   10 cycles
 E2 =    -0.3222195868D+00 EUMP2 =    -0.51550371002892D+01

 The electronic state is 1-AG.
 Alpha  occ. eigenvalues --   -0.80129  -0.72363  -0.60459  -0.45466  -0.13000
 Alpha virt. eigenvalues --   -0.02409   0.13757   0.25759   0.42985   0.59180

 Mulliken charges:
               1
     1  H   -0.172699
     2  H    0.041935
     3  H    0.074107
     4  H    0.024509
     5  H    0.032148
     6  H    0.032148
     7  H    0.024509
     8  H    0.074107
     9  H    0.041935
    10  H   -0.172699
 Sum of Mulliken charges =   0.00000

 Dipole moment (field-independent basis, Debye):
    X=              0.0000    Y=              0.0000    Z=              0.0000  Tot=              0.0000
 Quadrupole moment (field-independent basis, Debye-Ang):
   XX=            -15.0662   YY=            -30.4653   ZZ=            -12.8477
   XY=             -9.1402   XZ=             -0.0000   YZ=             -0.0000

 Normal termination of Gaussian 09 at Thu Feb  9 15:49:44 2017.
