 Gaussian 09, Revision E.01,
 Gaussian 09:  ES64L-G09RevE.01 30-Nov-2015

 ----------------------------------------------------------------------
 #rhf/gen scf(symm,tight,novaracc,noincfock,fulldiag) stable(crhf) geom
 =nocrowd test
 ----------------------------------------------------------------------

 ----------------------------------------------------------------------
 hf stability analysis of h10 triangular lattice, y= 1.2822063159356787
 ----------------------------------------------------------------------
 Symbolic Z-matrix:
 Charge =  0 Multiplicity = 1

                         Standard orientation:
 ---------------------------------------------------------------------
 Center     Atomic      Atomic             Coordinates (Angstroms)
 Number     Number       Type             X           Y           Z
 ---------------------------------------------------------------------
      1          1           0        1.699374    2.800651    0.000000
      2          1           0        1.699374    1.441680    0.000000
      3          1           0        0.849687    1.740069    0.000000
      4          1           0        0.849687    0.381097    0.000000
      5          1           0        0.000000    0.679486    0.000000
      6          1           0       -0.000000   -0.679486    0.000000
      7          1           0       -0.849687   -0.381097    0.000000
      8          1           0       -0.849687   -1.740069    0.000000
      9          1           0       -1.699374   -1.441680    0.000000
     10          1           0       -1.699374   -2.800651    0.000000
 ---------------------------------------------------------------------

 SCF Done:  E(RHF) =  -4.71729395500     A.U. after   12 cycles
 E2 =    -0.1846723634D+00 EUMP2 =    -0.49019663183851D+01

 The electronic state is 1-AG.
 Alpha  occ. eigenvalues --   -0.83847  -0.74145  -0.59285  -0.40470  -0.11092
 Alpha virt. eigenvalues --    0.01412   0.09373   0.19151   0.38021   0.54674

 Mulliken charges:
               1
     1  H   -0.258886
     2  H    0.046467
     3  H    0.138131
     4  H    0.030943
     5  H    0.043345
     6  H    0.043345
     7  H    0.030943
     8  H    0.138131
     9  H    0.046467
    10  H   -0.258886
 Sum of Mulliken charges =  -0.00000

 Dipole moment (field-independent basis, Debye):
    X=             -0.0000    Y=             -0.0000    Z=              0.0000  Tot=              0.0000
 Quadrupole moment (field-independent basis, Debye-Ang):
   XX=            -18.0288   YY=            -31.2007   ZZ=            -12.7874
   XY=            -11.9470   XZ=              0.0000   YZ=              0.0000

 Normal termination of Gaussian 09 at Thu Feb  9 15:46:32 2017.
