 Gaussian 09, Revision E.01,
 Gaussian 09:  ES64L-G09RevE.01 30-Nov-2015

 ----------------------------------------------------------------------
 #rhf/gen scf(symm,tight,novaracc,noincfock,fulldiag) stable(crhf) geom
 =nocrowd test
 ----------------------------------------------------------------------

 ----------------------------------------------------------------------
 hf stability analysis of h10 triangular lattice, y= 1.9367771983277440
 ----------------------------------------------------------------------
 Symbolic Z-matrix:
 Charge =  0 Multiplicity = 1

                         Standard orientation:
 ---------------------------------------------------------------------
 Center     Atomic      Atomic             Coordinates (Angstroms)
 Number     Number       Type             X           Y           Z
 ---------------------------------------------------------------------
      1          1           0        1.178516    4.717568    0.000000
      2          1           0        1.178516    2.757985    0.000000
      3          1           0        0.589258    2.848680    0.000000
      4          1           0        0.589258    0.889096    0.000000
      5          1           0       -0.000000    0.979792    0.000000
      6          1           0       -0.000000   -0.979792    0.000000
      7          1           0       -0.589258   -0.889096    0.000000
      8          1           0       -0.589258   -2.848680    0.000000
      9          1           0       -1.178516   -2.757985    0.000000
     10          1           0       -1.178516   -4.717568    0.000000
 ---------------------------------------------------------------------

 SCF Done:  E(RHF) =  -4.83829326640     A.U. after    6 cycles
 E2 =    -0.7772639461D+00 EUMP2 =    -0.56155572125141D+01

 The electronic state is 1-AG.
 Alpha  occ. eigenvalues --   -0.73478  -0.70566  -0.66049  -0.61194  -0.19646
 Alpha virt. eigenvalues --   -0.14116   0.39642   0.46971   0.57732   0.68073

 Mulliken charges:
               1
     1  H   -0.007614
     2  H    0.003609
     3  H    0.002816
     4  H   -0.000115
     5  H    0.001304
     6  H    0.001304
     7  H   -0.000115
     8  H    0.002816
     9  H    0.003609
    10  H   -0.007614
 Sum of Mulliken charges =   0.00000

 Dipole moment (field-independent basis, Debye):
    X=              0.0000    Y=              0.0000    Z=             -0.0000  Tot=              0.0000
 Quadrupole moment (field-independent basis, Debye-Ang):
   XX=            -12.3361   YY=            -17.6831   ZZ=            -13.2407
   XY=             -1.3182   XZ=              0.0000   YZ=              0.0000

 Normal termination of Gaussian 09 at Thu Feb  9 15:56:45 2017.
