 Gaussian 09, Revision E.01,
 Gaussian 09:  ES64L-G09RevE.01 30-Nov-2015

 ----------------------------------------------------------------------
 #rhf/gen scf(symm,tight,novaracc,noincfock,fulldiag) stable(crhf) geom
 =nocrowd test
 ----------------------------------------------------------------------

 ----------------------------------------------------------------------
 hf stability analysis of h10 triangular lattice, y= 1.1051669723072235
 ----------------------------------------------------------------------
 Symbolic Z-matrix:
 Charge =  0 Multiplicity = 1

                         Standard orientation:
 ---------------------------------------------------------------------
 Center     Atomic      Atomic             Coordinates (Angstroms)
 Number     Number       Type             X           Y           Z
 ---------------------------------------------------------------------
      1          1           0        1.889207    2.163021    0.000000
      2          1           0        1.889207    0.940603    0.000000
      3          1           0        0.944604    1.387115    0.000000
      4          1           0        0.944604    0.164697    0.000000
      5          1           0        0.000000    0.611209    0.000000
      6          1           0       -0.000000   -0.611209   -0.000000
      7          1           0       -0.944604   -0.164697   -0.000000
      8          1           0       -0.944604   -1.387115   -0.000000
      9          1           0       -1.889207   -0.940603   -0.000000
     10          1           0       -1.889207   -2.163021   -0.000000
 ---------------------------------------------------------------------

 SCF Done:  E(RHF) =  -4.84257701137     A.U. after   10 cycles
 E2 =    -0.1185352128D+00 EUMP2 =    -0.49611122241600D+01

 The electronic state is 1-AG.
 Alpha  occ. eigenvalues --   -0.81830  -0.73491  -0.55330  -0.32659  -0.27311
 Alpha virt. eigenvalues --    0.02429   0.15982   0.24185   0.44366   0.59162

 Mulliken charges:
               1
     1  H   -0.045300
     2  H    0.125678
     3  H    0.113002
     4  H   -0.117613
     5  H   -0.075767
     6  H   -0.075767
     7  H   -0.117613
     8  H    0.113002
     9  H    0.125678
    10  H   -0.045300
 Sum of Mulliken charges =  -0.00000

 Dipole moment (field-independent basis, Debye):
    X=             -0.0000    Y=              0.0000    Z=             -0.0000  Tot=              0.0000
 Quadrupole moment (field-independent basis, Debye-Ang):
   XX=            -12.3153   YY=            -14.0121   ZZ=            -13.0944
   XY=              1.2373   XZ=              0.0000   YZ=             -0.0000

 Normal termination of Gaussian 09 at Thu Feb  9 15:40:44 2017.
