 Gaussian 09, Revision E.01,
 Gaussian 09:  ES64L-G09RevE.01 30-Nov-2015

 ----------------------------------------------------------------------
 #rhf/gen scf(symm,tight,novaracc,noincfock,fulldiag) stable(crhf) geom
 =nocrowd test
 ----------------------------------------------------------------------

 ----------------------------------------------------------------------
 hf stability analysis of h10 triangular lattice, y= 1.0892061735297434
 ----------------------------------------------------------------------
 Symbolic Z-matrix:
 Charge =  0 Multiplicity = 1

                         Standard orientation:
 ---------------------------------------------------------------------
 Center     Atomic      Atomic             Coordinates (Angstroms)
 Number     Number       Type             X           Y           Z
 ---------------------------------------------------------------------
      1          1           0        1.906488    2.100547    0.000000
      2          1           0        1.906488    0.889209    0.000000
      3          1           0        0.953244    1.353108    0.000000
      4          1           0        0.953244    0.141770    0.000000
      5          1           0        0.000000    0.605669    0.000000
      6          1           0       -0.000000   -0.605669   -0.000000
      7          1           0       -0.953244   -0.141770   -0.000000
      8          1           0       -0.953244   -1.353108   -0.000000
      9          1           0       -1.906488   -0.889209   -0.000000
     10          1           0       -1.906488   -2.100547   -0.000000
 ---------------------------------------------------------------------

 SCF Done:  E(RHF) =  -4.84899556163     A.U. after   10 cycles
 E2 =    -0.1174005864D+00 EUMP2 =    -0.49663961480549D+01

 The electronic state is 1-AG.
 Alpha  occ. eigenvalues --   -0.82227  -0.73610  -0.55318  -0.32500  -0.28286
 Alpha virt. eigenvalues --    0.02109   0.16711   0.24372   0.45953   0.58666

 Mulliken charges:
               1
     1  H   -0.054311
     2  H    0.130644
     3  H    0.113197
     4  H   -0.119094
     5  H   -0.070436
     6  H   -0.070436
     7  H   -0.119094
     8  H    0.113197
     9  H    0.130644
    10  H   -0.054311
 Sum of Mulliken charges =  -0.00000

 Dipole moment (field-independent basis, Debye):
    X=             -0.0000    Y=              0.0000    Z=              0.0000  Tot=              0.0000
 Quadrupole moment (field-independent basis, Debye-Ang):
   XX=            -12.4766   YY=            -14.4070   ZZ=            -13.0796
   XY=              0.8359   XZ=              0.0000   YZ=             -0.0000

 Normal termination of Gaussian 09 at Thu Feb  9 15:40:06 2017.
