 Gaussian 09, Revision E.01,
 Gaussian 09:  ES64L-G09RevE.01 30-Nov-2015

 ----------------------------------------------------------------------
 #rhf/gen scf(symm,tight,novaracc,noincfock,fulldiag) stable(crhf) geom
 =nocrowd test
 ----------------------------------------------------------------------

 hf stability analysis of h10 triangular lattice, y= 0.7766002745861101
 4
 ----------------------------------------------------------------------
 Symbolic Z-matrix:
 Charge =  0 Multiplicity = 1

                         Standard orientation:
 ---------------------------------------------------------------------
 Center     Atomic      Atomic             Coordinates (Angstroms)
 Number     Number       Type             X           Y           Z
 ---------------------------------------------------------------------
      1          1           0        2.148117    0.631330   -0.000000
      2          1           0        2.148117   -0.443752   -0.000000
      3          1           0        1.074058    0.584435   -0.000000
      4          1           0        1.074058   -0.490646   -0.000000
      5          1           0        0.000000    0.537541    0.000000
      6          1           0       -0.000000   -0.537541    0.000000
      7          1           0       -1.074058    0.490646    0.000000
      8          1           0       -1.074058   -0.584435    0.000000
      9          1           0       -2.148117    0.443752    0.000000
     10          1           0       -2.148117   -0.631330    0.000000
 ---------------------------------------------------------------------

 SCF Done:  E(RHF) =  -4.88580042886     A.U. after   10 cycles
 E2 =    -0.1050242750D+00 EUMP2 =    -0.49908247038418D+01

 The electronic state is 1-AG.
 Alpha  occ. eigenvalues --   -0.87748  -0.74518  -0.52647  -0.46825  -0.31173
 Alpha virt. eigenvalues --   -0.01351   0.15393   0.36699   0.51348   0.90068

 Mulliken charges:
               1
     1  H    0.054043
     2  H    0.026776
     3  H   -0.033006
     4  H   -0.033767
     5  H   -0.014046
     6  H   -0.014046
     7  H   -0.033767
     8  H   -0.033006
     9  H    0.026776
    10  H    0.054043
 Sum of Mulliken charges =   0.00000

 Dipole moment (field-independent basis, Debye):
    X=             -0.0000    Y=             -0.0000    Z=              0.0000  Tot=              0.0000
 Quadrupole moment (field-independent basis, Debye-Ang):
   XX=            -10.0787   YY=            -17.3689   ZZ=            -12.9547
   XY=              0.6438   XZ=             -0.0000   YZ=             -0.0000

 Normal termination of Gaussian 09 at Thu Feb  9 15:24:04 2017.
