 Gaussian 09, Revision E.01,
 Gaussian 09:  ES64L-G09RevE.01 30-Nov-2015

 ----------------------------------------------------------------------
 #rhf/gen scf(symm,tight,novaracc,noincfock,fulldiag) stable(crhf) geom
 =nocrowd test
 ----------------------------------------------------------------------

 ----------------------------------------------------------------------
 hf stability analysis of h10 triangular lattice, y= 1.8880331310693452
 ----------------------------------------------------------------------
 Symbolic Z-matrix:
 Charge =  0 Multiplicity = 1

                         Standard orientation:
 ---------------------------------------------------------------------
 Center     Atomic      Atomic             Coordinates (Angstroms)
 Number     Number       Type             X           Y           Z
 ---------------------------------------------------------------------
      1          1           0        1.207444    4.586029   -0.000000
      2          1           0        1.207444    2.673392   -0.000000
      3          1           0        0.603722    2.771174   -0.000000
      4          1           0        0.603722    0.858537   -0.000000
      5          1           0        0.000000    0.956318   -0.000000
      6          1           0       -0.000000   -0.956318   -0.000000
      7          1           0       -0.603722   -0.858537   -0.000000
      8          1           0       -0.603722   -2.771174   -0.000000
      9          1           0       -1.207444   -2.673392   -0.000000
     10          1           0       -1.207444   -4.586029   -0.000000
 ---------------------------------------------------------------------

 SCF Done:  E(RHF) =  -4.86435303637     A.U. after    7 cycles
 E2 =    -0.7488929648D+00 EUMP2 =    -0.56132460011880D+01

 The electronic state is 1-AG.
 Alpha  occ. eigenvalues --   -0.73614  -0.70432  -0.65440  -0.59964  -0.19403
 Alpha virt. eigenvalues --   -0.13699   0.37718   0.45372   0.56690   0.67640

 Mulliken charges:
               1
     1  H   -0.011029
     2  H    0.004760
     3  H    0.004469
     4  H    0.000022
     5  H    0.001778
     6  H    0.001778
     7  H    0.000022
     8  H    0.004469
     9  H    0.004760
    10  H   -0.011029
 Sum of Mulliken charges =   0.00000

 Dipole moment (field-independent basis, Debye):
    X=             -0.0000    Y=              0.0000    Z=              0.0000  Tot=              0.0000
 Quadrupole moment (field-independent basis, Debye-Ang):
   XX=            -12.3236   YY=            -18.2581   ZZ=            -13.2057
   XY=             -1.5592   XZ=             -0.0000   YZ=             -0.0000

 Normal termination of Gaussian 09 at Thu Feb  9 15:56:19 2017.
