 Gaussian 09, Revision E.01,
 Gaussian 09:  ES64L-G09RevE.01 30-Nov-2015

 ----------------------------------------------------------------------
 #rhf/gen scf(symm,tight,novaracc,noincfock,fulldiag) stable(crhf) geom
 =nocrowd test
 ----------------------------------------------------------------------

 hf stability analysis of h10 triangular lattice, y= 0.8481530305026630
 0
 ----------------------------------------------------------------------
 Symbolic Z-matrix:
 Charge =  0 Multiplicity = 1

                         Standard orientation:
 ---------------------------------------------------------------------
 Center     Atomic      Atomic             Coordinates (Angstroms)
 Number     Number       Type             X           Y           Z
 ---------------------------------------------------------------------
      1          1           0        2.123516    1.014540   -0.000000
      2          1           0        2.123516   -0.072996   -0.000000
      3          1           0        1.061758    0.779154   -0.000000
      4          1           0        1.061758   -0.308382   -0.000000
      5          1           0        0.000000    0.543768   -0.000000
      6          1           0       -0.000000   -0.543768   -0.000000
      7          1           0       -1.061758    0.308382   -0.000000
      8          1           0       -1.061758   -0.779154   -0.000000
      9          1           0       -2.123516    0.072996   -0.000000
     10          1           0       -2.123516   -1.014540   -0.000000
 ---------------------------------------------------------------------

 SCF Done:  E(RHF) =  -4.84962947293     A.U. after   10 cycles
 E2 =    -0.1145289865D+00 EUMP2 =    -0.49641584594028D+01

 The electronic state is 1-AG.
 Alpha  occ. eigenvalues --   -0.86121  -0.73757  -0.54514  -0.39815  -0.29004
 Alpha virt. eigenvalues --   -0.02922   0.21320   0.31622   0.52496   0.84746

 Mulliken charges:
               1
     1  H   -0.063841
     2  H    0.098710
     3  H    0.046194
     4  H   -0.086187
     5  H    0.005124
     6  H    0.005124
     7  H   -0.086187
     8  H    0.046194
     9  H    0.098710
    10  H   -0.063841
 Sum of Mulliken charges =  -0.00000

 Dipole moment (field-independent basis, Debye):
    X=             -0.0000    Y=              0.0000    Z=             -0.0000  Tot=              0.0000
 Quadrupole moment (field-independent basis, Debye-Ang):
   XX=            -15.6620   YY=            -14.0816   ZZ=            -12.8331
   XY=             -1.5242   XZ=              0.0000   YZ=              0.0000

 Normal termination of Gaussian 09 at Thu Feb  9 15:28:24 2017.
