 Gaussian 09, Revision E.01,
 Gaussian 09:  ES64L-G09RevE.01 30-Nov-2015

 ----------------------------------------------------------------------
 #rhf/gen scf(symm,tight,novaracc,noincfock,fulldiag) stable(crhf) geom
 =nocrowd test
 ----------------------------------------------------------------------

 ----------------------------------------------------------------------
 hf stability analysis of h10 triangular lattice, y= 1.1648428058761942
 ----------------------------------------------------------------------
 Symbolic Z-matrix:
 Charge =  0 Multiplicity = 1

                         Standard orientation:
 ---------------------------------------------------------------------
 Center     Atomic      Atomic             Coordinates (Angstroms)
 Number     Number       Type             X           Y           Z
 ---------------------------------------------------------------------
      1          1           0        1.824303    2.388521    0.000000
      2          1           0        1.824303    1.122612    0.000000
      3          1           0        0.912152    1.510737    0.000000
      4          1           0        0.912152    0.244829    0.000000
      5          1           0       -0.000000    0.632954    0.000000
      6          1           0       -0.000000   -0.632954   -0.000000
      7          1           0       -0.912152   -0.244829    0.000000
      8          1           0       -0.912152   -1.510737    0.000000
      9          1           0       -1.824303   -1.122612    0.000000
     10          1           0       -1.824303   -2.388521    0.000000
 ---------------------------------------------------------------------

 SCF Done:  E(RHF) =  -4.81046834047     A.U. after   10 cycles
 E2 =    -0.1236101635D+00 EUMP2 =    -0.49340785040161D+01

 The electronic state is 1-AG.
 Alpha  occ. eigenvalues --   -0.80255  -0.72937  -0.55308  -0.33325  -0.23404
 Alpha virt. eigenvalues --    0.02950   0.14286   0.22175   0.40574   0.61036

 Mulliken charges:
               1
     1  H   -0.007169
     2  H    0.101559
     3  H    0.111420
     4  H   -0.108320
     5  H   -0.097490
     6  H   -0.097490
     7  H   -0.108320
     8  H    0.111420
     9  H    0.101559
    10  H   -0.007169
 Sum of Mulliken charges =  -0.00000

 Dipole moment (field-independent basis, Debye):
    X=              0.0000    Y=              0.0000    Z=              0.0000  Tot=              0.0000
 Quadrupole moment (field-independent basis, Debye-Ang):
   XX=            -11.8287   YY=            -11.9716   ZZ=            -13.1439
   XY=              2.8399   XZ=             -0.0000   YZ=             -0.0000

 Normal termination of Gaussian 09 at Thu Feb  9 15:42:57 2017.
