 Gaussian 09, Revision E.01,
 Gaussian 09:  ES64L-G09RevE.01 30-Nov-2015

 ----------------------------------------------------------------------
 #rhf/gen scf(symm,tight,novaracc,noincfock,fulldiag) stable(crhf) geom
 =nocrowd test
 ----------------------------------------------------------------------

 hf stability analysis of h10 triangular lattice, y= 0.9182585968246566
 0
 ----------------------------------------------------------------------
 Symbolic Z-matrix:
 Charge =  0 Multiplicity = 1

                         Standard orientation:
 ---------------------------------------------------------------------
 Center     Atomic      Atomic             Coordinates (Angstroms)
 Number     Number       Type             X           Y           Z
 ---------------------------------------------------------------------
      1          1           0        2.075143    1.361339   -0.000000
      2          1           0        2.075143    0.248451   -0.000000
      3          1           0        1.037572    0.958891   -0.000000
      4          1           0        1.037572   -0.153996   -0.000000
      5          1           0       -0.000000    0.556444   -0.000000
      6          1           0       -0.000000   -0.556444   -0.000000
      7          1           0       -1.037572    0.153996   -0.000000
      8          1           0       -1.037572   -0.958891   -0.000000
      9          1           0       -2.075143   -0.248451   -0.000000
     10          1           0       -2.075143   -1.361339   -0.000000
 ---------------------------------------------------------------------

 SCF Done:  E(RHF) =  -4.86280613318     A.U. after   10 cycles
 E2 =    -0.1126983807D+00 EUMP2 =    -0.49755045138955D+01

 The electronic state is 1-AG.
 Alpha  occ. eigenvalues --   -0.85479  -0.73998  -0.54797  -0.37610  -0.29853
 Alpha virt. eigenvalues --   -0.01941   0.22395   0.27471   0.53886   0.72685

 Mulliken charges:
               1
     1  H   -0.094147
     2  H    0.134568
     3  H    0.085609
     4  H   -0.110496
     5  H   -0.015534
     6  H   -0.015534
     7  H   -0.110496
     8  H    0.085609
     9  H    0.134568
    10  H   -0.094147
 Sum of Mulliken charges =   0.00000

 Dipole moment (field-independent basis, Debye):
    X=             -0.0000    Y=              0.0000    Z=             -0.0000  Tot=              0.0000
 Quadrupole moment (field-independent basis, Debye-Ang):
   XX=            -14.7692   YY=            -15.0314   ZZ=            -12.8995
   XY=             -1.8079   XZ=             -0.0000   YZ=             -0.0000

 Normal termination of Gaussian 09 at Thu Feb  9 15:32:11 2017.
