 Gaussian 09, Revision E.01,
 Gaussian 09:  ES64L-G09RevE.01 30-Nov-2015

 ----------------------------------------------------------------------
 #rhf/gen scf(symm,tight,novaracc,noincfock,fulldiag) stable(crhf) geom
 =nocrowd test
 ----------------------------------------------------------------------

 hf stability analysis of h10 triangular lattice, y= 0.9046801788140738
 1
 ----------------------------------------------------------------------
 Symbolic Z-matrix:
 Charge =  0 Multiplicity = 1

                         Standard orientation:
 ---------------------------------------------------------------------
 Center     Atomic      Atomic             Coordinates (Angstroms)
 Number     Number       Type             X           Y           Z
 ---------------------------------------------------------------------
      1          1           0        2.085948    1.296334    0.000000
      2          1           0        2.085948    0.189211    0.000000
      3          1           0        1.042974    0.924948    0.000000
      4          1           0        1.042974   -0.182175   -0.000000
      5          1           0        0.000000    0.553562    0.000000
      6          1           0       -0.000000   -0.553562   -0.000000
      7          1           0       -1.042974    0.182175    0.000000
      8          1           0       -1.042974   -0.924948    0.000000
      9          1           0       -2.085948   -0.189211    0.000000
     10          1           0       -2.085948   -1.296334    0.000000
 ---------------------------------------------------------------------

 SCF Done:  E(RHF) =  -4.86055950681     A.U. after   10 cycles
 E2 =    -0.1129366710D+00 EUMP2 =    -0.49734961777859D+01

 The electronic state is 1-AG.
 Alpha  occ. eigenvalues --   -0.85637  -0.73962  -0.54739  -0.38117  -0.29676
 Alpha virt. eigenvalues --   -0.02178   0.22164   0.28352   0.53579   0.75158

 Mulliken charges:
               1
     1  H   -0.090882
     2  H    0.129710
     3  H    0.079567
     4  H   -0.107125
     5  H   -0.011270
     6  H   -0.011270
     7  H   -0.107125
     8  H    0.079567
     9  H    0.129710
    10  H   -0.090882
 Sum of Mulliken charges =   0.00000

 Dipole moment (field-independent basis, Debye):
    X=             -0.0000    Y=              0.0000    Z=              0.0000  Tot=              0.0000
 Quadrupole moment (field-independent basis, Debye-Ang):
   XX=            -14.9611   YY=            -14.8658   ZZ=            -12.8854
   XY=             -1.8270   XZ=             -0.0000   YZ=             -0.0000

 Normal termination of Gaussian 09 at Thu Feb  9 15:31:30 2017.
