 Gaussian 09, Revision E.01,
 Gaussian 09:  ES64L-G09RevE.01 30-Nov-2015

 ----------------------------------------------------------------------
 #rhf/gen scf(symm,tight,novaracc,noincfock,fulldiag) stable(crhf) geom
 =nocrowd test
 ----------------------------------------------------------------------

 ----------------------------------------------------------------------
 hf stability analysis of h10 triangular lattice, y= 1.0163890700006153
 ----------------------------------------------------------------------
 Symbolic Z-matrix:
 Charge =  0 Multiplicity = 1

                         Standard orientation:
 ---------------------------------------------------------------------
 Center     Atomic      Atomic             Coordinates (Angstroms)
 Number     Number       Type             X           Y           Z
 ---------------------------------------------------------------------
      1          1           0        1.983421    1.802385   -0.000000
      2          1           0        1.983421    0.638032   -0.000000
      3          1           0        0.991710    1.192281   -0.000000
      4          1           0        0.991710    0.027928   -0.000000
      5          1           0        0.000000    0.582176    0.000000
      6          1           0       -0.000000   -0.582176   -0.000000
      7          1           0       -0.991710   -0.027928   -0.000000
      8          1           0       -0.991710   -1.192281   -0.000000
      9          1           0       -1.983421   -0.638032   -0.000000
     10          1           0       -1.983421   -1.802385   -0.000000
 ---------------------------------------------------------------------

 SCF Done:  E(RHF) =  -4.86644468567     A.U. after   10 cycles
 E2 =    -0.1136264608D+00 EUMP2 =    -0.49800711464225D+01

 The electronic state is 1-AG.
 Alpha  occ. eigenvalues --   -0.83868  -0.73980  -0.55171  -0.33223  -0.30923
 Alpha virt. eigenvalues --    0.00301   0.20908   0.24031   0.55644   0.56477

 Mulliken charges:
               1
     1  H   -0.086314
     2  H    0.144753
     3  H    0.109985
     4  H   -0.121477
     5  H   -0.046947
     6  H   -0.046947
     7  H   -0.121477
     8  H    0.109985
     9  H    0.144753
    10  H   -0.086314
 Sum of Mulliken charges =   0.00000

 Dipole moment (field-independent basis, Debye):
    X=             -0.0000    Y=             -0.0000    Z=             -0.0000  Tot=              0.0000
 Quadrupole moment (field-independent basis, Debye-Ang):
   XX=            -13.3568   YY=            -15.4221   ZZ=            -13.0060
   XY=             -0.7386   XZ=             -0.0000   YZ=             -0.0000

 Normal termination of Gaussian 09 at Thu Feb  9 15:36:59 2017.
