 Gaussian 09, Revision E.01,
 Gaussian 09:  ES64L-G09RevE.01 30-Nov-2015

 ----------------------------------------------------------------------
 #rhf/gen scf(symm,tight,novaracc,noincfock,fulldiag) stable(crhf) geom
 =nocrowd test
 ----------------------------------------------------------------------

 ----------------------------------------------------------------------
 hf stability analysis of h10 triangular lattice, y= 1.0702532558662603
 ----------------------------------------------------------------------
 Symbolic Z-matrix:
 Charge =  0 Multiplicity = 1

                         Standard orientation:
 ---------------------------------------------------------------------
 Center     Atomic      Atomic             Coordinates (Angstroms)
 Number     Number       Type             X           Y           Z
 ---------------------------------------------------------------------
      1          1           0        1.926877    2.025074    0.000000
      2          1           0        1.926877    0.826554    0.000000
      3          1           0        0.963439    1.312167    0.000000
      4          1           0        0.963439    0.113647    0.000000
      5          1           0       -0.000000    0.599260    0.000000
      6          1           0       -0.000000   -0.599260    0.000000
      7          1           0       -0.963439   -0.113647   -0.000000
      8          1           0       -0.963439   -1.312167   -0.000000
      9          1           0       -1.926877   -0.826554   -0.000000
     10          1           0       -1.926877   -2.025074   -0.000000
 ---------------------------------------------------------------------

 SCF Done:  E(RHF) =  -4.85539827573     A.U. after   10 cycles
 E2 =    -0.1161885324D+00 EUMP2 =    -0.49715868081426D+01

 The electronic state is 1-AG.
 Alpha  occ. eigenvalues --   -0.82684  -0.73734  -0.55294  -0.32349  -0.29372
 Alpha virt. eigenvalues --    0.01675   0.17686   0.24443   0.48117   0.58083

 Mulliken charges:
               1
     1  H   -0.064192
     2  H    0.135717
     3  H    0.113111
     4  H   -0.120402
     5  H   -0.064234
     6  H   -0.064234
     7  H   -0.120402
     8  H    0.113111
     9  H    0.135717
    10  H   -0.064192
 Sum of Mulliken charges =   0.00000

 Dipole moment (field-independent basis, Debye):
    X=              0.0000    Y=              0.0000    Z=              0.0000  Tot=              0.0000
 Quadrupole moment (field-independent basis, Debye-Ang):
   XX=            -12.6838   YY=            -14.7939   ZZ=            -13.0614
   XY=              0.3815   XZ=              0.0000   YZ=             -0.0000

 Normal termination of Gaussian 09 at Thu Feb  9 15:39:19 2017.
