 Gaussian 09, Revision E.01,
 Gaussian 09:  ES64L-G09RevE.01 30-Nov-2015

 ----------------------------------------------------------------------
 #rhf/gen scf(symm,tight,novaracc,noincfock,fulldiag) stable(crhf) geom
 =nocrowd test
 ----------------------------------------------------------------------

 ----------------------------------------------------------------------
 hf stability analysis of h10 triangular lattice, y= 1.5751239286223491
 ----------------------------------------------------------------------
 Symbolic Z-matrix:
 Charge =  0 Multiplicity = 1

                         Standard orientation:
 ---------------------------------------------------------------------
 Center     Atomic      Atomic             Coordinates (Angstroms)
 Number     Number       Type             X           Y           Z
 ---------------------------------------------------------------------
      1          1           0        1.428016    3.710716   -0.000000
      2          1           0        1.428016    2.093506   -0.000000
      3          1           0        0.714008    2.259661   -0.000000
      4          1           0        0.714008    0.642450   -0.000000
      5          1           0       -0.000000    0.808605   -0.000000
      6          1           0       -0.000000   -0.808605    0.000000
      7          1           0       -0.714008   -0.642450    0.000000
      8          1           0       -0.714008   -2.259661    0.000000
      9          1           0       -1.428016   -2.093506    0.000000
     10          1           0       -1.428016   -3.710716    0.000000
 ---------------------------------------------------------------------

 SCF Done:  E(RHF) =  -4.91034401530     A.U. after    8 cycles
 E2 =    -0.4957582111D+00 EUMP2 =    -0.54061022263962D+01

 The electronic state is 1-AG.
 Alpha  occ. eigenvalues --   -0.76448  -0.70806  -0.61776  -0.50665  -0.16139
 Alpha virt. eigenvalues --   -0.08351   0.23213   0.33374   0.48558   0.63457

 Mulliken charges:
               1
     1  H   -0.079136
     2  H    0.023030
     3  H    0.034306
     4  H    0.007853
     5  H    0.013948
     6  H    0.013948
     7  H    0.007853
     8  H    0.034306
     9  H    0.023030
    10  H   -0.079136
 Sum of Mulliken charges =   0.00000

 Dipole moment (field-independent basis, Debye):
    X=             -0.0000    Y=             -0.0000    Z=             -0.0000  Tot=              0.0000
 Quadrupole moment (field-independent basis, Debye-Ang):
   XX=            -13.1081   YY=            -25.1281   ZZ=            -12.9613
   XY=             -5.1078   XZ=              0.0000   YZ=              0.0000

 Normal termination of Gaussian 09 at Thu Feb  9 15:52:34 2017.
