 Gaussian 09, Revision E.01,
 Gaussian 09:  ES64L-G09RevE.01 30-Nov-2015

 ----------------------------------------------------------------------
 #rhf/gen scf(symm,tight,novaracc,noincfock,fulldiag) stable(crhf) geom
 =nocrowd test
 ----------------------------------------------------------------------

 hf stability analysis of h10 triangular lattice, y= 0.9148316281989556
 9
 ----------------------------------------------------------------------
 Symbolic Z-matrix:
 Charge =  0 Multiplicity = 1

                         Standard orientation:
 ---------------------------------------------------------------------
 Center     Atomic      Atomic             Coordinates (Angstroms)
 Number     Number       Type             X           Y           Z
 ---------------------------------------------------------------------
      1          1           0        2.077926    1.345029    0.000000
      2          1           0        2.077926    0.233631    0.000000
      3          1           0        1.038963    0.950364    0.000000
      4          1           0        1.038963   -0.161034    0.000000
      5          1           0        0.000000    0.555699    0.000000
      6          1           0       -0.000000   -0.555699    0.000000
      7          1           0       -1.038963    0.161034    0.000000
      8          1           0       -1.038963   -0.950364    0.000000
      9          1           0       -2.077926   -0.233631    0.000000
     10          1           0       -2.077926   -1.345029    0.000000
 ---------------------------------------------------------------------

 SCF Done:  E(RHF) =  -4.86226519464     A.U. after   10 cycles
 E2 =    -0.1127513263D+00 EUMP2 =    -0.49750165209826D+01

 The electronic state is 1-AG.
 Alpha  occ. eigenvalues --   -0.85520  -0.73990  -0.54783  -0.37741  -0.29808
 Alpha virt. eigenvalues --   -0.02003   0.22336   0.27695   0.53807   0.73311

 Mulliken charges:
               1
     1  H   -0.093437
     2  H    0.133432
     3  H    0.084155
     4  H   -0.109698
     5  H   -0.014452
     6  H   -0.014452
     7  H   -0.109698
     8  H    0.084155
     9  H    0.133432
    10  H   -0.093437
 Sum of Mulliken charges =   0.00000

 Dipole moment (field-independent basis, Debye):
    X=             -0.0000    Y=             -0.0000    Z=              0.0000  Tot=              0.0000
 Quadrupole moment (field-independent basis, Debye-Ang):
   XX=            -14.8182   YY=            -14.9912   ZZ=            -12.8959
   XY=             -1.8161   XZ=              0.0000   YZ=              0.0000

 Normal termination of Gaussian 09 at Thu Feb  9 15:32:01 2017.
