 Gaussian 09, Revision E.01,
 Gaussian 09:  ES64L-G09RevE.01 30-Nov-2015

 ----------------------------------------------------------------------
 #rhf/gen scf(symm,tight,novaracc,noincfock,fulldiag) stable(crhf) geom
 =nocrowd test
 ----------------------------------------------------------------------

 hf stability analysis of h10 triangular lattice, y= 0.9366229528369836
 0
 ----------------------------------------------------------------------
 Symbolic Z-matrix:
 Charge =  0 Multiplicity = 1

                         Standard orientation:
 ---------------------------------------------------------------------
 Center     Atomic      Atomic             Coordinates (Angstroms)
 Number     Number       Type             X           Y           Z
 ---------------------------------------------------------------------
      1          1           0        2.059641    1.447654    0.000000
      2          1           0        2.059641    0.326390    0.000000
      3          1           0        1.029821    1.004143    0.000000
      4          1           0        1.029821   -0.117121    0.000000
      5          1           0        0.000000    0.560632    0.000000
      6          1           0       -0.000000   -0.560632   -0.000000
      7          1           0       -1.029821    0.117121   -0.000000
      8          1           0       -1.029821   -1.004143   -0.000000
      9          1           0       -2.059641   -0.326390   -0.000000
     10          1           0       -2.059641   -1.447654   -0.000000
 ---------------------------------------------------------------------

 SCF Done:  E(RHF) =  -4.86534611548     A.U. after   10 cycles
 E2 =    -0.1125043978D+00 EUMP2 =    -0.49778505132736D+01

 The electronic state is 1-AG.
 Alpha  occ. eigenvalues --   -0.85238  -0.74034  -0.54876  -0.36871  -0.30093
 Alpha virt. eigenvalues --   -0.01586   0.22718   0.26249   0.54325   0.69330

 Mulliken charges:
               1
     1  H   -0.096694
     2  H    0.139663
     3  H    0.092619
     4  H   -0.114209
     5  H   -0.021379
     6  H   -0.021379
     7  H   -0.114209
     8  H    0.092619
     9  H    0.139663
    10  H   -0.096694
 Sum of Mulliken charges =   0.00000

 Dipole moment (field-independent basis, Debye):
    X=              0.0000    Y=              0.0000    Z=             -0.0000  Tot=              0.0000
 Quadrupole moment (field-independent basis, Debye-Ang):
   XX=            -14.5028   YY=            -15.2236   ZZ=            -12.9191
   XY=             -1.7275   XZ=             -0.0000   YZ=             -0.0000

 Normal termination of Gaussian 09 at Thu Feb  9 15:33:06 2017.
