 Gaussian 09, Revision E.01,
 Gaussian 09:  ES64L-G09RevE.01 30-Nov-2015

 ----------------------------------------------------------------------
 #rhf/gen scf(symm,tight,novaracc,noincfock,fulldiag) stable(crhf) geom
 =nocrowd test
 ----------------------------------------------------------------------

 ----------------------------------------------------------------------
 hf stability analysis of h10 triangular lattice, y= 1.1536853775926659
 ----------------------------------------------------------------------
 Symbolic Z-matrix:
 Charge =  0 Multiplicity = 1

                         Standard orientation:
 ---------------------------------------------------------------------
 Center     Atomic      Atomic             Coordinates (Angstroms)
 Number     Number       Type             X           Y           Z
 ---------------------------------------------------------------------
      1          1           0        1.836430    2.347275    0.000000
      2          1           0        1.836430    1.089726    0.000000
      3          1           0        0.918215    1.488025    0.000000
      4          1           0        0.918215    0.230476    0.000000
      5          1           0        0.000000    0.628775    0.000000
      6          1           0       -0.000000   -0.628775    0.000000
      7          1           0       -0.918215   -0.230476    0.000000
      8          1           0       -0.918215   -1.488025    0.000000
      9          1           0       -1.836430   -1.089726    0.000000
     10          1           0       -1.836430   -2.347275    0.000000
 ---------------------------------------------------------------------

 SCF Done:  E(RHF) =  -4.81741469582     A.U. after   10 cycles
 E2 =    -0.1225674172D+00 EUMP2 =    -0.49399821130597D+01

 The electronic state is 1-AG.
 Alpha  occ. eigenvalues --   -0.80558  -0.73053  -0.55320  -0.33197  -0.24157
 Alpha virt. eigenvalues --    0.02957   0.14456   0.22714   0.41023   0.60685

 Mulliken charges:
               1
     1  H   -0.014744
     2  H    0.106767
     3  H    0.111694
     4  H   -0.110609
     5  H   -0.093107
     6  H   -0.093107
     7  H   -0.110609
     8  H    0.111694
     9  H    0.106767
    10  H   -0.014744
 Sum of Mulliken charges =  -0.00000

 Dipole moment (field-independent basis, Debye):
    X=             -0.0000    Y=              0.0000    Z=              0.0000  Tot=              0.0000
 Quadrupole moment (field-independent basis, Debye-Ang):
   XX=            -11.9048   YY=            -12.4204   ZZ=            -13.1354
   XY=              2.5322   XZ=              0.0000   YZ=              0.0000

 Normal termination of Gaussian 09 at Thu Feb  9 15:42:33 2017.
