 Gaussian 09, Revision E.01,
 Gaussian 09:  ES64L-G09RevE.01 30-Nov-2015

 ----------------------------------------------------------------------
 #rhf/gen scf(symm,tight,novaracc,noincfock,fulldiag) stable(crhf) geom
 =nocrowd test
 ----------------------------------------------------------------------

 hf stability analysis of h10 triangular lattice, y= 0.9286741012772336
 0
 ----------------------------------------------------------------------
 Symbolic Z-matrix:
 Charge =  0 Multiplicity = 1

                         Standard orientation:
 ---------------------------------------------------------------------
 Center     Atomic      Atomic             Coordinates (Angstroms)
 Number     Number       Type             X           Y           Z
 ---------------------------------------------------------------------
      1          1           0        2.066469    1.410517   -0.000000
      2          1           0        2.066469    0.292958   -0.000000
      3          1           0        1.033235    0.984648   -0.000000
      4          1           0        1.033235   -0.132911    0.000000
      5          1           0       -0.000000    0.558779   -0.000000
      6          1           0       -0.000000   -0.558779   -0.000000
      7          1           0       -1.033235    0.132911    0.000000
      8          1           0       -1.033235   -0.984648    0.000000
      9          1           0       -2.066469   -0.292958    0.000000
     10          1           0       -2.066469   -1.410517    0.000000
 ---------------------------------------------------------------------

 SCF Done:  E(RHF) =  -4.86432598315     A.U. after   10 cycles
 E2 =    -0.1125692519D+00 EUMP2 =    -0.49768952350652D+01

 The electronic state is 1-AG.
 Alpha  occ. eigenvalues --   -0.85346  -0.74021  -0.54842  -0.37198  -0.29989
 Alpha virt. eigenvalues --   -0.01744   0.22577   0.26781   0.54131   0.70781

 Mulliken charges:
               1
     1  H   -0.095848
     2  H    0.137660
     3  H    0.089744
     4  H   -0.112715
     5  H   -0.018841
     6  H   -0.018841
     7  H   -0.112715
     8  H    0.089744
     9  H    0.137660
    10  H   -0.095848
 Sum of Mulliken charges =   0.00000

 Dipole moment (field-independent basis, Debye):
    X=              0.0000    Y=              0.0000    Z=              0.0000  Tot=              0.0000
 Quadrupole moment (field-independent basis, Debye-Ang):
   XX=            -14.6188   YY=            -15.1455   ZZ=            -12.9106
   XY=             -1.7699   XZ=              0.0000   YZ=              0.0000

 Normal termination of Gaussian 09 at Thu Feb  9 15:32:42 2017.
