 Gaussian 09, Revision E.01,
 Gaussian 09:  ES64L-G09RevE.01 30-Nov-2015

 ----------------------------------------------------------------------
 #rhf/gen scf(symm,tight,novaracc,noincfock,fulldiag) stable(crhf) geom
 =nocrowd test
 ----------------------------------------------------------------------

 ----------------------------------------------------------------------
 hf stability analysis of h10 triangular lattice, y= 1.4096995875240308
 ----------------------------------------------------------------------
 Symbolic Z-matrix:
 Charge =  0 Multiplicity = 1

                         Standard orientation:
 ---------------------------------------------------------------------
 Center     Atomic      Atomic             Coordinates (Angstroms)
 Number     Number       Type             X           Y           Z
 ---------------------------------------------------------------------
      1          1           0        1.573175    3.212920    0.000000
      2          1           0        1.573175    1.744932    0.000000
      3          1           0        0.786587    1.973457    0.000000
      4          1           0        0.786587    0.505469    0.000000
      5          1           0        0.000000    0.733994    0.000000
      6          1           0       -0.000000   -0.733994    0.000000
      7          1           0       -0.786587   -0.505469    0.000000
      8          1           0       -0.786587   -1.973457    0.000000
      9          1           0       -1.573175   -1.744932    0.000000
     10          1           0       -1.573175   -3.212920    0.000000
 ---------------------------------------------------------------------

 SCF Done:  E(RHF) =  -4.82774061140     A.U. after   10 cycles
 E2 =    -0.3146751016D+00 EUMP2 =    -0.51424157130503D+01

 The electronic state is 1-AG.
 Alpha  occ. eigenvalues --   -0.80328  -0.72454  -0.60409  -0.45231  -0.12852
 Alpha virt. eigenvalues --   -0.02087   0.13323   0.25407   0.42721   0.58951

 Mulliken charges:
               1
     1  H   -0.177806
     2  H    0.042771
     3  H    0.076544
     4  H    0.025450
     5  H    0.033042
     6  H    0.033042
     7  H    0.025450
     8  H    0.076544
     9  H    0.042771
    10  H   -0.177806
 Sum of Mulliken charges =   0.00000

 Dipole moment (field-independent basis, Debye):
    X=             -0.0000    Y=              0.0000    Z=             -0.0000  Tot=              0.0000
 Quadrupole moment (field-independent basis, Debye-Ang):
   XX=            -15.1943   YY=            -30.6647   ZZ=            -12.8432
   XY=             -9.3434   XZ=              0.0000   YZ=              0.0000

 Normal termination of Gaussian 09 at Thu Feb  9 15:49:36 2017.
