 Gaussian 09, Revision E.01,
 Gaussian 09:  ES64L-G09RevE.01 30-Nov-2015

 ----------------------------------------------------------------------
 #rhf/gen scf(symm,tight,novaracc,noincfock,fulldiag) stable(crhf) geom
 =nocrowd test
 ----------------------------------------------------------------------

 ----------------------------------------------------------------------
 hf stability analysis of h10 triangular lattice, y= 1.7692786585343654
 ----------------------------------------------------------------------
 Symbolic Z-matrix:
 Charge =  0 Multiplicity = 1

                         Standard orientation:
 ---------------------------------------------------------------------
 Center     Atomic      Atomic             Coordinates (Angstroms)
 Number     Number       Type             X           Y           Z
 ---------------------------------------------------------------------
      1          1           0        1.283629    4.261051    0.000000
      2          1           0        1.283629    2.461931    0.000000
      3          1           0        0.641814    2.580305    0.000000
      4          1           0        0.641814    0.781186    0.000000
      5          1           0        0.000000    0.899560    0.000000
      6          1           0       -0.000000   -0.899560    0.000000
      7          1           0       -0.641814   -0.781186    0.000000
      8          1           0       -0.641814   -2.580305    0.000000
      9          1           0       -1.283629   -2.461931    0.000000
     10          1           0       -1.283629   -4.261051    0.000000
 ---------------------------------------------------------------------

 SCF Done:  E(RHF) =  -4.90882421960     A.U. after    7 cycles
 E2 =    -0.6697219575D+00 EUMP2 =    -0.55785461771071D+01

 The electronic state is 1-AG.
 Alpha  occ. eigenvalues --   -0.74201  -0.70267  -0.63956  -0.56688  -0.18571
 Alpha virt. eigenvalues --   -0.12336   0.32727   0.41220   0.53955   0.66448

 Mulliken charges:
               1
     1  H   -0.024814
     2  H    0.009001
     3  H    0.010962
     4  H    0.000958
     5  H    0.003894
     6  H    0.003894
     7  H    0.000958
     8  H    0.010962
     9  H    0.009001
    10  H   -0.024814
 Sum of Mulliken charges =   0.00000

 Dipole moment (field-independent basis, Debye):
    X=              0.0000    Y=             -0.0000    Z=             -0.0000  Tot=              0.0000
 Quadrupole moment (field-independent basis, Debye-Ang):
   XX=            -12.3805   YY=            -20.1153   ZZ=            -13.1147
   XY=             -2.3979   XZ=              0.0000   YZ=              0.0000

 Normal termination of Gaussian 09 at Thu Feb  9 15:55:07 2017.
