 Gaussian 09, Revision E.01,
 Gaussian 09:  ES64L-G09RevE.01 30-Nov-2015

 ----------------------------------------------------------------------
 #rhf/gen scf(symm,tight,novaracc,noincfock,fulldiag) stable(crhf) geom
 =nocrowd test
 ----------------------------------------------------------------------

 ----------------------------------------------------------------------
 hf stability analysis of h10 triangular lattice, y= 1.0508897605200611
 ----------------------------------------------------------------------
 Symbolic Z-matrix:
 Charge =  0 Multiplicity = 1

                         Standard orientation:
 ---------------------------------------------------------------------
 Center     Atomic      Atomic             Coordinates (Angstroms)
 Number     Number       Type             X           Y           Z
 ---------------------------------------------------------------------
      1          1           0        1.947492    1.946459   -0.000000
      2          1           0        1.947492    0.760626   -0.000000
      3          1           0        0.973746    1.269688   -0.000000
      4          1           0        0.973746    0.083855   -0.000000
      5          1           0        0.000000    0.592917   -0.000000
      6          1           0       -0.000000   -0.592917   -0.000000
      7          1           0       -0.973746   -0.083855   -0.000000
      8          1           0       -0.973746   -1.269688   -0.000000
      9          1           0       -1.947492   -0.760626   -0.000000
     10          1           0       -1.947492   -1.946459   -0.000000
 ---------------------------------------------------------------------

 SCF Done:  E(RHF) =  -4.86057436780     A.U. after   10 cycles
 E2 =    -0.1151113677D+00 EUMP2 =    -0.49756857354945D+01

 The electronic state is 1-AG.
 Alpha  occ. eigenvalues --   -0.83130  -0.73842  -0.55258  -0.32324  -0.30311
 Alpha virt. eigenvalues --    0.01194   0.18779   0.24379   0.50609   0.57496

 Mulliken charges:
               1
     1  H   -0.073246
     2  H    0.139929
     3  H    0.112551
     4  H   -0.121247
     5  H   -0.057987
     6  H   -0.057987
     7  H   -0.121247
     8  H    0.112551
     9  H    0.139929
    10  H   -0.073246
 Sum of Mulliken charges =   0.00000

 Dipole moment (field-independent basis, Debye):
    X=              0.0000    Y=              0.0000    Z=             -0.0000  Tot=              0.0000
 Quadrupole moment (field-independent basis, Debye-Ang):
   XX=            -12.9122   YY=            -15.0986   ZZ=            -13.0420
   XY=             -0.0535   XZ=             -0.0000   YZ=             -0.0000

 Normal termination of Gaussian 09 at Thu Feb  9 15:38:32 2017.
