 Gaussian 09, Revision E.01,
 Gaussian 09:  ES64L-G09RevE.01 30-Nov-2015

 ----------------------------------------------------------------------
 #rhf/gen scf(symm,tight,novaracc,noincfock,fulldiag) stable(crhf) geom
 =nocrowd test
 ----------------------------------------------------------------------

 ----------------------------------------------------------------------
 hf stability analysis of h10 triangular lattice, y= 1.1026771700415456
 ----------------------------------------------------------------------
 Symbolic Z-matrix:
 Charge =  0 Multiplicity = 1

                         Standard orientation:
 ---------------------------------------------------------------------
 Center     Atomic      Atomic             Coordinates (Angstroms)
 Number     Number       Type             X           Y           Z
 ---------------------------------------------------------------------
      1          1           0        1.891908    2.153339    0.000000
      2          1           0        1.891908    0.932666    0.000000
      3          1           0        0.945954    1.381838    0.000000
      4          1           0        0.945954    0.161165    0.000000
      5          1           0        0.000000    0.610337    0.000000
      6          1           0       -0.000000   -0.610337   -0.000000
      7          1           0       -0.945954   -0.161165    0.000000
      8          1           0       -0.945954   -1.381838   -0.000000
      9          1           0       -1.891908   -0.932666    0.000000
     10          1           0       -1.891908   -2.153339   -0.000000
 ---------------------------------------------------------------------

 SCF Done:  E(RHF) =  -4.84363983963     A.U. after   10 cycles
 E2 =    -0.1183516117D+00 EUMP2 =    -0.49619914512965D+01

 The electronic state is 1-AG.
 Alpha  occ. eigenvalues --   -0.81892  -0.73510  -0.55329  -0.32633  -0.27466
 Alpha virt. eigenvalues --    0.02382   0.16089   0.24223   0.44598   0.59084

 Mulliken charges:
               1
     1  H   -0.046744
     2  H    0.126493
     3  H    0.113045
     4  H   -0.117867
     5  H   -0.074927
     6  H   -0.074927
     7  H   -0.117867
     8  H    0.113045
     9  H    0.126493
    10  H   -0.046744
 Sum of Mulliken charges =  -0.00000

 Dipole moment (field-independent basis, Debye):
    X=              0.0000    Y=             -0.0000    Z=             -0.0000  Tot=              0.0000
 Quadrupole moment (field-independent basis, Debye-Ang):
   XX=            -12.3397   YY=            -14.0779   ZZ=            -13.0921
   XY=              1.1737   XZ=              0.0000   YZ=             -0.0000

 Normal termination of Gaussian 09 at Thu Feb  9 15:40:38 2017.
