 Gaussian 09, Revision E.01,
 Gaussian 09:  ES64L-G09RevE.01 30-Nov-2015

 ----------------------------------------------------------------------
 #rhf/gen scf(symm,tight,novaracc,noincfock,fulldiag) stable(crhf) geom
 =nocrowd test
 ----------------------------------------------------------------------

 ----------------------------------------------------------------------
 hf stability analysis of h10 triangular lattice, y= 1.0091524114698791
 ----------------------------------------------------------------------
 Symbolic Z-matrix:
 Charge =  0 Multiplicity = 1

                         Standard orientation:
 ---------------------------------------------------------------------
 Center     Atomic      Atomic             Coordinates (Angstroms)
 Number     Number       Type             X           Y           Z
 ---------------------------------------------------------------------
      1          1           0        1.990787    1.771484    0.000000
      2          1           0        1.990787    0.611439    0.000000
      3          1           0        0.995393    1.175753    0.000000
      4          1           0        0.995393    0.015708    0.000000
      5          1           0       -0.000000    0.580022    0.000000
      6          1           0       -0.000000   -0.580022    0.000000
      7          1           0       -0.995393   -0.015708    0.000000
      8          1           0       -0.995393   -1.175753    0.000000
      9          1           0       -1.990787   -0.611439    0.000000
     10          1           0       -1.990787   -1.771484    0.000000
 ---------------------------------------------------------------------

 SCF Done:  E(RHF) =  -4.86714893320     A.U. after   10 cycles
 E2 =    -0.1133893267D+00 EUMP2 =    -0.49805382598719D+01

 The electronic state is 1-AG.
 Alpha  occ. eigenvalues --   -0.84012  -0.74000  -0.55149  -0.33545  -0.30898
 Alpha virt. eigenvalues --    0.00114   0.21377   0.23932   0.56269   0.56784

 Mulliken charges:
               1
     1  H   -0.088489
     2  H    0.145287
     3  H    0.109138
     4  H   -0.121302
     5  H   -0.044634
     6  H   -0.044634
     7  H   -0.121302
     8  H    0.109138
     9  H    0.145287
    10  H   -0.088489
 Sum of Mulliken charges =  -0.00000

 Dipole moment (field-independent basis, Debye):
    X=              0.0000    Y=              0.0000    Z=              0.0000  Tot=              0.0000
 Quadrupole moment (field-independent basis, Debye-Ang):
   XX=            -13.4554   YY=            -15.4558   ZZ=            -12.9982
   XY=             -0.8654   XZ=              0.0000   YZ=              0.0000

 Normal termination of Gaussian 09 at Thu Feb  9 15:36:38 2017.
