 Gaussian 09, Revision E.01,
 Gaussian 09:  ES64L-G09RevE.01 30-Nov-2015

 ----------------------------------------------------------------------
 #rhf/gen scf(symm,tight,novaracc,noincfock,fulldiag) stable(crhf) geom
 =nocrowd test
 ----------------------------------------------------------------------

 ----------------------------------------------------------------------
 hf stability analysis of h10 triangular lattice, y= 1.0071039844440590
 ----------------------------------------------------------------------
 Symbolic Z-matrix:
 Charge =  0 Multiplicity = 1

                         Standard orientation:
 ---------------------------------------------------------------------
 Center     Atomic      Atomic             Coordinates (Angstroms)
 Number     Number       Type             X           Y           Z
 ---------------------------------------------------------------------
      1          1           0        1.992859    1.762692    0.000000
      2          1           0        1.992859    0.603854    0.000000
      3          1           0        0.996430    1.171056    0.000000
      4          1           0        0.996430    0.012218    0.000000
      5          1           0        0.000000    0.579419    0.000000
      6          1           0       -0.000000   -0.579419    0.000000
      7          1           0       -0.996430   -0.012218   -0.000000
      8          1           0       -0.996430   -1.171056    0.000000
      9          1           0       -1.992859   -0.603854   -0.000000
     10          1           0       -1.992859   -1.762692    0.000000
 ---------------------------------------------------------------------

 SCF Done:  E(RHF) =  -4.86731622152     A.U. after   10 cycles
 E2 =    -0.1133270257D+00 EUMP2 =    -0.49806432471812D+01

 The electronic state is 1-AG.
 Alpha  occ. eigenvalues --   -0.84053  -0.74005  -0.55143  -0.33639  -0.30886
 Alpha virt. eigenvalues --    0.00062   0.21510   0.23903   0.56210   0.57111

 Mulliken charges:
               1
     1  H   -0.089066
     2  H    0.145406
     3  H    0.108875
     4  H   -0.121237
     5  H   -0.043979
     6  H   -0.043979
     7  H   -0.121237
     8  H    0.108875
     9  H    0.145406
    10  H   -0.089066
 Sum of Mulliken charges =  -0.00000

 Dipole moment (field-independent basis, Debye):
    X=             -0.0000    Y=              0.0000    Z=             -0.0000  Tot=              0.0000
 Quadrupole moment (field-independent basis, Debye-Ang):
   XX=            -13.4836   YY=            -15.4633   ZZ=            -12.9960
   XY=             -0.9001   XZ=              0.0000   YZ=              0.0000

 Normal termination of Gaussian 09 at Thu Feb  9 15:36:32 2017.
