 Gaussian 09, Revision E.01,
 Gaussian 09:  ES64L-G09RevE.01 30-Nov-2015

 ----------------------------------------------------------------------
 #rhf/gen scf(symm,tight,novaracc,noincfock,fulldiag) stable(crhf) geom
 =nocrowd test
 ----------------------------------------------------------------------

 ----------------------------------------------------------------------
 hf stability analysis of h10 triangular lattice, y= 2.4265770196459231
 ----------------------------------------------------------------------
 Symbolic Z-matrix:
 Charge =  0 Multiplicity = 1

                         Standard orientation:
 ---------------------------------------------------------------------
 Center     Atomic      Atomic             Coordinates (Angstroms)
 Number     Number       Type             X           Y           Z
 ---------------------------------------------------------------------
      1          1           0        0.947170    6.002663   -0.000000
      2          1           0        0.947170    3.564450   -0.000000
      3          1           0        0.473585    3.610885   -0.000000
      4          1           0        0.473585    1.172671   -0.000000
      5          1           0        0.000000    1.219107    0.000000
      6          1           0       -0.000000   -1.219107    0.000000
      7          1           0       -0.473585   -1.172671   -0.000000
      8          1           0       -0.473585   -3.610885   -0.000000
      9          1           0       -0.947170   -3.564450   -0.000000
     10          1           0       -0.947170   -6.002663   -0.000000
 ---------------------------------------------------------------------

 SCF Done:  E(RHF) =  -4.40589055975     A.U. after    5 cycles
 E2 =    -0.1009637116D+01 EUMP2 =    -0.54155276759361D+01

 The electronic state is 1-AG.
 Alpha  occ. eigenvalues --   -0.73862  -0.72817  -0.71393  -0.70114  -0.20523
 Alpha virt. eigenvalues --   -0.16167   0.56254   0.60739   0.66881   0.72393

 Mulliken charges:
               1
     1  H    0.001260
     2  H   -0.000110
     3  H   -0.001159
     4  H   -0.000085
     5  H    0.000094
     6  H    0.000094
     7  H   -0.000085
     8  H   -0.001159
     9  H   -0.000110
    10  H    0.001260
 Sum of Mulliken charges =  -0.00000

 Dipole moment (field-independent basis, Debye):
    X=              0.0000    Y=             -0.0000    Z=             -0.0000  Tot=              0.0000
 Quadrupole moment (field-independent basis, Debye-Ang):
   XX=            -12.7210   YY=            -14.8432   ZZ=            -13.4889
   XY=             -0.3007   XZ=             -0.0000   YZ=              0.0000

 Normal termination of Gaussian 09 at Thu Feb  9 15:59:41 2017.
