 Gaussian 09, Revision E.01,
 Gaussian 09:  ES64L-G09RevE.01 30-Nov-2015

 ----------------------------------------------------------------------
 #rhf/gen scf(symm,tight,novaracc,noincfock,fulldiag) stable(crhf) geom
 =nocrowd test
 ----------------------------------------------------------------------

 hf stability analysis of h10 triangular lattice, y= 0.9446944967191449
 6
 ----------------------------------------------------------------------
 Symbolic Z-matrix:
 Charge =  0 Multiplicity = 1

                         Standard orientation:
 ---------------------------------------------------------------------
 Center     Atomic      Atomic             Coordinates (Angstroms)
 Number     Number       Type             X           Y           Z
 ---------------------------------------------------------------------
      1          1           0        2.052536    1.485019    0.000000
      2          1           0        2.052536    0.359873    0.000000
      3          1           0        1.026268    1.023796    0.000000
      4          1           0        1.026268   -0.101350    0.000000
      5          1           0        0.000000    0.562573    0.000000
      6          1           0       -0.000000   -0.562573   -0.000000
      7          1           0       -1.026268    0.101350   -0.000000
      8          1           0       -1.026268   -1.023796   -0.000000
      9          1           0       -2.052536   -0.359873   -0.000000
     10          1           0       -2.052536   -1.485019   -0.000000
 ---------------------------------------------------------------------

 SCF Done:  E(RHF) =  -4.86624396957     A.U. after   10 cycles
 E2 =    -0.1124697279D+00 EUMP2 =    -0.49787136974431D+01

 The electronic state is 1-AG.
 Alpha  occ. eigenvalues --   -0.85124  -0.74045  -0.54910  -0.36528  -0.30199
 Alpha virt. eigenvalues --   -0.01419   0.22861   0.25705   0.54525   0.67864

 Mulliken charges:
               1
     1  H   -0.097164
     2  H    0.141390
     3  H    0.095297
     4  H   -0.115559
     5  H   -0.023964
     6  H   -0.023964
     7  H   -0.115559
     8  H    0.095297
     9  H    0.141390
    10  H   -0.097164
 Sum of Mulliken charges =  -0.00000

 Dipole moment (field-independent basis, Debye):
    X=              0.0000    Y=             -0.0000    Z=             -0.0000  Tot=              0.0000
 Quadrupole moment (field-independent basis, Debye-Ang):
   XX=            -14.3842   YY=            -15.2942   ZZ=            -12.9279
   XY=             -1.6730   XZ=             -0.0000   YZ=             -0.0000

 Normal termination of Gaussian 09 at Thu Feb  9 15:33:30 2017.
