 Gaussian 09, Revision E.01,
 Gaussian 09:  ES64L-G09RevE.01 30-Nov-2015

 ----------------------------------------------------------------------
 #rhf/gen scf(symm,tight,novaracc,noincfock,fulldiag) stable(crhf) geom
 =nocrowd test
 ----------------------------------------------------------------------

 hf stability analysis of h10 triangular lattice, y= 0.7902999627936464
 5
 ----------------------------------------------------------------------
 Symbolic Z-matrix:
 Charge =  0 Multiplicity = 1

                         Standard orientation:
 ---------------------------------------------------------------------
 Center     Atomic      Atomic             Coordinates (Angstroms)
 Number     Number       Type             X           Y           Z
 ---------------------------------------------------------------------
      1          1           0        2.145825    0.706995    0.000000
      2          1           0        2.145825   -0.369235    0.000000
      3          1           0        1.072912    0.622555    0.000000
      4          1           0        1.072912   -0.453675    0.000000
      5          1           0        0.000000    0.538115    0.000000
      6          1           0       -0.000000   -0.538115    0.000000
      7          1           0       -1.072912    0.453675    0.000000
      8          1           0       -1.072912   -0.622555    0.000000
      9          1           0       -2.145825    0.369235    0.000000
     10          1           0       -2.145825   -0.706995    0.000000
 ---------------------------------------------------------------------

 SCF Done:  E(RHF) =  -4.88385555644     A.U. after   10 cycles
 E2 =    -0.1051480781D+00 EUMP2 =    -0.49890036345386D+01

 The electronic state is 1-AG.
 Alpha  occ. eigenvalues --   -0.87697  -0.74488  -0.52668  -0.46711  -0.31058
 Alpha virt. eigenvalues --   -0.01481   0.15547   0.36399   0.51496   0.89390

 Mulliken charges:
               1
     1  H    0.064734
     2  H    0.015750
     3  H   -0.032619
     4  H   -0.034136
     5  H   -0.013729
     6  H   -0.013729
     7  H   -0.034136
     8  H   -0.032619
     9  H    0.015750
    10  H    0.064734
 Sum of Mulliken charges =  -0.00000

 Dipole moment (field-independent basis, Debye):
    X=              0.0000    Y=             -0.0000    Z=              0.0000  Tot=              0.0000
 Quadrupole moment (field-independent basis, Debye-Ang):
   XX=            -10.1114   YY=            -17.2794   ZZ=            -12.9554
   XY=              1.1570   XZ=             -0.0000   YZ=             -0.0000

 Normal termination of Gaussian 09 at Thu Feb  9 15:24:56 2017.
