 Gaussian 09, Revision E.01,
 Gaussian 09:  ES64L-G09RevE.01 30-Nov-2015

 ----------------------------------------------------------------------
 #rhf/gen scf(symm,tight,novaracc,noincfock,fulldiag) stable(crhf) geom
 =nocrowd test
 ----------------------------------------------------------------------

 hf stability analysis of h10 triangular lattice, y= 0.9260509512254276
 9
 ----------------------------------------------------------------------
 Symbolic Z-matrix:
 Charge =  0 Multiplicity = 1

                         Standard orientation:
 ---------------------------------------------------------------------
 Center     Atomic      Atomic             Coordinates (Angstroms)
 Number     Number       Type             X           Y           Z
 ---------------------------------------------------------------------
      1          1           0        2.068684    1.398187    0.000000
      2          1           0        2.068684    0.281824    0.000000
      3          1           0        1.034342    0.978184    0.000000
      4          1           0        1.034342   -0.138179    0.000000
      5          1           0        0.000000    0.558181    0.000000
      6          1           0       -0.000000   -0.558181    0.000000
      7          1           0       -1.034342    0.138179    0.000000
      8          1           0       -1.034342   -0.978184    0.000000
      9          1           0       -2.068684   -0.281824    0.000000
     10          1           0       -2.068684   -1.398187    0.000000
 ---------------------------------------------------------------------

 SCF Done:  E(RHF) =  -4.86396184904     A.U. after   10 cycles
 E2 =    -0.1125971506D+00 EUMP2 =    -0.49765589996536D+01

 The electronic state is 1-AG.
 Alpha  occ. eigenvalues --   -0.85380  -0.74015  -0.54831  -0.37303  -0.29955
 Alpha virt. eigenvalues --   -0.01795   0.22531   0.26956   0.54069   0.71260

 Mulliken charges:
               1
     1  H   -0.095484
     2  H    0.136932
     3  H    0.088743
     4  H   -0.112185
     5  H   -0.018006
     6  H   -0.018006
     7  H   -0.112185
     8  H    0.088743
     9  H    0.136932
    10  H   -0.095484
 Sum of Mulliken charges =   0.00000

 Dipole moment (field-independent basis, Debye):
    X=             -0.0000    Y=              0.0000    Z=              0.0000  Tot=              0.0000
 Quadrupole moment (field-independent basis, Debye-Ang):
   XX=            -14.6569   YY=            -15.1179   ZZ=            -12.9078
   XY=             -1.7813   XZ=             -0.0000   YZ=             -0.0000

 Normal termination of Gaussian 09 at Thu Feb  9 15:32:35 2017.
