 Gaussian 09, Revision E.01,
 Gaussian 09:  ES64L-G09RevE.01 30-Nov-2015

 ----------------------------------------------------------------------
 #rhf/gen scf(symm,tight,novaracc,noincfock,fulldiag) stable(crhf) geom
 =nocrowd test
 ----------------------------------------------------------------------

 ----------------------------------------------------------------------
 hf stability analysis of h10 triangular lattice, y= 1.4653340713215299
 ----------------------------------------------------------------------
 Symbolic Z-matrix:
 Charge =  0 Multiplicity = 1

                         Standard orientation:
 ---------------------------------------------------------------------
 Center     Atomic      Atomic             Coordinates (Angstroms)
 Number     Number       Type             X           Y           Z
 ---------------------------------------------------------------------
      1          1           0        1.521966    3.384219    0.000000
      2          1           0        1.521966    1.866838    0.000000
      3          1           0        0.760983    2.071455    0.000000
      4          1           0        0.760983    0.554074    0.000000
      5          1           0       -0.000000    0.758690    0.000000
      6          1           0       -0.000000   -0.758690   -0.000000
      7          1           0       -0.760983   -0.554074    0.000000
      8          1           0       -0.760983   -2.071455   -0.000000
      9          1           0       -1.521966   -1.866838    0.000000
     10          1           0       -1.521966   -3.384219   -0.000000
 ---------------------------------------------------------------------

 SCF Done:  E(RHF) =  -4.86459326629     A.U. after    9 cycles
 E2 =    -0.3759090308D+00 EUMP2 =    -0.52405022971091D+01

 The electronic state is 1-AG.
 Alpha  occ. eigenvalues --   -0.78808  -0.71771  -0.60823  -0.47086  -0.14043
 Alpha virt. eigenvalues --   -0.04542   0.16798   0.28203   0.44802   0.60699

 Mulliken charges:
               1
     1  H   -0.138823
     2  H    0.035809
     3  H    0.058983
     4  H    0.018206
     5  H    0.025826
     6  H    0.025826
     7  H    0.018206
     8  H    0.058983
     9  H    0.035809
    10  H   -0.138823
 Sum of Mulliken charges =  -0.00000

 Dipole moment (field-independent basis, Debye):
    X=             -0.0000    Y=              0.0000    Z=             -0.0000  Tot=              0.0000
 Quadrupole moment (field-independent basis, Debye-Ang):
   XX=            -14.2746   YY=            -28.9010   ZZ=            -12.8806
   XY=             -7.7451   XZ=             -0.0000   YZ=             -0.0000

 Normal termination of Gaussian 09 at Thu Feb  9 15:50:41 2017.
