 Gaussian 09, Revision E.01,
 Gaussian 09:  ES64L-G09RevE.01 30-Nov-2015

 ----------------------------------------------------------------------
 #rhf/gen scf(symm,tight,novaracc,noincfock,fulldiag) stable(crhf) geom
 =nocrowd test
 ----------------------------------------------------------------------

 hf stability analysis of h10 triangular lattice, y= 0.9013383364020320
 9
 ----------------------------------------------------------------------
 Symbolic Z-matrix:
 Charge =  0 Multiplicity = 1

                         Standard orientation:
 ---------------------------------------------------------------------
 Center     Atomic      Atomic             Coordinates (Angstroms)
 Number     Number       Type             X           Y           Z
 ---------------------------------------------------------------------
      1          1           0        2.088513    1.280179   -0.000000
      2          1           0        2.088513    0.174416   -0.000000
      3          1           0        1.044257    0.916530   -0.000000
      4          1           0        1.044257   -0.189233    0.000000
      5          1           0        0.000000    0.552882   -0.000000
      6          1           0       -0.000000   -0.552882    0.000000
      7          1           0       -1.044257    0.189233    0.000000
      8          1           0       -1.044257   -0.916530    0.000000
      9          1           0       -2.088513   -0.174416    0.000000
     10          1           0       -2.088513   -1.280179    0.000000
 ---------------------------------------------------------------------

 SCF Done:  E(RHF) =  -4.85996793297     A.U. after   10 cycles
 E2 =    -0.1130065128D+00 EUMP2 =    -0.49729744457642D+01

 The electronic state is 1-AG.
 Alpha  occ. eigenvalues --   -0.85673  -0.73952  -0.54725  -0.38236  -0.29633
 Alpha virt. eigenvalues --   -0.02233   0.22108   0.28565   0.53505   0.75762

 Mulliken charges:
               1
     1  H   -0.089892
     2  H    0.128366
     3  H    0.077965
     4  H   -0.106207
     5  H   -0.010232
     6  H   -0.010232
     7  H   -0.106207
     8  H    0.077965
     9  H    0.128366
    10  H   -0.089892
 Sum of Mulliken charges =   0.00000

 Dipole moment (field-independent basis, Debye):
    X=             -0.0000    Y=              0.0000    Z=              0.0000  Tot=              0.0000
 Quadrupole moment (field-independent basis, Debye-Ang):
   XX=            -15.0074   YY=            -14.8227   ZZ=            -12.8820
   XY=             -1.8263   XZ=              0.0000   YZ=              0.0000

 Normal termination of Gaussian 09 at Thu Feb  9 15:31:19 2017.
