 Gaussian 09, Revision E.01,
 Gaussian 09:  ES64L-G09RevE.01 30-Nov-2015

 ----------------------------------------------------------------------
 #rhf/gen scf(symm,tight,novaracc,noincfock,fulldiag) stable(crhf) geom
 =nocrowd test
 ----------------------------------------------------------------------

 ----------------------------------------------------------------------
 hf stability analysis of h10 triangular lattice, y= 2.1842543712115088
 ----------------------------------------------------------------------
 Symbolic Z-matrix:
 Charge =  0 Multiplicity = 1

                         Standard orientation:
 ---------------------------------------------------------------------
 Center     Atomic      Atomic             Coordinates (Angstroms)
 Number     Number       Type             X           Y           Z
 ---------------------------------------------------------------------
      1          1           0        1.049638    5.373454   -0.000000
      2          1           0        1.049638    3.173264   -0.000000
      3          1           0        0.524819    3.236774   -0.000000
      4          1           0        0.524819    1.036585   -0.000000
      5          1           0        0.000000    1.100095    0.000000
      6          1           0       -0.000000   -1.100095    0.000000
      7          1           0       -0.524819   -1.036585   -0.000000
      8          1           0       -0.524819   -3.236774   -0.000000
      9          1           0       -1.049638   -3.173264   -0.000000
     10          1           0       -1.049638   -5.373454   -0.000000
 ---------------------------------------------------------------------

 SCF Done:  E(RHF) =  -4.65170294110     A.U. after    5 cycles
 E2 =    -0.9014085621D+00 EUMP2 =    -0.55531115031690D+01

 The electronic state is 1-AG.
 Alpha  occ. eigenvalues --   -0.73382  -0.71579  -0.68961  -0.66408  -0.20329
 Alpha virt. eigenvalues --   -0.15481   0.48584   0.54380   0.62575   0.70170

 Mulliken charges:
               1
     1  H    0.000020
     2  H    0.000652
     3  H   -0.000804
     4  H   -0.000178
     5  H    0.000309
     6  H    0.000309
     7  H   -0.000178
     8  H   -0.000804
     9  H    0.000652
    10  H    0.000020
 Sum of Mulliken charges =  -0.00000

 Dipole moment (field-independent basis, Debye):
    X=              0.0000    Y=              0.0000    Z=             -0.0000  Tot=              0.0000
 Quadrupole moment (field-independent basis, Debye-Ang):
   XX=            -12.5168   YY=            -15.7875   ZZ=            -13.3903
   XY=             -0.5999   XZ=             -0.0000   YZ=              0.0000

 Normal termination of Gaussian 09 at Thu Feb  9 15:58:28 2017.
