 Gaussian 09, Revision E.01,
 Gaussian 09:  ES64L-G09RevE.01 30-Nov-2015

 ----------------------------------------------------------------------
 #rhf/gen scf(symm,tight,novaracc,noincfock,fulldiag) stable(crhf) geom
 =nocrowd test
 ----------------------------------------------------------------------

 ----------------------------------------------------------------------
 hf stability analysis of h10 triangular lattice, y= 1.0475506882612993
 ----------------------------------------------------------------------
 Symbolic Z-matrix:
 Charge =  0 Multiplicity = 1

                         Standard orientation:
 ---------------------------------------------------------------------
 Center     Atomic      Atomic             Coordinates (Angstroms)
 Number     Number       Type             X           Y           Z
 ---------------------------------------------------------------------
      1          1           0        1.951019    1.932743    0.000000
      2          1           0        1.951019    0.749054    0.000000
      3          1           0        0.975510    1.262294    0.000000
      4          1           0        0.975510    0.078604    0.000000
      5          1           0        0.000000    0.591845    0.000000
      6          1           0       -0.000000   -0.591845   -0.000000
      7          1           0       -0.975510   -0.078604   -0.000000
      8          1           0       -0.975510   -1.262294   -0.000000
      9          1           0       -1.951019   -0.749054   -0.000000
     10          1           0       -1.951019   -1.932743   -0.000000
 ---------------------------------------------------------------------

 SCF Done:  E(RHF) =  -4.86132847821     A.U. after   10 cycles
 E2 =    -0.1149428213D+00 EUMP2 =    -0.49762712995285D+01

 The electronic state is 1-AG.
 Alpha  occ. eigenvalues --   -0.83204  -0.73858  -0.55251  -0.32348  -0.30440
 Alpha virt. eigenvalues --    0.01109   0.18976   0.24357   0.51065   0.57396

 Mulliken charges:
               1
     1  H   -0.074691
     2  H    0.140551
     3  H    0.112397
     4  H   -0.121343
     5  H   -0.056915
     6  H   -0.056915
     7  H   -0.121343
     8  H    0.112397
     9  H    0.140551
    10  H   -0.074691
 Sum of Mulliken charges =   0.00000

 Dipole moment (field-independent basis, Debye):
    X=             -0.0000    Y=             -0.0000    Z=             -0.0000  Tot=              0.0000
 Quadrupole moment (field-independent basis, Debye-Ang):
   XX=            -12.9532   YY=            -15.1420   ZZ=            -13.0386
   XY=             -0.1251   XZ=             -0.0000   YZ=             -0.0000

 Normal termination of Gaussian 09 at Thu Feb  9 15:38:23 2017.
