 Gaussian 09, Revision E.01,
 Gaussian 09:  ES64L-G09RevE.01 30-Nov-2015

 ----------------------------------------------------------------------
 #rhf/gen scf(symm,tight,novaracc,noincfock,fulldiag) stable(crhf) geom
 =nocrowd test
 ----------------------------------------------------------------------

 ----------------------------------------------------------------------
 hf stability analysis of h10 triangular lattice, y= 1.0030322130183893
 ----------------------------------------------------------------------
 Symbolic Z-matrix:
 Charge =  0 Multiplicity = 1

                         Standard orientation:
 ---------------------------------------------------------------------
 Center     Atomic      Atomic             Coordinates (Angstroms)
 Number     Number       Type             X           Y           Z
 ---------------------------------------------------------------------
      1          1           0        1.996961    1.745159    0.000000
      2          1           0        1.996961    0.588701    0.000000
      3          1           0        0.998481    1.161694    0.000000
      4          1           0        0.998481    0.005236    0.000000
      5          1           0        0.000000    0.578229    0.000000
      6          1           0       -0.000000   -0.578229    0.000000
      7          1           0       -0.998481   -0.005236    0.000000
      8          1           0       -0.998481   -1.161694    0.000000
      9          1           0       -1.996961   -0.588701    0.000000
     10          1           0       -1.996961   -1.745159    0.000000
 ---------------------------------------------------------------------

 SCF Done:  E(RHF) =  -4.86760730782     A.U. after   10 cycles
 E2 =    -0.1132095509D+00 EUMP2 =    -0.49808168586783D+01

 The electronic state is 1-AG.
 Alpha  occ. eigenvalues --   -0.84132  -0.74014  -0.55129  -0.33829  -0.30858
 Alpha virt. eigenvalues --   -0.00042   0.21777   0.23843   0.56094   0.57768

 Mulliken charges:
               1
     1  H   -0.090159
     2  H    0.145600
     3  H    0.108324
     4  H   -0.121089
     5  H   -0.042677
     6  H   -0.042677
     7  H   -0.121089
     8  H    0.108324
     9  H    0.145600
    10  H   -0.090159
 Sum of Mulliken charges =   0.00000

 Dipole moment (field-independent basis, Debye):
    X=             -0.0000    Y=              0.0000    Z=              0.0000  Tot=              0.0000
 Quadrupole moment (field-independent basis, Debye-Ang):
   XX=            -13.5401   YY=            -15.4754   ZZ=            -12.9916
   XY=             -0.9676   XZ=             -0.0000   YZ=             -0.0000

 Normal termination of Gaussian 09 at Thu Feb  9 15:36:20 2017.
