 Gaussian 09, Revision E.01,
 Gaussian 09:  ES64L-G09RevE.01 30-Nov-2015

 ----------------------------------------------------------------------
 #rhf/gen scf(symm,tight,novaracc,noincfock,fulldiag) stable(crhf) geom
 =nocrowd test
 ----------------------------------------------------------------------

 ----------------------------------------------------------------------
 hf stability analysis of h10 triangular lattice, y= 1.0112093019289397
 ----------------------------------------------------------------------
 Symbolic Z-matrix:
 Charge =  0 Multiplicity = 1

                         Standard orientation:
 ---------------------------------------------------------------------
 Center     Atomic      Atomic             Coordinates (Angstroms)
 Number     Number       Type             X           Y           Z
 ---------------------------------------------------------------------
      1          1           0        1.988700    1.780291   -0.000000
      2          1           0        1.988700    0.619030   -0.000000
      3          1           0        0.994350    1.180461   -0.000000
      4          1           0        0.994350    0.019200   -0.000000
      5          1           0       -0.000000    0.580631   -0.000000
      6          1           0       -0.000000   -0.580631    0.000000
      7          1           0       -0.994350   -0.019200   -0.000000
      8          1           0       -0.994350   -1.180461   -0.000000
      9          1           0       -1.988700   -0.619030   -0.000000
     10          1           0       -1.988700   -1.780291   -0.000000
 ---------------------------------------------------------------------

 SCF Done:  E(RHF) =  -4.86696679224     A.U. after   10 cycles
 E2 =    -0.1134540325D+00 EUMP2 =    -0.49804208247519D+01

 The electronic state is 1-AG.
 Alpha  occ. eigenvalues --   -0.83972  -0.73994  -0.55155  -0.33452  -0.30907
 Alpha virt. eigenvalues --    0.00167   0.21243   0.23961   0.56328   0.56457

 Mulliken charges:
               1
     1  H   -0.087893
     2  H    0.145153
     3  H    0.109391
     4  H   -0.121360
     5  H   -0.045291
     6  H   -0.045291
     7  H   -0.121360
     8  H    0.109391
     9  H    0.145153
    10  H   -0.087893
 Sum of Mulliken charges =  -0.00000

 Dipole moment (field-independent basis, Debye):
    X=              0.0000    Y=             -0.0000    Z=             -0.0000  Tot=              0.0000
 Quadrupole moment (field-independent basis, Debye-Ang):
   XX=            -13.4272   YY=            -15.4474   ZZ=            -13.0004
   XY=             -0.8300   XZ=              0.0000   YZ=              0.0000

 Normal termination of Gaussian 09 at Thu Feb  9 15:36:44 2017.
