 Gaussian 09, Revision E.01,
 Gaussian 09:  ES64L-G09RevE.01 30-Nov-2015

 ----------------------------------------------------------------------
 #rhf/gen scf(symm,tight,novaracc,noincfock,fulldiag) stable(crhf) geom
 =nocrowd test
 ----------------------------------------------------------------------

 hf stability analysis of h10 triangular lattice, y= 0.9735041708442322
 4
 ----------------------------------------------------------------------
 Symbolic Z-matrix:
 Charge =  0 Multiplicity = 1

                         Standard orientation:
 ---------------------------------------------------------------------
 Center     Atomic      Atomic             Coordinates (Angstroms)
 Number     Number       Type             X           Y           Z
 ---------------------------------------------------------------------
      1          1           0        2.025919    1.615619   -0.000000
      2          1           0        2.025919    0.475691   -0.000000
      3          1           0        1.012959    1.092791   -0.000000
      4          1           0        1.012959   -0.047137   -0.000000
      5          1           0       -0.000000    0.569964    0.000000
      6          1           0       -0.000000   -0.569964   -0.000000
      7          1           0       -1.012959    0.047137   -0.000000
      8          1           0       -1.012959   -1.092791   -0.000000
      9          1           0       -2.025919   -0.475691   -0.000000
     10          1           0       -2.025919   -1.615619   -0.000000
 ---------------------------------------------------------------------

 SCF Done:  E(RHF) =  -4.86813894577     A.U. after   10 cycles
 E2 =    -0.1126143589D+00 EUMP2 =    -0.49807533047092D+01

 The electronic state is 1-AG.
 Alpha  occ. eigenvalues --   -0.84668  -0.74054  -0.55025  -0.35229  -0.30559
 Alpha virt. eigenvalues --   -0.00771   0.23366   0.23752   0.55276   0.62739

 Mulliken charges:
               1
     1  H   -0.095853
     2  H    0.145188
     3  H    0.103022
     4  H   -0.119143
     5  H   -0.033214
     6  H   -0.033214
     7  H   -0.119143
     8  H    0.103022
     9  H    0.145188
    10  H   -0.095853
 Sum of Mulliken charges =   0.00000

 Dipole moment (field-independent basis, Debye):
    X=             -0.0000    Y=              0.0000    Z=             -0.0000  Tot=              0.0000
 Quadrupole moment (field-independent basis, Debye-Ang):
   XX=            -13.9615   YY=            -15.4621   ZZ=            -12.9594
   XY=             -1.3892   XZ=             -0.0000   YZ=             -0.0000

 Normal termination of Gaussian 09 at Thu Feb  9 15:34:52 2017.
