 Gaussian 09, Revision E.01,
 Gaussian 09:  ES64L-G09RevE.01 30-Nov-2015

 ----------------------------------------------------------------------
 #rhf/gen scf(symm,tight,novaracc,noincfock,fulldiag) stable(crhf) geom
 =nocrowd test
 ----------------------------------------------------------------------

 ----------------------------------------------------------------------
 hf stability analysis of h10 triangular lattice, y= 1.4756312273998002
 ----------------------------------------------------------------------
 Symbolic Z-matrix:
 Charge =  0 Multiplicity = 1

                         Standard orientation:
 ---------------------------------------------------------------------
 Center     Atomic      Atomic             Coordinates (Angstroms)
 Number     Number       Type             X           Y           Z
 ---------------------------------------------------------------------
      1          1           0        1.512754    3.415451   -0.000000
      2          1           0        1.512754    1.888831   -0.000000
      3          1           0        0.756377    2.089380   -0.000000
      4          1           0        0.756377    0.562760   -0.000000
      5          1           0       -0.000000    0.763310   -0.000000
      6          1           0       -0.000000   -0.763310   -0.000000
      7          1           0       -0.756377   -0.562760   -0.000000
      8          1           0       -0.756377   -2.089380   -0.000000
      9          1           0       -1.512754   -1.888831   -0.000000
     10          1           0       -1.512754   -3.415451   -0.000000
 ---------------------------------------------------------------------

 SCF Done:  E(RHF) =  -4.87041552500     A.U. after    9 cycles
 E2 =    -0.3873491646D+00 EUMP2 =    -0.52577646895453D+01

 The electronic state is 1-AG.
 Alpha  occ. eigenvalues --   -0.78549  -0.71658  -0.60904  -0.47425  -0.14258
 Alpha virt. eigenvalues --   -0.04958   0.17431   0.28710   0.45176   0.60998

 Mulliken charges:
               1
     1  H   -0.132196
     2  H    0.034507
     3  H    0.056172
     4  H    0.016986
     5  H    0.024531
     6  H    0.024531
     7  H    0.016986
     8  H    0.056172
     9  H    0.034507
    10  H   -0.132196
 Sum of Mulliken charges =  -0.00000

 Dipole moment (field-independent basis, Debye):
    X=              0.0000    Y=             -0.0000    Z=              0.0000  Tot=              0.0000
 Quadrupole moment (field-independent basis, Debye-Ang):
   XX=            -14.1308   YY=            -28.5473   ZZ=            -12.8879
   XY=             -7.4635   XZ=              0.0000   YZ=             -0.0000

 Normal termination of Gaussian 09 at Thu Feb  9 15:50:53 2017.
