 Gaussian 09, Revision E.01,
 Gaussian 09:  ES64L-G09RevE.01 30-Nov-2015

 ----------------------------------------------------------------------
 #rhf/gen scf(symm,tight,novaracc,noincfock,fulldiag) stable(crhf) geom
 =nocrowd test
 ----------------------------------------------------------------------

 ----------------------------------------------------------------------
 hf stability analysis of h10 triangular lattice, y= 2.1156395034680107
 ----------------------------------------------------------------------
 Symbolic Z-matrix:
 Charge =  0 Multiplicity = 1

                         Standard orientation:
 ---------------------------------------------------------------------
 Center     Atomic      Atomic             Coordinates (Angstroms)
 Number     Number       Type             X           Y           Z
 ---------------------------------------------------------------------
      1          1           0        1.082616    5.193272    0.000000
      2          1           0        1.082616    3.060104    0.000000
      3          1           0        0.541308    3.129928    0.000000
      4          1           0        0.541308    0.996760    0.000000
      5          1           0        0.000000    1.066584    0.000000
      6          1           0       -0.000000   -1.066584    0.000000
      7          1           0       -0.541308   -0.996760    0.000000
      8          1           0       -0.541308   -3.129928    0.000000
      9          1           0       -1.082616   -3.060104    0.000000
     10          1           0       -1.082616   -5.193272    0.000000
 ---------------------------------------------------------------------

 SCF Done:  E(RHF) =  -4.71126910850     A.U. after    5 cycles
 E2 =    -0.8692058334D+00 EUMP2 =    -0.55804749418823D+01

 The electronic state is 1-AG.
 Alpha  occ. eigenvalues --   -0.73331  -0.71259  -0.68192  -0.65125  -0.20209
 Alpha virt. eigenvalues --   -0.15196   0.46227   0.52430   0.61291   0.69584

 Mulliken charges:
               1
     1  H   -0.001056
     2  H    0.001139
     3  H   -0.000329
     4  H   -0.000203
     5  H    0.000450
     6  H    0.000450
     7  H   -0.000203
     8  H   -0.000329
     9  H    0.001139
    10  H   -0.001056
 Sum of Mulliken charges =   0.00000

 Dipole moment (field-independent basis, Debye):
    X=              0.0000    Y=             -0.0000    Z=             -0.0000  Tot=              0.0000
 Quadrupole moment (field-independent basis, Debye-Ang):
   XX=            -12.4576   YY=            -16.1845   ZZ=            -13.3539
   XY=             -0.7391   XZ=             -0.0000   YZ=             -0.0000

 Normal termination of Gaussian 09 at Thu Feb  9 15:58:03 2017.
