 Gaussian 09, Revision E.01,
 Gaussian 09:  ES64L-G09RevE.01 30-Nov-2015

 ----------------------------------------------------------------------
 #rhf/gen scf(symm,tight,novaracc,noincfock,fulldiag) stable(crhf) geom
 =nocrowd test
 ----------------------------------------------------------------------

 hf stability analysis of h10 triangular lattice, y= 0.7604990737608597
 9
 ----------------------------------------------------------------------
 Symbolic Z-matrix:
 Charge =  0 Multiplicity = 1

                         Standard orientation:
 ---------------------------------------------------------------------
 Center     Atomic      Atomic             Coordinates (Angstroms)
 Number     Number       Type             X           Y           Z
 ---------------------------------------------------------------------
      1          1           0        2.149138    0.541036    0.000000
      2          1           0        2.149138   -0.533534    0.000000
      3          1           0        1.074569    0.539161    0.000000
      4          1           0        1.074569   -0.535410    0.000000
      5          1           0        0.000000    0.537285    0.000000
      6          1           0       -0.000000   -0.537285    0.000000
      7          1           0       -1.074569    0.535410   -0.000000
      8          1           0       -1.074569   -0.539161    0.000000
      9          1           0       -2.149138    0.533534   -0.000000
     10          1           0       -2.149138   -0.541036    0.000000
 ---------------------------------------------------------------------

 SCF Done:  E(RHF) =  -4.88666365946     A.U. after    9 cycles
 E2 =    -0.1049695033D+00 EUMP2 =    -0.49916331628051D+01

 The electronic state is 1-AG.
 Alpha  occ. eigenvalues --   -0.87771  -0.74531  -0.52638  -0.46876  -0.31224
 Alpha virt. eigenvalues --   -0.01293   0.15323   0.36834   0.51280   0.90373

 Mulliken charges:
               1
     1  H    0.041029
     2  H    0.039938
     3  H   -0.033376
     4  H   -0.033405
     5  H   -0.014185
     6  H   -0.014185
     7  H   -0.033405
     8  H   -0.033376
     9  H    0.039938
    10  H    0.041029
 Sum of Mulliken charges =  -0.00000

 Dipole moment (field-independent basis, Debye):
    X=             -0.0000    Y=              0.0000    Z=             -0.0000  Tot=              0.0000
 Quadrupole moment (field-independent basis, Debye-Ang):
   XX=            -10.0642   YY=            -17.4088   ZZ=            -12.9543
   XY=              0.0258   XZ=             -0.0000   YZ=              0.0000

 Normal termination of Gaussian 09 at Thu Feb  9 15:23:03 2017.
