 Gaussian 09, Revision E.01,
 Gaussian 09:  ES64L-G09RevE.01 30-Nov-2015

 ----------------------------------------------------------------------
 #rhf/gen scf(symm,tight,novaracc,noincfock,fulldiag) stable(crhf) geom
 =nocrowd test
 ----------------------------------------------------------------------

 ----------------------------------------------------------------------
 hf stability analysis of h10 triangular lattice, y= 2.5066432657105051
 ----------------------------------------------------------------------
 Symbolic Z-matrix:
 Charge =  0 Multiplicity = 1

                         Standard orientation:
 ---------------------------------------------------------------------
 Center     Atomic      Atomic             Coordinates (Angstroms)
 Number     Number       Type             X           Y           Z
 ---------------------------------------------------------------------
      1          1           0        0.917448    6.208706   -0.000000
      2          1           0        0.917448    3.691503   -0.000000
      3          1           0        0.458724    3.733654   -0.000000
      4          1           0        0.458724    1.216451   -0.000000
      5          1           0        0.000000    1.258602   -0.000000
      6          1           0       -0.000000   -1.258602    0.000000
      7          1           0       -0.458724   -1.216451    0.000000
      8          1           0       -0.458724   -3.733654    0.000000
      9          1           0       -0.917448   -3.691503    0.000000
     10          1           0       -0.917448   -6.208706    0.000000
 ---------------------------------------------------------------------

 SCF Done:  E(RHF) =  -4.31503096345     A.U. after    5 cycles
 E2 =    -0.1044609962D+01 EUMP2 =    -0.53596409252614D+01

 The electronic state is 1-AG.
 Alpha  occ. eigenvalues --   -0.74094  -0.73241  -0.72102  -0.71104  -0.20538
 Alpha virt. eigenvalues --   -0.16322   0.58581   0.62679   0.68241   0.73186

 Mulliken charges:
               1
     1  H    0.001264
     2  H   -0.000188
     3  H   -0.001078
     4  H   -0.000064
     5  H    0.000066
     6  H    0.000066
     7  H   -0.000064
     8  H   -0.001078
     9  H   -0.000188
    10  H    0.001264
 Sum of Mulliken charges =   0.00000

 Dipole moment (field-independent basis, Debye):
    X=              0.0000    Y=             -0.0000    Z=              0.0000  Tot=              0.0000
 Quadrupole moment (field-independent basis, Debye-Ang):
   XX=            -12.7808   YY=            -14.6369   ZZ=            -13.5123
   XY=             -0.2426   XZ=              0.0000   YZ=              0.0000

 Normal termination of Gaussian 09 at Thu Feb  9 16:00:00 2017.
