 Gaussian 09, Revision E.01,
 Gaussian 09:  ES64L-G09RevE.01 30-Nov-2015

 ----------------------------------------------------------------------
 #rhf/gen scf(symm,tight,novaracc,noincfock,fulldiag) stable(crhf) geom
 =nocrowd test
 ----------------------------------------------------------------------

 ----------------------------------------------------------------------
 hf stability analysis of h10 triangular lattice, y= 1.2377217382351597
 ----------------------------------------------------------------------
 Symbolic Z-matrix:
 Charge =  0 Multiplicity = 1

                         Standard orientation:
 ---------------------------------------------------------------------
 Center     Atomic      Atomic             Coordinates (Angstroms)
 Number     Number       Type             X           Y           Z
 ---------------------------------------------------------------------
      1          1           0        1.745972    2.648749    0.000000
      2          1           0        1.745972    1.326047    0.000000
      3          1           0        0.872986    1.655050    0.000000
      4          1           0        0.872986    0.332348    0.000000
      5          1           0        0.000000    0.661351    0.000000
      6          1           0       -0.000000   -0.661351   -0.000000
      7          1           0       -0.872986   -0.332348    0.000000
      8          1           0       -0.872986   -1.655050   -0.000000
      9          1           0       -1.745972   -1.326047   -0.000000
     10          1           0       -1.745972   -2.648749   -0.000000
 ---------------------------------------------------------------------

 SCF Done:  E(RHF) =  -4.75581703974     A.U. after   11 cycles
 E2 =    -0.1315584810D+00 EUMP2 =    -0.48873755207759D+01

 The electronic state is 1-AG.
 Alpha  occ. eigenvalues --   -0.78219  -0.72068  -0.55150  -0.34219  -0.18308
 Alpha virt. eigenvalues --    0.01574   0.14976   0.17421   0.39895   0.63295

 Mulliken charges:
               1
     1  H    0.045187
     2  H    0.055299
     3  H    0.115165
     4  H   -0.080351
     5  H   -0.135300
     6  H   -0.135300
     7  H   -0.080351
     8  H    0.115165
     9  H    0.055299
    10  H    0.045187
 Sum of Mulliken charges =   0.00000

 Dipole moment (field-independent basis, Debye):
    X=             -0.0000    Y=              0.0000    Z=             -0.0000  Tot=              0.0000
 Quadrupole moment (field-independent basis, Debye-Ang):
   XX=            -11.5601   YY=             -8.3516   ZZ=            -13.1861
   XY=              4.7873   XZ=              0.0000   YZ=              0.0000

 Normal termination of Gaussian 09 at Thu Feb  9 15:45:16 2017.
