 Gaussian 09, Revision E.01,
 Gaussian 09:  ES64L-G09RevE.01 30-Nov-2015

 ----------------------------------------------------------------------
 #rhf/gen scf(symm,tight,novaracc,noincfock,fulldiag) stable(crhf) geom
 =nocrowd test
 ----------------------------------------------------------------------

 ----------------------------------------------------------------------
 hf stability analysis of h10 triangular lattice, y= 1.4005956553347587
 ----------------------------------------------------------------------
 Symbolic Z-matrix:
 Charge =  0 Multiplicity = 1

                         Standard orientation:
 ---------------------------------------------------------------------
 Center     Atomic      Atomic             Coordinates (Angstroms)
 Number     Number       Type             X           Y           Z
 ---------------------------------------------------------------------
      1          1           0        1.581785    3.184448    0.000000
      2          1           0        1.581785    1.724451    0.000000
      3          1           0        0.790892    1.957223    0.000000
      4          1           0        0.790892    0.497226    0.000000
      5          1           0       -0.000000    0.729999    0.000000
      6          1           0       -0.000000   -0.729999   -0.000000
      7          1           0       -0.790892   -0.497226   -0.000000
      8          1           0       -0.790892   -1.957223   -0.000000
      9          1           0       -1.581785   -1.724451   -0.000000
     10          1           0       -1.581785   -3.184448   -0.000000
 ---------------------------------------------------------------------

 SCF Done:  E(RHF) =  -4.82087435438     A.U. after   10 cycles
 E2 =    -0.3048180097D+00 EUMP2 =    -0.51256923640824D+01

 The electronic state is 1-AG.
 Alpha  occ. eigenvalues --   -0.80592  -0.72576  -0.60343  -0.44922  -0.12658
 Alpha virt. eigenvalues --   -0.01658   0.12757   0.24942   0.42372   0.58646

 Mulliken charges:
               1
     1  H   -0.184587
     2  H    0.043838
     3  H    0.079868
     4  H    0.026685
     5  H    0.034197
     6  H    0.034197
     7  H    0.026685
     8  H    0.079868
     9  H    0.043838
    10  H   -0.184587
 Sum of Mulliken charges =   0.00000

 Dipole moment (field-independent basis, Debye):
    X=              0.0000    Y=             -0.0000    Z=             -0.0000  Tot=              0.0000
 Quadrupole moment (field-independent basis, Debye-Ang):
   XX=            -15.3684   YY=            -30.9137   ZZ=            -12.8374
   XY=             -9.6101   XZ=             -0.0000   YZ=             -0.0000

 Normal termination of Gaussian 09 at Thu Feb  9 15:49:24 2017.
