 Gaussian 09, Revision E.01,
 Gaussian 09:  ES64L-G09RevE.01 30-Nov-2015

 ----------------------------------------------------------------------
 #rhf/gen scf(symm,tight,novaracc,noincfock,fulldiag) stable(crhf) geom
 =nocrowd test
 ----------------------------------------------------------------------

 hf stability analysis of h10 triangular lattice, y= 0.8078216382370341
 2
 ----------------------------------------------------------------------
 Symbolic Z-matrix:
 Charge =  0 Multiplicity = 1

                         Standard orientation:
 ---------------------------------------------------------------------
 Center     Atomic      Atomic             Coordinates (Angstroms)
 Number     Number       Type             X           Y           Z
 ---------------------------------------------------------------------
      1          1           0        2.141115    0.802195    0.000000
      2          1           0        2.141115   -0.276403   -0.000000
      3          1           0        1.070558    0.670747    0.000000
      4          1           0        1.070558   -0.407851   -0.000000
      5          1           0        0.000000    0.539299    0.000000
      6          1           0       -0.000000   -0.539299    0.000000
      7          1           0       -1.070558    0.407851   -0.000000
      8          1           0       -1.070558   -0.670747    0.000000
      9          1           0       -2.141115    0.276403   -0.000000
     10          1           0       -2.141115   -0.802195    0.000000
 ---------------------------------------------------------------------

 SCF Done:  E(RHF) =  -4.87982642636     A.U. after   10 cycles
 E2 =    -0.1054063599D+00 EUMP2 =    -0.49852327862948D+01

 The electronic state is 1-AG.
 Alpha  occ. eigenvalues --   -0.87594  -0.74427  -0.52708  -0.46476  -0.30824
 Alpha virt. eigenvalues --   -0.01740   0.15856   0.35804   0.51784   0.88019

 Mulliken charges:
               1
     1  H    0.077832
     2  H    0.001946
     3  H   -0.031943
     4  H   -0.034782
     5  H   -0.013054
     6  H   -0.013054
     7  H   -0.034782
     8  H   -0.031943
     9  H    0.001946
    10  H    0.077832
 Sum of Mulliken charges =  -0.00000

 Dipole moment (field-independent basis, Debye):
    X=             -0.0000    Y=             -0.0000    Z=              0.0000  Tot=              0.0000
 Quadrupole moment (field-independent basis, Debye-Ang):
   XX=            -10.1794   YY=            -17.0953   ZZ=            -12.9568
   XY=              1.7935   XZ=             -0.0000   YZ=              0.0000

 Normal termination of Gaussian 09 at Thu Feb  9 15:26:02 2017.
