 Gaussian 09, Revision E.01,
 Gaussian 09:  ES64L-G09RevE.01 30-Nov-2015

 ----------------------------------------------------------------------
 #rhf/gen scf(symm,tight,novaracc,noincfock,fulldiag) stable(crhf) geom
 =nocrowd test
 ----------------------------------------------------------------------

 ----------------------------------------------------------------------
 hf stability analysis of h10 triangular lattice, y= 1.1924103273918456
 ----------------------------------------------------------------------
 Symbolic Z-matrix:
 Charge =  0 Multiplicity = 1

                         Standard orientation:
 ---------------------------------------------------------------------
 Center     Atomic      Atomic             Coordinates (Angstroms)
 Number     Number       Type             X           Y           Z
 ---------------------------------------------------------------------
      1          1           0        1.794455    2.488761    0.000000
      2          1           0        1.794455    1.201796    0.000000
      3          1           0        0.897227    1.566122    0.000000
      4          1           0        0.897227    0.279156    0.000000
      5          1           0        0.000000    0.643483    0.000000
      6          1           0       -0.000000   -0.643483   -0.000000
      7          1           0       -0.897227   -0.279156   -0.000000
      8          1           0       -0.897227   -1.566122   -0.000000
      9          1           0       -1.794455   -1.201796   -0.000000
     10          1           0       -1.794455   -2.488761   -0.000000
 ---------------------------------------------------------------------

 SCF Done:  E(RHF) =  -4.79157158812     A.U. after   10 cycles
 E2 =    -0.1263660053D+00 EUMP2 =    -0.49179375934706D+01

 The electronic state is 1-AG.
 Alpha  occ. eigenvalues --   -0.79494  -0.72631  -0.55263  -0.33647  -0.21509
 Alpha virt. eigenvalues --    0.02689   0.14190   0.20574   0.39915   0.61902

 Mulliken charges:
               1
     1  H    0.012205
     2  H    0.087017
     3  H    0.111245
     4  H   -0.101053
     5  H   -0.109415
     6  H   -0.109415
     7  H   -0.101053
     8  H    0.111245
     9  H    0.087017
    10  H    0.012205
 Sum of Mulliken charges =  -0.00000

 Dipole moment (field-independent basis, Debye):
    X=             -0.0000    Y=             -0.0000    Z=             -0.0000  Tot=              0.0000
 Quadrupole moment (field-independent basis, Debye-Ang):
   XX=            -11.6744   YY=            -10.7344   ZZ=            -13.1630
   XY=              3.6026   XZ=              0.0000   YZ=              0.0000

 Normal termination of Gaussian 09 at Thu Feb  9 15:43:52 2017.
