 Gaussian 09, Revision E.01,
 Gaussian 09:  ES64L-G09RevE.01 30-Nov-2015

 ----------------------------------------------------------------------
 #rhf/gen scf(symm,tight,novaracc,noincfock,fulldiag) stable(crhf) geom
 =nocrowd test
 ----------------------------------------------------------------------

 hf stability analysis of h10 triangular lattice, y= 0.9706441525749213
 2
 ----------------------------------------------------------------------
 Symbolic Z-matrix:
 Charge =  0 Multiplicity = 1

                         Standard orientation:
 ---------------------------------------------------------------------
 Center     Atomic      Atomic             Coordinates (Angstroms)
 Number     Number       Type             X           Y           Z
 ---------------------------------------------------------------------
      1          1           0        2.028641    1.602843   -0.000000
      2          1           0        2.028641    0.464445   -0.000000
      3          1           0        1.014320    1.086021   -0.000000
      4          1           0        1.014320   -0.052377   -0.000000
      5          1           0        0.000000    0.569199    0.000000
      6          1           0       -0.000000   -0.569199    0.000000
      7          1           0       -1.014320    0.052377   -0.000000
      8          1           0       -1.014320   -1.086021   -0.000000
      9          1           0       -2.028641   -0.464445   -0.000000
     10          1           0       -2.028641   -1.602843   -0.000000
 ---------------------------------------------------------------------

 SCF Done:  E(RHF) =  -4.86805071906     A.U. after   10 cycles
 E2 =    -0.1125808454D+00 EUMP2 =    -0.49806315644806D+01

 The electronic state is 1-AG.
 Alpha  occ. eigenvalues --   -0.84716  -0.74055  -0.55014  -0.35362  -0.30525
 Alpha virt. eigenvalues --   -0.00838   0.23317   0.23945   0.55200   0.63238

 Mulliken charges:
               1
     1  H   -0.096181
     2  H    0.144968
     3  H    0.102376
     4  H   -0.118867
     5  H   -0.032296
     6  H   -0.032296
     7  H   -0.118867
     8  H    0.102376
     9  H    0.144968
    10  H   -0.096181
 Sum of Mulliken charges =   0.00000

 Dipole moment (field-independent basis, Debye):
    X=              0.0000    Y=             -0.0000    Z=             -0.0000  Tot=              0.0000
 Quadrupole moment (field-independent basis, Debye-Ang):
   XX=            -14.0032   YY=            -15.4518   ZZ=            -12.9563
   XY=             -1.4233   XZ=             -0.0000   YZ=             -0.0000

 Normal termination of Gaussian 09 at Thu Feb  9 15:34:43 2017.
