 Gaussian 09, Revision E.01,
 Gaussian 09:  ES64L-G09RevE.01 30-Nov-2015

 ----------------------------------------------------------------------
 #rhf/gen scf(symm,tight,novaracc,noincfock,fulldiag) stable(crhf) geom
 =nocrowd test
 ----------------------------------------------------------------------

 hf stability analysis of h10 triangular lattice, y= 0.8368882343931486
 3
 ----------------------------------------------------------------------
 Symbolic Z-matrix:
 Charge =  0 Multiplicity = 1

                         Standard orientation:
 ---------------------------------------------------------------------
 Center     Atomic      Atomic             Coordinates (Angstroms)
 Number     Number       Type             X           Y           Z
 ---------------------------------------------------------------------
      1          1           0        2.129305    0.956185   -0.000000
      2          1           0        2.129305   -0.128395   -0.000000
      3          1           0        1.064653    0.749237   -0.000000
      4          1           0        1.064653   -0.335342   -0.000000
      5          1           0        0.000000    0.542290   -0.000000
      6          1           0       -0.000000   -0.542290   -0.000000
      7          1           0       -1.064653    0.335342   -0.000000
      8          1           0       -1.064653   -0.749237   -0.000000
      9          1           0       -2.129305    0.128395   -0.000000
     10          1           0       -2.129305   -0.956185   -0.000000
 ---------------------------------------------------------------------

 SCF Done:  E(RHF) =  -4.84750402347     A.U. after   10 cycles
 E2 =    -0.1148946382D+00 EUMP2 =    -0.49623986616315D+01

 The electronic state is 1-AG.
 Alpha  occ. eigenvalues --   -0.86185  -0.73713  -0.54476  -0.40066  -0.28892
 Alpha virt. eigenvalues --   -0.03023   0.21186   0.32158   0.52325   0.86379

 Mulliken charges:
               1
     1  H   -0.055848
     2  H    0.090390
     3  H    0.038017
     4  H   -0.080479
     5  H    0.007920
     6  H    0.007920
     7  H   -0.080479
     8  H    0.038017
     9  H    0.090390
    10  H   -0.055848
 Sum of Mulliken charges =  -0.00000

 Dipole moment (field-independent basis, Debye):
    X=             -0.0000    Y=             -0.0000    Z=             -0.0000  Tot=              0.0000
 Quadrupole moment (field-independent basis, Debye-Ang):
   XX=            -15.7735   YY=            -13.9310   ZZ=            -12.8245
   XY=             -1.3917   XZ=              0.0000   YZ=              0.0000

 Normal termination of Gaussian 09 at Thu Feb  9 15:27:46 2017.
