 Gaussian 09, Revision E.01,
 Gaussian 09:  ES64L-G09RevE.01 30-Nov-2015

 ----------------------------------------------------------------------
 #rhf/gen scf(symm,tight,novaracc,noincfock,fulldiag) stable(crhf) geom
 =nocrowd test
 ----------------------------------------------------------------------

 hf stability analysis of h10 triangular lattice, y= 0.8889855389276178
 9
 ----------------------------------------------------------------------
 Symbolic Z-matrix:
 Charge =  0 Multiplicity = 1

                         Standard orientation:
 ---------------------------------------------------------------------
 Center     Atomic      Atomic             Coordinates (Angstroms)
 Number     Number       Type             X           Y           Z
 ---------------------------------------------------------------------
      1          1           0        2.097655    1.219919   -0.000000
      2          1           0        2.097655    0.118975   -0.000000
      3          1           0        1.048827    0.885196   -0.000000
      4          1           0        1.048827   -0.215749    0.000000
      5          1           0        0.000000    0.550472   -0.000000
      6          1           0       -0.000000   -0.550472   -0.000000
      7          1           0       -1.048827    0.215749    0.000000
      8          1           0       -1.048827   -0.885196   -0.000000
      9          1           0       -2.097655   -0.118975    0.000000
     10          1           0       -2.097655   -1.219919   -0.000000
 ---------------------------------------------------------------------

 SCF Done:  E(RHF) =  -4.85767761545     A.U. after   10 cycles
 E2 =    -0.1132988701D+00 EUMP2 =    -0.49709764855829D+01

 The electronic state is 1-AG.
 Alpha  occ. eigenvalues --   -0.85799  -0.73912  -0.54673  -0.38657  -0.29477
 Alpha virt. eigenvalues --   -0.02425   0.21907   0.29335   0.53244   0.77972

 Mulliken charges:
               1
     1  H   -0.085577
     2  H    0.122879
     3  H    0.071636
     4  H   -0.102492
     5  H   -0.006446
     6  H   -0.006446
     7  H   -0.102492
     8  H    0.071636
     9  H    0.122879
    10  H   -0.085577
 Sum of Mulliken charges =   0.00000

 Dipole moment (field-independent basis, Debye):
    X=             -0.0000    Y=             -0.0000    Z=              0.0000  Tot=              0.0000
 Quadrupole moment (field-independent basis, Debye-Ang):
   XX=            -15.1744   YY=            -14.6566   ZZ=            -12.8696
   XY=             -1.8050   XZ=              0.0000   YZ=              0.0000

 Normal termination of Gaussian 09 at Thu Feb  9 15:30:40 2017.
