 Gaussian 09, Revision E.01,
 Gaussian 09:  ES64L-G09RevE.01 30-Nov-2015

 ----------------------------------------------------------------------
 #rhf/gen scf(symm,tight,novaracc,noincfock,fulldiag) stable(crhf) geom
 =nocrowd test
 ----------------------------------------------------------------------

 ----------------------------------------------------------------------
 hf stability analysis of h10 triangular lattice, y= 1.3174138077523165
 ----------------------------------------------------------------------
 Symbolic Z-matrix:
 Charge =  0 Multiplicity = 1

                         Standard orientation:
 ---------------------------------------------------------------------
 Center     Atomic      Atomic             Coordinates (Angstroms)
 Number     Number       Type             X           Y           Z
 ---------------------------------------------------------------------
      1          1           0        1.663362    2.917658   -0.000000
      2          1           0        1.663362    1.529264   -0.000000
      3          1           0        0.831681    1.805928   -0.000000
      4          1           0        0.831681    0.417534   -0.000000
      5          1           0       -0.000000    0.694197   -0.000000
      6          1           0       -0.000000   -0.694197    0.000000
      7          1           0       -0.831681   -0.417534    0.000000
      8          1           0       -0.831681   -1.805928    0.000000
      9          1           0       -1.663362   -1.529264    0.000000
     10          1           0       -1.663362   -2.917658    0.000000
 ---------------------------------------------------------------------

 SCF Done:  E(RHF) =  -4.74949782042     A.U. after   11 cycles
 E2 =    -0.2179354070D+00 EUMP2 =    -0.49674332274098D+01

 The electronic state is 1-AG.
 Alpha  occ. eigenvalues --   -0.83015  -0.73736  -0.59683  -0.41919  -0.11212
 Alpha virt. eigenvalues --    0.01725   0.08747   0.20751   0.39217   0.55767

 Mulliken charges:
               1
     1  H   -0.244218
     2  H    0.049389
     3  H    0.118175
     4  H    0.034644
     5  H    0.042010
     6  H    0.042010
     7  H    0.034644
     8  H    0.118175
     9  H    0.049389
    10  H   -0.244218
 Sum of Mulliken charges =  -0.00000

 Dipole moment (field-independent basis, Debye):
    X=              0.0000    Y=             -0.0000    Z=              0.0000  Tot=              0.0000
 Quadrupole moment (field-independent basis, Debye-Ang):
   XX=            -17.2181   YY=            -31.9823   ZZ=            -12.7946
   XY=            -11.6937   XZ=              0.0000   YZ=              0.0000

 Normal termination of Gaussian 09 at Thu Feb  9 15:47:28 2017.
