 Gaussian 09, Revision E.01,
 Gaussian 09:  ES64L-G09RevE.01 30-Nov-2015

 ----------------------------------------------------------------------
 #rhf/gen scf(symm,tight,novaracc,noincfock,fulldiag) stable(crhf) geom
 =nocrowd test
 ----------------------------------------------------------------------

 ----------------------------------------------------------------------
 hf stability analysis of h10 triangular lattice, y= 2.2510753219802888
 ----------------------------------------------------------------------
 Symbolic Z-matrix:
 Charge =  0 Multiplicity = 1

                         Standard orientation:
 ---------------------------------------------------------------------
 Center     Atomic      Atomic             Coordinates (Angstroms)
 Number     Number       Type             X           Y           Z
 ---------------------------------------------------------------------
      1          1           0        1.019316    5.547962    0.000000
      2          1           0        1.019316    3.282322    0.000000
      3          1           0        0.509658    3.340391    0.000000
      4          1           0        0.509658    1.074751    0.000000
      5          1           0       -0.000000    1.132820    0.000000
      6          1           0       -0.000000   -1.132820    0.000000
      7          1           0       -0.509658   -1.074751    0.000000
      8          1           0       -0.509658   -3.340391    0.000000
      9          1           0       -1.019316   -3.282322    0.000000
     10          1           0       -1.019316   -5.547962    0.000000
 ---------------------------------------------------------------------

 SCF Done:  E(RHF) =  -4.58898314787     A.U. after    5 cycles
 E2 =    -0.9318796514D+00 EUMP2 =    -0.55208627992432D+01

 The electronic state is 1-AG.
 Alpha  occ. eigenvalues --   -0.73473  -0.71908  -0.69675  -0.67550  -0.20413
 Alpha virt. eigenvalues --   -0.15713   0.50797   0.56212   0.63795   0.70757

 Mulliken charges:
               1
     1  H    0.000660
     2  H    0.000325
     3  H   -0.001053
     4  H   -0.000150
     5  H    0.000218
     6  H    0.000218
     7  H   -0.000150
     8  H   -0.001053
     9  H    0.000325
    10  H    0.000660
 Sum of Mulliken charges =   0.00000

 Dipole moment (field-independent basis, Debye):
    X=              0.0000    Y=             -0.0000    Z=              0.0000  Tot=              0.0000
 Quadrupole moment (field-independent basis, Debye-Ang):
   XX=            -12.5753   YY=            -15.4659   ZZ=            -13.4220
   XY=             -0.4925   XZ=             -0.0000   YZ=              0.0000

 Normal termination of Gaussian 09 at Thu Feb  9 15:58:51 2017.
