 Gaussian 09, Revision E.01,
 Gaussian 09:  ES64L-G09RevE.01 30-Nov-2015

 ----------------------------------------------------------------------
 #rhf/gen scf(symm,tight,novaracc,noincfock,fulldiag) stable(crhf) geom
 =nocrowd test
 ----------------------------------------------------------------------

 ----------------------------------------------------------------------
 hf stability analysis of h10 triangular lattice, y= 1.1719480115630720
 ----------------------------------------------------------------------
 Symbolic Z-matrix:
 Charge =  0 Multiplicity = 1

                         Standard orientation:
 ---------------------------------------------------------------------
 Center     Atomic      Atomic             Coordinates (Angstroms)
 Number     Number       Type             X           Y           Z
 ---------------------------------------------------------------------
      1          1           0        1.816592    2.414580   -0.000000
      2          1           0        1.816592    1.143298   -0.000000
      3          1           0        0.908296    1.525110   -0.000000
      4          1           0        0.908296    0.253828   -0.000000
      5          1           0       -0.000000    0.635641   -0.000000
      6          1           0       -0.000000   -0.635641   -0.000000
      7          1           0       -0.908296   -0.253828   -0.000000
      8          1           0       -0.908296   -1.525110   -0.000000
      9          1           0       -1.816592   -1.143298   -0.000000
     10          1           0       -1.816592   -2.414580   -0.000000
 ---------------------------------------------------------------------

 SCF Done:  E(RHF) =  -4.80582944871     A.U. after   10 cycles
 E2 =    -0.1242958668D+00 EUMP2 =    -0.49301253155319D+01

 The electronic state is 1-AG.
 Alpha  occ. eigenvalues --   -0.80060  -0.72861  -0.55298  -0.33407  -0.22920
 Alpha virt. eigenvalues --    0.02916   0.14216   0.21796   0.40346   0.61260

 Mulliken charges:
               1
     1  H   -0.002258
     2  H    0.098052
     3  H    0.111290
     4  H   -0.106688
     5  H   -0.100397
     6  H   -0.100397
     7  H   -0.106688
     8  H    0.111290
     9  H    0.098052
    10  H   -0.002258
 Sum of Mulliken charges =  -0.00000

 Dipole moment (field-independent basis, Debye):
    X=             -0.0000    Y=             -0.0000    Z=             -0.0000  Tot=              0.0000
 Quadrupole moment (field-independent basis, Debye-Ang):
   XX=            -11.7842   YY=            -11.6700   ZZ=            -13.1491
   XY=              3.0367   XZ=              0.0000   YZ=              0.0000

 Normal termination of Gaussian 09 at Thu Feb  9 15:43:12 2017.
