 Gaussian 09, Revision E.01,
 Gaussian 09:  ES64L-G09RevE.01 30-Nov-2015

 ----------------------------------------------------------------------
 #rhf/gen scf(symm,tight,novaracc,noincfock,fulldiag) stable(crhf) geom
 =nocrowd test
 ----------------------------------------------------------------------

 ----------------------------------------------------------------------
 hf stability analysis of h10 triangular lattice, y= 1.0542517079039999
 ----------------------------------------------------------------------
 Symbolic Z-matrix:
 Charge =  0 Multiplicity = 1

                         Standard orientation:
 ---------------------------------------------------------------------
 Center     Atomic      Atomic             Coordinates (Angstroms)
 Number     Number       Type             X           Y           Z
 ---------------------------------------------------------------------
      1          1           0        1.943932    1.960221   -0.000000
      2          1           0        1.943932    0.772216   -0.000000
      3          1           0        0.971966    1.277112   -0.000000
      4          1           0        0.971966    0.089107   -0.000000
      5          1           0       -0.000000    0.594003   -0.000000
      6          1           0       -0.000000   -0.594003   -0.000000
      7          1           0       -0.971966   -0.089107   -0.000000
      8          1           0       -0.971966   -1.277112   -0.000000
      9          1           0       -1.943932   -0.772216   -0.000000
     10          1           0       -1.943932   -1.960221   -0.000000
 ---------------------------------------------------------------------

 SCF Done:  E(RHF) =  -4.85977412634     A.U. after   10 cycles
 E2 =    -0.1152862634D+00 EUMP2 =    -0.49750603897075D+01

 The electronic state is 1-AG.
 Alpha  occ. eigenvalues --   -0.83054  -0.73825  -0.55265  -0.32311  -0.30169
 Alpha virt. eigenvalues --    0.01279   0.18583   0.24398   0.50158   0.57597

 Mulliken charges:
               1
     1  H   -0.071756
     2  H    0.139271
     3  H    0.112688
     4  H   -0.121136
     5  H   -0.059067
     6  H   -0.059067
     7  H   -0.121136
     8  H    0.112688
     9  H    0.139271
    10  H   -0.071756
 Sum of Mulliken charges =  -0.00000

 Dipole moment (field-independent basis, Debye):
    X=              0.0000    Y=             -0.0000    Z=             -0.0000  Tot=              0.0000
 Quadrupole moment (field-independent basis, Debye-Ang):
   XX=            -12.8714   YY=            -15.0522   ZZ=            -13.0454
   XY=              0.0197   XZ=             -0.0000   YZ=              0.0000

 Normal termination of Gaussian 09 at Thu Feb  9 15:38:42 2017.
