 Gaussian 09, Revision E.01,
 Gaussian 09:  ES64L-G09RevE.01 30-Nov-2015

 ----------------------------------------------------------------------
 #rhf/gen scf(symm,tight,novaracc,noincfock,fulldiag) stable(crhf) geom
 =nocrowd test
 ----------------------------------------------------------------------

 ----------------------------------------------------------------------
 hf stability analysis of h10 triangular lattice, y= 1.8574471710024862
 ----------------------------------------------------------------------
 Symbolic Z-matrix:
 Charge =  0 Multiplicity = 1

                         Standard orientation:
 ---------------------------------------------------------------------
 Center     Atomic      Atomic             Coordinates (Angstroms)
 Number     Number       Type             X           Y           Z
 ---------------------------------------------------------------------
      1          1           0        1.226269    4.502981    0.000000
      2          1           0        1.226269    2.619706    0.000000
      3          1           0        0.613134    2.722309    0.000000
      4          1           0        0.613134    0.839034    0.000000
      5          1           0        0.000000    0.941638    0.000000
      6          1           0       -0.000000   -0.941638    0.000000
      7          1           0       -0.613134   -0.839034    0.000000
      8          1           0       -0.613134   -2.722309    0.000000
      9          1           0       -1.226269   -2.619706    0.000000
     10          1           0       -1.226269   -4.502981    0.000000
 ---------------------------------------------------------------------

 SCF Done:  E(RHF) =  -4.87850933673     A.U. after    7 cycles
 E2 =    -0.7300182699D+00 EUMP2 =    -0.56085276066133D+01

 The electronic state is 1-AG.
 Alpha  occ. eigenvalues --   -0.73727  -0.70365  -0.65056  -0.59158  -0.19224
 Alpha virt. eigenvalues --   -0.13400   0.36476   0.44339   0.56015   0.67356

 Mulliken charges:
               1
     1  H   -0.013731
     2  H    0.005635
     3  H    0.005766
     4  H    0.000162
     5  H    0.002169
     6  H    0.002169
     7  H    0.000162
     8  H    0.005766
     9  H    0.005635
    10  H   -0.013731
 Sum of Mulliken charges =  -0.00000

 Dipole moment (field-independent basis, Debye):
    X=             -0.0000    Y=              0.0000    Z=             -0.0000  Tot=              0.0000
 Quadrupole moment (field-independent basis, Debye-Ang):
   XX=            -12.3241   YY=            -18.6685   ZZ=            -13.1829
   XY=             -1.7369   XZ=             -0.0000   YZ=              0.0000

 Normal termination of Gaussian 09 at Thu Feb  9 15:56:01 2017.
