 Gaussian 09, Revision E.01,
 Gaussian 09:  ES64L-G09RevE.01 30-Nov-2015

 ----------------------------------------------------------------------
 #rhf/gen scf(symm,tight,novaracc,noincfock,fulldiag) stable(crhf) geom
 =nocrowd test
 ----------------------------------------------------------------------

 ----------------------------------------------------------------------
 hf stability analysis of h10 triangular lattice, y= 1.1089257086049120
 ----------------------------------------------------------------------
 Symbolic Z-matrix:
 Charge =  0 Multiplicity = 1

                         Standard orientation:
 ---------------------------------------------------------------------
 Center     Atomic      Atomic             Coordinates (Angstroms)
 Number     Number       Type             X           Y           Z
 ---------------------------------------------------------------------
      1          1           0        1.885127    2.177595   -0.000000
      2          1           0        1.885127    0.952531    0.000000
      3          1           0        0.942564    1.395063   -0.000000
      4          1           0        0.942564    0.169999    0.000000
      5          1           0       -0.000000    0.612532   -0.000000
      6          1           0       -0.000000   -0.612532   -0.000000
      7          1           0       -0.942564   -0.169999    0.000000
      8          1           0       -0.942564   -1.395063    0.000000
      9          1           0       -1.885127   -0.952531    0.000000
     10          1           0       -1.885127   -2.177595    0.000000
 ---------------------------------------------------------------------

 SCF Done:  E(RHF) =  -4.84092957338     A.U. after   10 cycles
 E2 =    -0.1188169083D+00 EUMP2 =    -0.49597464816888D+01

 The electronic state is 1-AG.
 Alpha  occ. eigenvalues --   -0.81734  -0.73461  -0.55332  -0.32699  -0.27075
 Alpha virt. eigenvalues --    0.02496   0.15824   0.24121   0.44026   0.59279

 Mulliken charges:
               1
     1  H   -0.043095
     2  H    0.124418
     3  H    0.112929
     4  H   -0.117211
     5  H   -0.077041
     6  H   -0.077041
     7  H   -0.117211
     8  H    0.112929
     9  H    0.124418
    10  H   -0.043095
 Sum of Mulliken charges =   0.00000

 Dipole moment (field-independent basis, Debye):
    X=             -0.0000    Y=             -0.0000    Z=              0.0000  Tot=              0.0000
 Quadrupole moment (field-independent basis, Debye-Ang):
   XX=            -12.2792   YY=            -13.9099   ZZ=            -13.0978
   XY=              1.3339   XZ=             -0.0000   YZ=              0.0000

 Normal termination of Gaussian 09 at Thu Feb  9 15:40:53 2017.
