 Gaussian 09, Revision E.01,
 Gaussian 09:  ES64L-G09RevE.01 30-Nov-2015

 ----------------------------------------------------------------------
 #rhf/gen scf(symm,tight,novaracc,noincfock,fulldiag) stable(crhf) geom
 =nocrowd test
 ----------------------------------------------------------------------

 hf stability analysis of h10 triangular lattice, y= 0.8142457464209300
 6
 ----------------------------------------------------------------------
 Symbolic Z-matrix:
 Charge =  0 Multiplicity = 1

                         Standard orientation:
 ---------------------------------------------------------------------
 Center     Atomic      Atomic             Coordinates (Angstroms)
 Number     Number       Type             X           Y           Z
 ---------------------------------------------------------------------
      1          1           0        2.138917    0.836652    0.000000
      2          1           0        2.138917   -0.243054    0.000000
      3          1           0        1.069459    0.688252    0.000000
      4          1           0        1.069459   -0.391453    0.000000
      5          1           0        0.000000    0.539853    0.000000
      6          1           0       -0.000000   -0.539853    0.000000
      7          1           0       -1.069459    0.391453    0.000000
      8          1           0       -1.069459   -0.688252    0.000000
      9          1           0       -2.138917    0.243054    0.000000
     10          1           0       -2.138917   -0.836652    0.000000
 ---------------------------------------------------------------------

 SCF Done:  E(RHF) =  -4.87793096358     A.U. after   10 cycles
 E2 =    -0.1055287231D+00 EUMP2 =    -0.49834596866487D+01

 The electronic state is 1-AG.
 Alpha  occ. eigenvalues --   -0.87546  -0.74399  -0.52727  -0.46366  -0.30715
 Alpha virt. eigenvalues --   -0.01858   0.15997   0.35534   0.51910   0.87390

 Mulliken charges:
               1
     1  H    0.082458
     2  H   -0.003016
     3  H   -0.031628
     4  H   -0.035087
     5  H   -0.012727
     6  H   -0.012727
     7  H   -0.035087
     8  H   -0.031628
     9  H   -0.003016
    10  H    0.082458
 Sum of Mulliken charges =   0.00000

 Dipole moment (field-independent basis, Debye):
    X=             -0.0000    Y=             -0.0000    Z=              0.0000  Tot=              0.0000
 Quadrupole moment (field-independent basis, Debye-Ang):
   XX=            -10.2115   YY=            -17.0094   ZZ=            -12.9574
   XY=              2.0207   XZ=             -0.0000   YZ=             -0.0000

 Normal termination of Gaussian 09 at Thu Feb  9 15:26:25 2017.
