 Gaussian 09, Revision E.01,
 Gaussian 09:  ES64L-G09RevE.01 30-Nov-2015

 ----------------------------------------------------------------------
 #rhf/gen scf(symm,tight,novaracc,noincfock,fulldiag) stable(crhf) geom
 =nocrowd test
 ----------------------------------------------------------------------

 ----------------------------------------------------------------------
 hf stability analysis of h10 triangular lattice, y= 1.1909200169396705
 ----------------------------------------------------------------------
 Symbolic Z-matrix:
 Charge =  0 Multiplicity = 1

                         Standard orientation:
 ---------------------------------------------------------------------
 Center     Atomic      Atomic             Coordinates (Angstroms)
 Number     Number       Type             X           Y           Z
 ---------------------------------------------------------------------
      1          1           0        1.796063    2.483401    0.000000
      2          1           0        1.796063    1.197588    0.000000
      3          1           0        0.898031    1.563154    0.000000
      4          1           0        0.898031    0.277341    0.000000
      5          1           0       -0.000000    0.642907    0.000000
      6          1           0       -0.000000   -0.642907    0.000000
      7          1           0       -0.898031   -0.277341    0.000000
      8          1           0       -0.898031   -1.563154    0.000000
      9          1           0       -1.796063   -1.197588    0.000000
     10          1           0       -1.796063   -2.483401    0.000000
 ---------------------------------------------------------------------

 SCF Done:  E(RHF) =  -4.79265355364     A.U. after   10 cycles
 E2 =    -0.1262103296D+00 EUMP2 =    -0.49188638832158D+01

 The electronic state is 1-AG.
 Alpha  occ. eigenvalues --   -0.79535  -0.72649  -0.55266  -0.33630  -0.21613
 Alpha virt. eigenvalues --    0.02712   0.14183   0.20668   0.39935   0.61856

 Mulliken charges:
               1
     1  H    0.011137
     2  H    0.087873
     3  H    0.111226
     4  H   -0.101517
     5  H   -0.108719
     6  H   -0.108719
     7  H   -0.101517
     8  H    0.111226
     9  H    0.087873
    10  H    0.011137
 Sum of Mulliken charges =  -0.00000

 Dipole moment (field-independent basis, Debye):
    X=             -0.0000    Y=             -0.0000    Z=              0.0000  Tot=              0.0000
 Quadrupole moment (field-independent basis, Debye-Ang):
   XX=            -11.6814   YY=            -10.8059   ZZ=            -13.1620
   XY=              3.5616   XZ=             -0.0000   YZ=              0.0000

 Normal termination of Gaussian 09 at Thu Feb  9 15:43:49 2017.
