 Gaussian 09, Revision E.01,
 Gaussian 09:  ES64L-G09RevE.01 30-Nov-2015

 ----------------------------------------------------------------------
 #rhf/gen scf(symm,tight,novaracc,noincfock,fulldiag) stable(crhf) geom
 =nocrowd test
 ----------------------------------------------------------------------

 hf stability analysis of h10 triangular lattice, y= 0.8014604468113287
 7
 ----------------------------------------------------------------------
 Symbolic Z-matrix:
 Charge =  0 Multiplicity = 1

                         Standard orientation:
 ---------------------------------------------------------------------
 Center     Atomic      Atomic             Coordinates (Angstroms)
 Number     Number       Type             X           Y           Z
 ---------------------------------------------------------------------
      1          1           0        2.143047    0.767838    0.000000
      2          1           0        2.143047   -0.309787    0.000000
      3          1           0        1.071523    0.653325    0.000000
      4          1           0        1.071523   -0.424300    0.000000
      5          1           0        0.000000    0.538813   -0.000000
      6          1           0       -0.000000   -0.538813   -0.000000
      7          1           0       -1.071523    0.424300    0.000000
      8          1           0       -1.071523   -0.653325    0.000000
      9          1           0       -2.143047    0.309787    0.000000
     10          1           0       -2.143047   -0.767838    0.000000
 ---------------------------------------------------------------------

 SCF Done:  E(RHF) =  -4.88148443595     A.U. after   10 cycles
 E2 =    -0.1052997780D+00 EUMP2 =    -0.49867842139554D+01

 The electronic state is 1-AG.
 Alpha  occ. eigenvalues --   -0.87636  -0.74452  -0.52692  -0.46572  -0.30920
 Alpha virt. eigenvalues --   -0.01635   0.15730   0.36045   0.51668   0.88578

 Mulliken charges:
               1
     1  H    0.073156
     2  H    0.006914
     3  H   -0.032217
     4  H   -0.034519
     5  H   -0.013335
     6  H   -0.013335
     7  H   -0.034519
     8  H   -0.032217
     9  H    0.006914
    10  H    0.073156
 Sum of Mulliken charges =   0.00000

 Dipole moment (field-independent basis, Debye):
    X=              0.0000    Y=              0.0000    Z=              0.0000  Tot=              0.0000
 Quadrupole moment (field-independent basis, Debye-Ang):
   XX=            -10.1514   YY=            -17.1708   ZZ=            -12.9562
   XY=              1.5651   XZ=              0.0000   YZ=             -0.0000

 Normal termination of Gaussian 09 at Thu Feb  9 15:25:38 2017.
