 Gaussian 09, Revision E.01,
 Gaussian 09:  ES64L-G09RevE.01 30-Nov-2015

 ----------------------------------------------------------------------
 #rhf/gen scf(symm,tight,novaracc,noincfock,fulldiag) stable(crhf) geom
 =nocrowd test
 ----------------------------------------------------------------------

 hf stability analysis of h10 triangular lattice, y= 0.7930727965047464
 9
 ----------------------------------------------------------------------
 Symbolic Z-matrix:
 Charge =  0 Multiplicity = 1

                         Standard orientation:
 ---------------------------------------------------------------------
 Center     Atomic      Atomic             Coordinates (Angstroms)
 Number     Number       Type             X           Y           Z
 ---------------------------------------------------------------------
      1          1           0        2.145209    0.722179    0.000000
      2          1           0        2.145209   -0.354360    0.000000
      3          1           0        1.072605    0.630224    0.000000
      4          1           0        1.072605   -0.446315    0.000000
      5          1           0        0.000000    0.538269    0.000000
      6          1           0       -0.000000   -0.538269    0.000000
      7          1           0       -1.072605    0.446315    0.000000
      8          1           0       -1.072605   -0.630224    0.000000
      9          1           0       -2.145209    0.354360    0.000000
     10          1           0       -2.145209   -0.722179    0.000000
 ---------------------------------------------------------------------

 SCF Done:  E(RHF) =  -4.88333130432     A.U. after   10 cycles
 E2 =    -0.1051815461D+00 EUMP2 =    -0.49885128504426D+01

 The electronic state is 1-AG.
 Alpha  occ. eigenvalues --   -0.87684  -0.74480  -0.52673  -0.46680  -0.31028
 Alpha virt. eigenvalues --   -0.01516   0.15588   0.36320   0.51535   0.89209

 Mulliken charges:
               1
     1  H    0.066852
     2  H    0.013541
     3  H   -0.032527
     4  H   -0.034223
     5  H   -0.013643
     6  H   -0.013643
     7  H   -0.034223
     8  H   -0.032527
     9  H    0.013541
    10  H    0.066852
 Sum of Mulliken charges =   0.00000

 Dipole moment (field-independent basis, Debye):
    X=             -0.0000    Y=              0.0000    Z=              0.0000  Tot=              0.0000
 Quadrupole moment (field-independent basis, Debye-Ang):
   XX=            -10.1203   YY=            -17.2553   ZZ=            -12.9555
   XY=              1.2592   XZ=              0.0000   YZ=              0.0000

 Normal termination of Gaussian 09 at Thu Feb  9 15:25:07 2017.
