 Gaussian 09, Revision E.01,
 Gaussian 09:  ES64L-G09RevE.01 30-Nov-2015

 ----------------------------------------------------------------------
 #rhf/gen scf(symm,tight,novaracc,noincfock,fulldiag) stable(crhf) geom
 =nocrowd test
 ----------------------------------------------------------------------

 ----------------------------------------------------------------------
 hf stability analysis of h10 triangular lattice, y= 1.6104491068048148
 ----------------------------------------------------------------------
 Symbolic Z-matrix:
 Charge =  0 Multiplicity = 1

                         Standard orientation:
 ---------------------------------------------------------------------
 Center     Atomic      Atomic             Coordinates (Angstroms)
 Number     Number       Type             X           Y           Z
 ---------------------------------------------------------------------
      1          1           0        1.399748    3.813076   -0.000000
      2          1           0        1.399748    2.163206   -0.000000
      3          1           0        0.699874    2.319006   -0.000000
      4          1           0        0.699874    0.669136   -0.000000
      5          1           0       -0.000000    0.824935   -0.000000
      6          1           0       -0.000000   -0.824935   -0.000000
      7          1           0       -0.699874   -0.669136   -0.000000
      8          1           0       -0.699874   -2.319006   -0.000000
      9          1           0       -1.399748   -2.163206   -0.000000
     10          1           0       -1.399748   -3.813076   -0.000000
 ---------------------------------------------------------------------

 SCF Done:  E(RHF) =  -4.91754723934     A.U. after    8 cycles
 E2 =    -0.5318917251D+00 EUMP2 =    -0.54494389644821D+01

 The electronic state is 1-AG.
 Alpha  occ. eigenvalues --   -0.75875  -0.70607  -0.62131  -0.51800  -0.16703
 Alpha virt. eigenvalues --   -0.09302   0.25107   0.34920   0.49651   0.64153

 Mulliken charges:
               1
     1  H   -0.064973
     2  H    0.019639
     3  H    0.028440
     4  H    0.005722
     5  H    0.011172
     6  H    0.011172
     7  H    0.005722
     8  H    0.028440
     9  H    0.019639
    10  H   -0.064973
 Sum of Mulliken charges =  -0.00000

 Dipole moment (field-independent basis, Debye):
    X=              0.0000    Y=              0.0000    Z=              0.0000  Tot=              0.0000
 Quadrupole moment (field-independent basis, Debye-Ang):
   XX=            -12.8780   YY=            -24.0133   ZZ=            -12.9886
   XY=             -4.4431   XZ=             -0.0000   YZ=              0.0000

 Normal termination of Gaussian 09 at Thu Feb  9 15:53:06 2017.
