 Gaussian 09, Revision E.01,
 Gaussian 09:  ES64L-G09RevE.01 30-Nov-2015

 ----------------------------------------------------------------------
 #rhf/gen scf(symm,tight,novaracc,noincfock,fulldiag) stable(crhf) geom
 =nocrowd test
 ----------------------------------------------------------------------

 hf stability analysis of h10 triangular lattice, y= 0.8534839121632004
 1
 ----------------------------------------------------------------------
 Symbolic Z-matrix:
 Charge =  0 Multiplicity = 1

                         Standard orientation:
 ---------------------------------------------------------------------
 Center     Atomic      Atomic             Coordinates (Angstroms)
 Number     Number       Type             X           Y           Z
 ---------------------------------------------------------------------
      1          1           0        2.120559    1.041899    0.000000
      2          1           0        2.120559   -0.047154    0.000000
      3          1           0        1.060279    0.793213    0.000000
      4          1           0        1.060279   -0.295840    0.000000
      5          1           0       -0.000000    0.544527   -0.000000
      6          1           0       -0.000000   -0.544527   -0.000000
      7          1           0       -1.060279    0.295840    0.000000
      8          1           0       -1.060279   -0.793213    0.000000
      9          1           0       -2.120559    0.047154    0.000000
     10          1           0       -2.120559   -1.041899    0.000000
 ---------------------------------------------------------------------

 SCF Done:  E(RHF) =  -4.85066878775     A.U. after   10 cycles
 E2 =    -0.1143557280D+00 EUMP2 =    -0.49650245157345D+01

 The electronic state is 1-AG.
 Alpha  occ. eigenvalues --   -0.86087  -0.73778  -0.54533  -0.39685  -0.29061
 Alpha virt. eigenvalues --   -0.02869   0.21389   0.31352   0.52582   0.83929

 Mulliken charges:
               1
     1  H   -0.067330
     2  H    0.102400
     3  H    0.049899
     4  H   -0.088697
     5  H    0.003728
     6  H    0.003728
     7  H   -0.088697
     8  H    0.049899
     9  H    0.102400
    10  H   -0.067330
 Sum of Mulliken charges =   0.00000

 Dipole moment (field-independent basis, Debye):
    X=             -0.0000    Y=             -0.0000    Z=              0.0000  Tot=              0.0000
 Quadrupole moment (field-independent basis, Debye-Ang):
   XX=            -15.6053   YY=            -14.1554   ZZ=            -12.8374
   XY=             -1.5789   XZ=             -0.0000   YZ=             -0.0000

 Normal termination of Gaussian 09 at Thu Feb  9 15:28:43 2017.
