 Gaussian 09, Revision E.01,
 Gaussian 09:  ES64L-G09RevE.01 30-Nov-2015

 ----------------------------------------------------------------------
 #rhf/gen scf(symm,tight,novaracc,noincfock,fulldiag) stable(crhf) geom
 =nocrowd test
 ----------------------------------------------------------------------

 ----------------------------------------------------------------------
 hf stability analysis of h10 triangular lattice, y= 1.4404254100640508
 ----------------------------------------------------------------------
 Symbolic Z-matrix:
 Charge =  0 Multiplicity = 1

                         Standard orientation:
 ---------------------------------------------------------------------
 Center     Atomic      Atomic             Coordinates (Angstroms)
 Number     Number       Type             X           Y           Z
 ---------------------------------------------------------------------
      1          1           0        1.544592    3.308076   -0.000000
      2          1           0        1.544592    1.812924   -0.000000
      3          1           0        0.772296    2.027826   -0.000000
      4          1           0        0.772296    0.532674   -0.000000
      5          1           0       -0.000000    0.747576   -0.000000
      6          1           0       -0.000000   -0.747576   -0.000000
      7          1           0       -0.772296   -0.532674    0.000000
      8          1           0       -0.772296   -2.027826   -0.000000
      9          1           0       -1.544592   -1.812924   -0.000000
     10          1           0       -1.544592   -3.308076   -0.000000
 ---------------------------------------------------------------------

 SCF Done:  E(RHF) =  -4.84920545343     A.U. after    9 cycles
 E2 =    -0.3483246103D+00 EUMP2 =    -0.51975300637474D+01

 The electronic state is 1-AG.
 Alpha  occ. eigenvalues --   -0.79465  -0.72062  -0.60634  -0.46262  -0.13512
 Alpha virt. eigenvalues --   -0.03483   0.15249   0.26962   0.43882   0.59943

 Mulliken charges:
               1
     1  H   -0.155664
     2  H    0.038971
     3  H    0.066312
     4  H    0.021338
     5  H    0.029043
     6  H    0.029043
     7  H    0.021338
     8  H    0.066312
     9  H    0.038971
    10  H   -0.155664
 Sum of Mulliken charges =   0.00000

 Dipole moment (field-independent basis, Debye):
    X=             -0.0000    Y=             -0.0000    Z=              0.0000  Tot=              0.0000
 Quadrupole moment (field-independent basis, Debye-Ang):
   XX=            -14.6560   YY=            -29.7300   ZZ=            -12.8635
   XY=             -8.4483   XZ=              0.0000   YZ=              0.0000

 Normal termination of Gaussian 09 at Thu Feb  9 15:50:13 2017.
