 Gaussian 09, Revision E.01,
 Gaussian 09:  ES64L-G09RevE.01 30-Nov-2015

 ----------------------------------------------------------------------
 #rhf/gen scf(symm,tight,novaracc,noincfock,fulldiag) stable(crhf) geom
 =nocrowd test
 ----------------------------------------------------------------------

 ----------------------------------------------------------------------
 hf stability analysis of h10 triangular lattice, y= 1.5845420675981361
 ----------------------------------------------------------------------
 Symbolic Z-matrix:
 Charge =  0 Multiplicity = 1

                         Standard orientation:
 ---------------------------------------------------------------------
 Center     Atomic      Atomic             Coordinates (Angstroms)
 Number     Number       Type             X           Y           Z
 ---------------------------------------------------------------------
      1          1           0        1.420388    3.738121    0.000000
      2          1           0        1.420388    2.112226    0.000000
      3          1           0        0.710194    2.275534    0.000000
      4          1           0        0.710194    0.649639    0.000000
      5          1           0       -0.000000    0.812948    0.000000
      6          1           0       -0.000000   -0.812948   -0.000000
      7          1           0       -0.710194   -0.649639    0.000000
      8          1           0       -0.710194   -2.275534    0.000000
      9          1           0       -1.420388   -2.112226    0.000000
     10          1           0       -1.420388   -3.738121    0.000000
 ---------------------------------------------------------------------

 SCF Done:  E(RHF) =  -4.91261276631     A.U. after    8 cycles
 E2 =    -0.5055593875D+00 EUMP2 =    -0.54181721538269D+01

 The electronic state is 1-AG.
 Alpha  occ. eigenvalues --   -0.76287  -0.70748  -0.61869  -0.50969  -0.16295
 Alpha virt. eigenvalues --   -0.08617   0.23726   0.33791   0.48855   0.63651

 Mulliken charges:
               1
     1  H   -0.075134
     2  H    0.022087
     3  H    0.032657
     4  H    0.007233
     5  H    0.013158
     6  H    0.013158
     7  H    0.007233
     8  H    0.032657
     9  H    0.022087
    10  H   -0.075134
 Sum of Mulliken charges =   0.00000

 Dipole moment (field-independent basis, Debye):
    X=             -0.0000    Y=              0.0000    Z=             -0.0000  Tot=              0.0000
 Quadrupole moment (field-independent basis, Debye-Ang):
   XX=            -13.0410   YY=            -24.8231   ZZ=            -12.9685
   XY=             -4.9218   XZ=             -0.0000   YZ=             -0.0000

 Normal termination of Gaussian 09 at Thu Feb  9 15:52:43 2017.
