 Gaussian 09, Revision E.01,
 Gaussian 09:  ES64L-G09RevE.01 30-Nov-2015

 ----------------------------------------------------------------------
 #rhf/gen scf(symm,tight,novaracc,noincfock,fulldiag) stable(crhf) geom
 =nocrowd test
 ----------------------------------------------------------------------

 hf stability analysis of h10 triangular lattice, y= 0.7916849667473652
 2
 ----------------------------------------------------------------------
 Symbolic Z-matrix:
 Charge =  0 Multiplicity = 1

                         Standard orientation:
 ---------------------------------------------------------------------
 Center     Atomic      Atomic             Coordinates (Angstroms)
 Number     Number       Type             X           Y           Z
 ---------------------------------------------------------------------
      1          1           0        2.145523    0.714585   -0.000000
      2          1           0        2.145523   -0.361796   -0.000000
      3          1           0        1.072762    0.626388    0.000000
      4          1           0        1.072762   -0.449994   -0.000000
      5          1           0        0.000000    0.538191    0.000000
      6          1           0       -0.000000   -0.538191    0.000000
      7          1           0       -1.072762    0.449994   -0.000000
      8          1           0       -1.072762   -0.626388    0.000000
      9          1           0       -2.145523    0.361796   -0.000000
     10          1           0       -2.145523   -0.714585    0.000000
 ---------------------------------------------------------------------

 SCF Done:  E(RHF) =  -4.88359910875     A.U. after   10 cycles
 E2 =    -0.1051644445D+00 EUMP2 =    -0.49887635532285D+01

 The electronic state is 1-AG.
 Alpha  occ. eigenvalues --   -0.87691  -0.74484  -0.52670  -0.46696  -0.31043
 Alpha virt. eigenvalues --   -0.01498   0.15567   0.36360   0.51516   0.89301

 Mulliken charges:
               1
     1  H    0.065794
     2  H    0.014645
     3  H   -0.032574
     4  H   -0.034179
     5  H   -0.013687
     6  H   -0.013687
     7  H   -0.034179
     8  H   -0.032574
     9  H    0.014645
    10  H    0.065794
 Sum of Mulliken charges =  -0.00000

 Dipole moment (field-independent basis, Debye):
    X=              0.0000    Y=             -0.0000    Z=              0.0000  Tot=              0.0000
 Quadrupole moment (field-independent basis, Debye-Ang):
   XX=            -10.1158   YY=            -17.2676   ZZ=            -12.9554
   XY=              1.2081   XZ=             -0.0000   YZ=              0.0000

 Normal termination of Gaussian 09 at Thu Feb  9 15:25:02 2017.
