 Gaussian 09, Revision E.01,
 Gaussian 09:  ES64L-G09RevE.01 30-Nov-2015

 ----------------------------------------------------------------------
 #rhf/gen scf(symm,tight,novaracc,noincfock,fulldiag) stable(crhf) geom
 =nocrowd test
 ----------------------------------------------------------------------

 ----------------------------------------------------------------------
 hf stability analysis of h10 triangular lattice, y= 1.7868378553155890
 ----------------------------------------------------------------------
 Symbolic Z-matrix:
 Charge =  0 Multiplicity = 1

                         Standard orientation:
 ---------------------------------------------------------------------
 Center     Atomic      Atomic             Coordinates (Angstroms)
 Number     Number       Type             X           Y           Z
 ---------------------------------------------------------------------
      1          1           0        1.271825    4.309559   -0.000000
      2          1           0        1.271825    2.493742   -0.000000
      3          1           0        0.635913    2.608734   -0.000000
      4          1           0        0.635913    0.792917   -0.000000
      5          1           0        0.000000    0.907909    0.000000
      6          1           0       -0.000000   -0.907909    0.000000
      7          1           0       -0.635913   -0.792917    0.000000
      8          1           0       -0.635913   -2.608734    0.000000
      9          1           0       -1.271825   -2.493742    0.000000
     10          1           0       -1.271825   -4.309559    0.000000
 ---------------------------------------------------------------------

 SCF Done:  E(RHF) =  -4.90410458995     A.U. after    7 cycles
 E2 =    -0.6825224297D+00 EUMP2 =    -0.55866270196485D+01

 The electronic state is 1-AG.
 Alpha  occ. eigenvalues --   -0.74087  -0.70274  -0.64173  -0.57196  -0.18719
 Alpha virt. eigenvalues --   -0.12576   0.33496   0.41859   0.54380   0.66642

 Mulliken charges:
               1
     1  H   -0.022142
     2  H    0.008215
     3  H    0.009727
     4  H    0.000737
     5  H    0.003462
     6  H    0.003462
     7  H    0.000737
     8  H    0.009727
     9  H    0.008215
    10  H   -0.022142
 Sum of Mulliken charges =  -0.00000

 Dipole moment (field-independent basis, Debye):
    X=              0.0000    Y=             -0.0000    Z=             -0.0000  Tot=              0.0000
 Quadrupole moment (field-independent basis, Debye-Ang):
   XX=            -12.3611   YY=            -19.7922   ZZ=            -13.1285
   XY=             -2.2457   XZ=             -0.0000   YZ=              0.0000

 Normal termination of Gaussian 09 at Thu Feb  9 15:55:18 2017.
