 Gaussian 09, Revision E.01,
 Gaussian 09:  ES64L-G09RevE.01 30-Nov-2015

 ----------------------------------------------------------------------
 #rhf/gen scf(symm,tight,novaracc,noincfock,fulldiag) stable(crhf) geom
 =nocrowd test
 ----------------------------------------------------------------------

 ----------------------------------------------------------------------
 hf stability analysis of h10 triangular lattice, y= 1.3490881642621655
 ----------------------------------------------------------------------
 Symbolic Z-matrix:
 Charge =  0 Multiplicity = 1

                         Standard orientation:
 ---------------------------------------------------------------------
 Center     Atomic      Atomic             Coordinates (Angstroms)
 Number     Number       Type             X           Y           Z
 ---------------------------------------------------------------------
      1          1           0        1.631695    3.020744   -0.000000
      2          1           0        1.631695    1.605405   -0.000000
      3          1           0        0.815847    1.864207   -0.000000
      4          1           0        0.815847    0.448868   -0.000000
      5          1           0        0.000000    0.707670    0.000000
      6          1           0       -0.000000   -0.707670   -0.000000
      7          1           0       -0.815847   -0.448868   -0.000000
      8          1           0       -0.815847   -1.864207   -0.000000
      9          1           0       -1.631695   -1.605405   -0.000000
     10          1           0       -1.631695   -3.020744   -0.000000
 ---------------------------------------------------------------------

 SCF Done:  E(RHF) =  -4.77817147028     A.U. after   11 cycles
 E2 =    -0.2502446559D+00 EUMP2 =    -0.50284161261712D+01

 The electronic state is 1-AG.
 Alpha  occ. eigenvalues --   -0.82118  -0.73298  -0.59958  -0.43114  -0.11650
 Alpha virt. eigenvalues --    0.00738   0.09806   0.22317   0.40396   0.56860

 Mulliken charges:
               1
     1  H   -0.223188
     2  H    0.048616
     3  H    0.101768
     4  H    0.032954
     5  H    0.039850
     6  H    0.039850
     7  H    0.032954
     8  H    0.101768
     9  H    0.048616
    10  H   -0.223188
 Sum of Mulliken charges =  -0.00000

 Dipole moment (field-independent basis, Debye):
    X=              0.0000    Y=             -0.0000    Z=              0.0000  Tot=              0.0000
 Quadrupole moment (field-independent basis, Debye-Ang):
   XX=            -16.4706   YY=            -31.9189   ZZ=            -12.8080
   XY=            -11.0351   XZ=             -0.0000   YZ=             -0.0000

 Normal termination of Gaussian 09 at Thu Feb  9 15:48:15 2017.
