 Gaussian 09, Revision E.01,
 Gaussian 09:  ES64L-G09RevE.01 30-Nov-2015

 ----------------------------------------------------------------------
 #rhf/gen scf(symm,tight,novaracc,noincfock,fulldiag) stable(crhf) geom
 =nocrowd test
 ----------------------------------------------------------------------

 ----------------------------------------------------------------------
 hf stability analysis of h10 triangular lattice, y= 2.0529883105540567
 ----------------------------------------------------------------------
 Symbolic Z-matrix:
 Charge =  0 Multiplicity = 1

                         Standard orientation:
 ---------------------------------------------------------------------
 Center     Atomic      Atomic             Coordinates (Angstroms)
 Number     Number       Type             X           Y           Z
 ---------------------------------------------------------------------
      1          1           0        1.114490    5.027735    0.000000
      2          1           0        1.114490    2.955574    0.000000
      3          1           0        0.557245    3.031907    0.000000
      4          1           0        0.557245    0.959747    0.000000
      5          1           0        0.000000    1.036080    0.000000
      6          1           0       -0.000000   -1.036080    0.000000
      7          1           0       -0.557245   -0.959747    0.000000
      8          1           0       -0.557245   -3.031907    0.000000
      9          1           0       -1.114490   -2.955574    0.000000
     10          1           0       -1.114490   -5.027735    0.000000
 ---------------------------------------------------------------------

 SCF Done:  E(RHF) =  -4.76080536836     A.U. after    6 cycles
 E2 =    -0.8386289340D+00 EUMP2 =    -0.55994343024050D+01

 The electronic state is 1-AG.
 Alpha  occ. eigenvalues --   -0.73331  -0.70988  -0.67463  -0.63848  -0.20059
 Alpha virt. eigenvalues --   -0.14882   0.43998   0.50584   0.60083   0.69057

 Mulliken charges:
               1
     1  H   -0.002580
     2  H    0.001764
     3  H    0.000383
     4  H   -0.000211
     5  H    0.000644
     6  H    0.000644
     7  H   -0.000211
     8  H    0.000383
     9  H    0.001764
    10  H   -0.002580
 Sum of Mulliken charges =  -0.00000

 Dipole moment (field-independent basis, Debye):
    X=             -0.0000    Y=             -0.0000    Z=              0.0000  Tot=              0.0000
 Quadrupole moment (field-independent basis, Debye-Ang):
   XX=            -12.4070   YY=            -16.6210   ZZ=            -13.3172
   XY=             -0.8996   XZ=              0.0000   YZ=              0.0000

 Normal termination of Gaussian 09 at Thu Feb  9 15:57:38 2017.
