 Gaussian 09, Revision E.01,
 Gaussian 09:  ES64L-G09RevE.01 30-Nov-2015

 ----------------------------------------------------------------------
 #rhf/gen scf(symm,tight,novaracc,noincfock,fulldiag) stable(crhf) geom
 =nocrowd test
 ----------------------------------------------------------------------

 hf stability analysis of h10 triangular lattice, y= 0.7671651745213762
 3
 ----------------------------------------------------------------------
 Symbolic Z-matrix:
 Charge =  0 Multiplicity = 1

                         Standard orientation:
 ---------------------------------------------------------------------
 Center     Atomic      Atomic             Coordinates (Angstroms)
 Number     Number       Type             X           Y           Z
 ---------------------------------------------------------------------
      1          1           0        2.148942    0.578596   -0.000000
      2          1           0        2.148942   -0.496073   -0.000000
      3          1           0        1.074471    0.557965   -0.000000
      4          1           0        1.074471   -0.516704   -0.000000
      5          1           0        0.000000    0.537334    0.000000
      6          1           0       -0.000000   -0.537334    0.000000
      7          1           0       -1.074471    0.516704    0.000000
      8          1           0       -1.074471   -0.557965    0.000000
      9          1           0       -2.148942    0.496073    0.000000
     10          1           0       -2.148942   -0.578596    0.000000
 ---------------------------------------------------------------------

 SCF Done:  E(RHF) =  -4.88649782760     A.U. after   10 cycles
 E2 =    -0.1049800170D+00 EUMP2 =    -0.49914778445695D+01

 The electronic state is 1-AG.
 Alpha  occ. eigenvalues --   -0.87766  -0.74529  -0.52640  -0.46867  -0.31214
 Alpha virt. eigenvalues --   -0.01304   0.15336   0.36808   0.51293   0.90315

 Mulliken charges:
               1
     1  H    0.046472
     2  H    0.034467
     3  H   -0.033229
     4  H   -0.033551
     5  H   -0.014159
     6  H   -0.014159
     7  H   -0.033551
     8  H   -0.033229
     9  H    0.034467
    10  H    0.046472
 Sum of Mulliken charges =  -0.00000

 Dipole moment (field-independent basis, Debye):
    X=             -0.0000    Y=              0.0000    Z=              0.0000  Tot=              0.0000
 Quadrupole moment (field-independent basis, Debye-Ang):
   XX=            -10.0669   YY=            -17.4011   ZZ=            -12.9544
   XY=              0.2834   XZ=             -0.0000   YZ=             -0.0000

 Normal termination of Gaussian 09 at Thu Feb  9 15:23:29 2017.
