 Gaussian 09, Revision E.01,
 Gaussian 09:  ES64L-G09RevE.01 30-Nov-2015

 ----------------------------------------------------------------------
 #rhf/gen scf(symm,tight,novaracc,noincfock,fulldiag) stable(crhf) geom
 =nocrowd test
 ----------------------------------------------------------------------

 hf stability analysis of h10 triangular lattice, y= 0.8383780509878859
 8
 ----------------------------------------------------------------------
 Symbolic Z-matrix:
 Charge =  0 Multiplicity = 1

                         Standard orientation:
 ---------------------------------------------------------------------
 Center     Atomic      Atomic             Coordinates (Angstroms)
 Number     Number       Type             X           Y           Z
 ---------------------------------------------------------------------
      1          1           0        2.128576    0.963945   -0.000000
      2          1           0        2.128576   -0.121006   -0.000000
      3          1           0        1.064288    0.753210   -0.000000
      4          1           0        1.064288   -0.331741   -0.000000
      5          1           0       -0.000000    0.542475    0.000000
      6          1           0       -0.000000   -0.542475    0.000000
      7          1           0       -1.064288    0.331741   -0.000000
      8          1           0       -1.064288   -0.753210   -0.000000
      9          1           0       -2.128576    0.121006   -0.000000
     10          1           0       -2.128576   -0.963945   -0.000000
 ---------------------------------------------------------------------

 SCF Done:  E(RHF) =  -4.84777824649     A.U. after   10 cycles
 E2 =    -0.1148466360D+00 EUMP2 =    -0.49626248825156D+01

 The electronic state is 1-AG.
 Alpha  occ. eigenvalues --   -0.86177  -0.73719  -0.54481  -0.40034  -0.28907
 Alpha virt. eigenvalues --   -0.03011   0.21203   0.32090   0.52347   0.86171

 Mulliken charges:
               1
     1  H   -0.056952
     2  H    0.091531
     3  H    0.039124
     4  H   -0.081266
     5  H    0.007564
     6  H    0.007564
     7  H   -0.081266
     8  H    0.039124
     9  H    0.091531
    10  H   -0.056952
 Sum of Mulliken charges =   0.00000

 Dipole moment (field-independent basis, Debye):
    X=             -0.0000    Y=             -0.0000    Z=             -0.0000  Tot=              0.0000
 Quadrupole moment (field-independent basis, Debye-Ang):
   XX=            -15.7595   YY=            -13.9504   ZZ=            -12.8256
   XY=             -1.4105   XZ=             -0.0000   YZ=             -0.0000

 Normal termination of Gaussian 09 at Thu Feb  9 15:27:51 2017.
