 Gaussian 09, Revision E.01,
 Gaussian 09:  ES64L-G09RevE.01 30-Nov-2015

 ----------------------------------------------------------------------
 #rhf/gen scf(symm,tight,novaracc,noincfock,fulldiag) stable(crhf) geom
 =nocrowd test
 ----------------------------------------------------------------------

 hf stability analysis of h10 triangular lattice, y= 0.7937677784109760
 1
 ----------------------------------------------------------------------
 Symbolic Z-matrix:
 Charge =  0 Multiplicity = 1

                         Standard orientation:
 ---------------------------------------------------------------------
 Center     Atomic      Atomic             Coordinates (Angstroms)
 Number     Number       Type             X           Y           Z
 ---------------------------------------------------------------------
      1          1           0        2.145047    0.725977    0.000000
      2          1           0        2.145047   -0.350643    0.000000
      3          1           0        1.072523    0.632144    0.000000
      4          1           0        1.072523   -0.444477    0.000000
      5          1           0       -0.000000    0.538310    0.000000
      6          1           0       -0.000000   -0.538310    0.000000
      7          1           0       -1.072523    0.444477    0.000000
      8          1           0       -1.072523   -0.632144    0.000000
      9          1           0       -2.145047    0.350643    0.000000
     10          1           0       -2.145047   -0.725977    0.000000
 ---------------------------------------------------------------------

 SCF Done:  E(RHF) =  -4.88319313515     A.U. after   10 cycles
 E2 =    -0.1051903736D+00 EUMP2 =    -0.49883835087626D+01

 The electronic state is 1-AG.
 Alpha  occ. eigenvalues --   -0.87680  -0.74478  -0.52674  -0.46672  -0.31019
 Alpha virt. eigenvalues --   -0.01525   0.15599   0.36299   0.51545   0.89161

 Mulliken charges:
               1
     1  H    0.067380
     2  H    0.012989
     3  H   -0.032503
     4  H   -0.034245
     5  H   -0.013620
     6  H   -0.013620
     7  H   -0.034245
     8  H   -0.032503
     9  H    0.012989
    10  H    0.067380
 Sum of Mulliken charges =   0.00000

 Dipole moment (field-independent basis, Debye):
    X=             -0.0000    Y=              0.0000    Z=              0.0000  Tot=              0.0000
 Quadrupole moment (field-independent basis, Debye-Ang):
   XX=            -10.1226   YY=            -17.2490   ZZ=            -12.9556
   XY=              1.2848   XZ=              0.0000   YZ=              0.0000

 Normal termination of Gaussian 09 at Thu Feb  9 15:25:09 2017.
