 Gaussian 09, Revision E.01,
 Gaussian 09:  ES64L-G09RevE.01 30-Nov-2015

 ----------------------------------------------------------------------
 #rhf/gen scf(symm,tight,novaracc,noincfock,fulldiag) stable(crhf) geom
 =nocrowd test
 ----------------------------------------------------------------------

 hf stability analysis of h10 triangular lattice, y= 0.9330752598533488
 3
 ----------------------------------------------------------------------
 Symbolic Z-matrix:
 Charge =  0 Multiplicity = 1

                         Standard orientation:
 ---------------------------------------------------------------------
 Center     Atomic      Atomic             Coordinates (Angstroms)
 Number     Number       Type             X           Y           Z
 ---------------------------------------------------------------------
      1          1           0        2.062710    1.431121   -0.000000
      2          1           0        2.062710    0.311525   -0.000000
      3          1           0        1.031355    0.995459   -0.000000
      4          1           0        1.031355   -0.124136    0.000000
      5          1           0       -0.000000    0.559798   -0.000000
      6          1           0       -0.000000   -0.559798   -0.000000
      7          1           0       -1.031355    0.124136    0.000000
      8          1           0       -1.031355   -0.995459   -0.000000
      9          1           0       -2.062710   -0.311525   -0.000000
     10          1           0       -2.062710   -1.431121   -0.000000
 ---------------------------------------------------------------------

 SCF Done:  E(RHF) =  -4.86490675016     A.U. after   10 cycles
 E2 =    -0.1125296414D+00 EUMP2 =    -0.49774363915439D+01

 The electronic state is 1-AG.
 Alpha  occ. eigenvalues --   -0.85287  -0.74028  -0.54861  -0.37018  -0.30047
 Alpha virt. eigenvalues --   -0.01658   0.22655   0.26487   0.54238   0.69977

 Mulliken charges:
               1
     1  H   -0.096364
     2  H    0.138807
     3  H    0.091365
     4  H   -0.113563
     5  H   -0.020245
     6  H   -0.020245
     7  H   -0.113563
     8  H    0.091365
     9  H    0.138807
    10  H   -0.096364
 Sum of Mulliken charges =  -0.00000

 Dipole moment (field-independent basis, Debye):
    X=             -0.0000    Y=              0.0000    Z=              0.0000  Tot=              0.0000
 Quadrupole moment (field-independent basis, Debye-Ang):
   XX=            -14.5547   YY=            -15.1898   ZZ=            -12.9153
   XY=             -1.7478   XZ=              0.0000   YZ=              0.0000

 Normal termination of Gaussian 09 at Thu Feb  9 15:32:56 2017.
