 Gaussian 09, Revision E.01,
 Gaussian 09:  ES64L-G09RevE.01 30-Nov-2015

 ----------------------------------------------------------------------
 #rhf/gen scf(symm,tight,novaracc,noincfock,fulldiag) stable(crhf) geom
 =nocrowd test
 ----------------------------------------------------------------------

 hf stability analysis of h10 triangular lattice, y= 0.9277982681388944
 3
 ----------------------------------------------------------------------
 Symbolic Z-matrix:
 Charge =  0 Multiplicity = 1

                         Standard orientation:
 ---------------------------------------------------------------------
 Center     Atomic      Atomic             Coordinates (Angstroms)
 Number     Number       Type             X           Y           Z
 ---------------------------------------------------------------------
      1          1           0        2.067211    1.406404    0.000000
      2          1           0        2.067211    0.289246    0.000000
      3          1           0        1.033605    0.982491   -0.000000
      4          1           0        1.033605   -0.134667    0.000000
      5          1           0       -0.000000    0.558579   -0.000000
      6          1           0       -0.000000   -0.558579   -0.000000
      7          1           0       -1.033605    0.134667    0.000000
      8          1           0       -1.033605   -0.982491    0.000000
      9          1           0       -2.067211   -0.289246    0.000000
     10          1           0       -2.067211   -1.406404    0.000000
 ---------------------------------------------------------------------

 SCF Done:  E(RHF) =  -4.86420586353     A.U. after   10 cycles
 E2 =    -0.1125782140D+00 EUMP2 =    -0.49767840775300D+01

 The electronic state is 1-AG.
 Alpha  occ. eigenvalues --   -0.85358  -0.74019  -0.54838  -0.37233  -0.29978
 Alpha virt. eigenvalues --   -0.01761   0.22562   0.26839   0.54110   0.70941

 Mulliken charges:
               1
     1  H   -0.095732
     2  H    0.137421
     3  H    0.089413
     4  H   -0.112540
     5  H   -0.018562
     6  H   -0.018562
     7  H   -0.112540
     8  H    0.089413
     9  H    0.137421
    10  H   -0.095732
 Sum of Mulliken charges =   0.00000

 Dipole moment (field-independent basis, Debye):
    X=             -0.0000    Y=             -0.0000    Z=              0.0000  Tot=              0.0000
 Quadrupole moment (field-independent basis, Debye-Ang):
   XX=            -14.6315   YY=            -15.1364   ZZ=            -12.9096
   XY=             -1.7738   XZ=              0.0000   YZ=              0.0000

 Normal termination of Gaussian 09 at Thu Feb  9 15:32:40 2017.
