 Gaussian 09, Revision E.01,
 Gaussian 09:  ES64L-G09RevE.01 30-Nov-2015

 ----------------------------------------------------------------------
 #rhf/gen scf(symm,tight,novaracc,noincfock,fulldiag) stable(crhf) geom
 =nocrowd test
 ----------------------------------------------------------------------

 ----------------------------------------------------------------------
 hf stability analysis of h10 triangular lattice, y= 2.3053419614742690
 ----------------------------------------------------------------------
 Symbolic Z-matrix:
 Charge =  0 Multiplicity = 1

                         Standard orientation:
 ---------------------------------------------------------------------
 Center     Atomic      Atomic             Coordinates (Angstroms)
 Number     Number       Type             X           Y           Z
 ---------------------------------------------------------------------
      1          1           0        0.995902    5.689074    0.000000
      2          1           0        0.995902    3.370168    0.000000
      3          1           0        0.497951    3.424263    0.000000
      4          1           0        0.497951    1.105358    0.000000
      5          1           0       -0.000000    1.159453    0.000000
      6          1           0       -0.000000   -1.159453    0.000000
      7          1           0       -0.497951   -1.105358    0.000000
      8          1           0       -0.497951   -3.424263    0.000000
      9          1           0       -0.995902   -3.370168    0.000000
     10          1           0       -0.995902   -5.689074    0.000000
 ---------------------------------------------------------------------

 SCF Done:  E(RHF) =  -4.53500658870     A.U. after    5 cycles
 E2 =    -0.9561847172D+00 EUMP2 =    -0.54911913058775D+01

 The electronic state is 1-AG.
 Alpha  occ. eigenvalues --   -0.73573  -0.72184  -0.70231  -0.68407  -0.20461
 Alpha virt. eigenvalues --   -0.15874   0.52538   0.57654   0.64766   0.71248

 Mulliken charges:
               1
     1  H    0.000974
     2  H    0.000137
     3  H   -0.001150
     4  H   -0.000127
     5  H    0.000167
     6  H    0.000167
     7  H   -0.000127
     8  H   -0.001150
     9  H    0.000137
    10  H    0.000974
 Sum of Mulliken charges =  -0.00000

 Dipole moment (field-independent basis, Debye):
    X=              0.0000    Y=             -0.0000    Z=              0.0000  Tot=              0.0000
 Quadrupole moment (field-independent basis, Debye-Ang):
   XX=            -12.6221   YY=            -15.2431   ZZ=            -13.4452
   XY=             -0.4213   XZ=             -0.0000   YZ=              0.0000

 Normal termination of Gaussian 09 at Thu Feb  9 15:59:08 2017.
