 Gaussian 09, Revision E.01,
 Gaussian 09:  ES64L-G09RevE.01 30-Nov-2015

 ----------------------------------------------------------------------
 #rhf/gen scf(symm,tight,novaracc,noincfock,fulldiag) stable(crhf) geom
 =nocrowd test
 ----------------------------------------------------------------------

 hf stability analysis of h10 triangular lattice, y= 0.7875383389185093
 3
 ----------------------------------------------------------------------
 Symbolic Z-matrix:
 Charge =  0 Multiplicity = 1

                         Standard orientation:
 ---------------------------------------------------------------------
 Center     Atomic      Atomic             Coordinates (Angstroms)
 Number     Number       Type             X           Y           Z
 ---------------------------------------------------------------------
      1          1           0        2.146388    0.691829    0.000000
      2          1           0        2.146388   -0.384119    0.000000
      3          1           0        1.073194    0.614901    0.000000
      4          1           0        1.073194   -0.461046    0.000000
      5          1           0        0.000000    0.537974    0.000000
      6          1           0       -0.000000   -0.537974    0.000000
      7          1           0       -1.073194    0.461046    0.000000
      8          1           0       -1.073194   -0.614901    0.000000
      9          1           0       -2.146388    0.384119    0.000000
     10          1           0       -2.146388   -0.691829    0.000000
 ---------------------------------------------------------------------

 SCF Done:  E(RHF) =  -4.88433448150     A.U. after   10 cycles
 E2 =    -0.1051175395D+00 EUMP2 =    -0.49894520210529D+01

 The electronic state is 1-AG.
 Alpha  occ. eigenvalues --   -0.87710  -0.74496  -0.52663  -0.46739  -0.31086
 Alpha virt. eigenvalues --   -0.01449   0.15509   0.36472   0.51461   0.89556

 Mulliken charges:
               1
     1  H    0.062609
     2  H    0.017957
     3  H   -0.032705
     4  H   -0.034054
     5  H   -0.013808
     6  H   -0.013808
     7  H   -0.034054
     8  H   -0.032705
     9  H    0.017957
    10  H    0.062609
 Sum of Mulliken charges =   0.00000

 Dipole moment (field-independent basis, Debye):
    X=              0.0000    Y=             -0.0000    Z=              0.0000  Tot=              0.0000
 Quadrupole moment (field-independent basis, Debye-Ang):
   XX=            -10.1034   YY=            -17.3014   ZZ=            -12.9552
   XY=              1.0545   XZ=             -0.0000   YZ=             -0.0000

 Normal termination of Gaussian 09 at Thu Feb  9 15:24:46 2017.
