 Gaussian 09, Revision E.01,
 Gaussian 09:  ES64L-G09RevE.01 30-Nov-2015

 ----------------------------------------------------------------------
 #rhf/gen scf(symm,tight,novaracc,noincfock,fulldiag) stable(crhf) geom
 =nocrowd test
 ----------------------------------------------------------------------

 hf stability analysis of h10 triangular lattice, y= 0.8809013488746532
 1
 ----------------------------------------------------------------------
 Symbolic Z-matrix:
 Charge =  0 Multiplicity = 1

                         Standard orientation:
 ---------------------------------------------------------------------
 Center     Atomic      Atomic             Coordinates (Angstroms)
 Number     Number       Type             X           Y           Z
 ---------------------------------------------------------------------
      1          1           0        2.103329    1.180016   -0.000000
      2          1           0        2.103329    0.082042   -0.000000
      3          1           0        1.051664    0.864502   -0.000000
      4          1           0        1.051664   -0.233473    0.000000
      5          1           0        0.000000    0.548987   -0.000000
      6          1           0       -0.000000   -0.548987    0.000000
      7          1           0       -1.051664    0.233473    0.000000
      8          1           0       -1.051664   -0.864502    0.000000
      9          1           0       -2.103329   -0.082042    0.000000
     10          1           0       -2.103329   -1.180016    0.000000
 ---------------------------------------------------------------------

 SCF Done:  E(RHF) =  -4.85611150006     A.U. after   10 cycles
 E2 =    -0.1135159523D+00 EUMP2 =    -0.49696274523431D+01

 The electronic state is 1-AG.
 Alpha  occ. eigenvalues --   -0.85874  -0.73884  -0.54639  -0.38916  -0.29377
 Alpha virt. eigenvalues --   -0.02540   0.21780   0.29823   0.53081   0.79390

 Mulliken charges:
               1
     1  H   -0.082188
     2  H    0.118837
     3  H    0.067147
     4  H   -0.099773
     5  H   -0.004023
     6  H   -0.004023
     7  H   -0.099773
     8  H    0.067147
     9  H    0.118837
    10  H   -0.082188
 Sum of Mulliken charges =   0.00000

 Dipole moment (field-independent basis, Debye):
    X=             -0.0000    Y=             -0.0000    Z=              0.0000  Tot=              0.0000
 Quadrupole moment (field-independent basis, Debye-Ang):
   XX=            -15.2796   YY=            -14.5439   ZZ=            -12.8618
   XY=             -1.7750   XZ=              0.0000   YZ=              0.0000

 Normal termination of Gaussian 09 at Thu Feb  9 15:30:13 2017.
