 Gaussian 09, Revision E.01,
 Gaussian 09:  ES64L-G09RevE.01 30-Nov-2015

 ----------------------------------------------------------------------
 #rhf/gen scf(symm,tight,novaracc,noincfock,fulldiag) stable(crhf) geom
 =nocrowd test
 ----------------------------------------------------------------------

 hf stability analysis of h10 triangular lattice, y= 0.9528935276469949
 8
 ----------------------------------------------------------------------
 Symbolic Z-matrix:
 Charge =  0 Multiplicity = 1

                         Standard orientation:
 ---------------------------------------------------------------------
 Center     Atomic      Atomic             Coordinates (Angstroms)
 Number     Number       Type             X           Y           Z
 ---------------------------------------------------------------------
      1          1           0        2.045151    1.522623   -0.000000
      2          1           0        2.045151    0.393415   -0.000000
      3          1           0        1.022576    1.043613   -0.000000
      4          1           0        1.022576   -0.085595    0.000000
      5          1           0       -0.000000    0.564604   -0.000000
      6          1           0       -0.000000   -0.564604   -0.000000
      7          1           0       -1.022576    0.085595    0.000000
      8          1           0       -1.022576   -1.043613   -0.000000
      9          1           0       -2.045151   -0.393415   -0.000000
     10          1           0       -2.045151   -1.522623   -0.000000
 ---------------------------------------------------------------------

 SCF Done:  E(RHF) =  -4.86700113666     A.U. after   10 cycles
 E2 =    -0.1124676583D+00 EUMP2 =    -0.49794687949890D+01

 The electronic state is 1-AG.
 Alpha  occ. eigenvalues --   -0.85001  -0.74052  -0.54943  -0.36169  -0.30304
 Alpha virt. eigenvalues --   -0.01242   0.23006   0.25149   0.54734   0.66386

 Mulliken charges:
               1
     1  H   -0.097255
     2  H    0.142839
     3  H    0.097779
     4  H   -0.116768
     5  H   -0.026595
     6  H   -0.026595
     7  H   -0.116768
     8  H    0.097779
     9  H    0.142839
    10  H   -0.097255
 Sum of Mulliken charges =  -0.00000

 Dipole moment (field-independent basis, Debye):
    X=             -0.0000    Y=             -0.0000    Z=             -0.0000  Tot=              0.0000
 Quadrupole moment (field-independent basis, Debye-Ang):
   XX=            -14.2636   YY=            -15.3559   ZZ=            -12.9368
   XY=             -1.6061   XZ=             -0.0000   YZ=             -0.0000

 Normal termination of Gaussian 09 at Thu Feb  9 15:33:54 2017.
