 Gaussian 09, Revision E.01,
 Gaussian 09:  ES64L-G09RevE.01 30-Nov-2015

 ----------------------------------------------------------------------
 #rhf/gen scf(symm,tight,novaracc,noincfock,fulldiag) stable(crhf) geom
 =nocrowd test
 ----------------------------------------------------------------------

 ----------------------------------------------------------------------
 hf stability analysis of h10 triangular lattice, y= 1.1620294322197784
 ----------------------------------------------------------------------
 Symbolic Z-matrix:
 Charge =  0 Multiplicity = 1

                         Standard orientation:
 ---------------------------------------------------------------------
 Center     Atomic      Atomic             Coordinates (Angstroms)
 Number     Number       Type             X           Y           Z
 ---------------------------------------------------------------------
      1          1           0        1.827359    2.378158    0.000000
      2          1           0        1.827359    1.114367    0.000000
      3          1           0        0.913680    1.505027    0.000000
      4          1           0        0.913680    0.241236    0.000000
      5          1           0       -0.000000    0.631896    0.000000
      6          1           0       -0.000000   -0.631896   -0.000000
      7          1           0       -0.913680   -0.241236    0.000000
      8          1           0       -0.913680   -1.505027    0.000000
      9          1           0       -1.827359   -1.114367    0.000000
     10          1           0       -1.827359   -2.378158    0.000000
 ---------------------------------------------------------------------

 SCF Done:  E(RHF) =  -4.81225919831     A.U. after   10 cycles
 E2 =    -0.1233433079D+00 EUMP2 =    -0.49356025062579D+01

 The electronic state is 1-AG.
 Alpha  occ. eigenvalues --   -0.80332  -0.72967  -0.55311  -0.33293  -0.23594
 Alpha virt. eigenvalues --    0.02957   0.14321   0.22318   0.40677   0.60948

 Mulliken charges:
               1
     1  H   -0.009095
     2  H    0.102905
     3  H    0.111483
     4  H   -0.108927
     5  H   -0.096365
     6  H   -0.096365
     7  H   -0.108927
     8  H    0.111483
     9  H    0.102905
    10  H   -0.009095
 Sum of Mulliken charges =   0.00000

 Dipole moment (field-independent basis, Debye):
    X=              0.0000    Y=              0.0000    Z=              0.0000  Tot=              0.0000
 Quadrupole moment (field-independent basis, Debye-Ang):
   XX=            -11.8472   YY=            -12.0877   ZZ=            -13.1418
   XY=              2.7621   XZ=             -0.0000   YZ=             -0.0000

 Normal termination of Gaussian 09 at Thu Feb  9 15:42:50 2017.
