 Gaussian 09, Revision E.01,
 Gaussian 09:  ES64L-G09RevE.01 30-Nov-2015

 ----------------------------------------------------------------------
 #rhf/gen scf(symm,tight,novaracc,noincfock,fulldiag) stable(crhf) geom
 =nocrowd test
 ----------------------------------------------------------------------

 ----------------------------------------------------------------------
 hf stability analysis of h10 triangular lattice, y= 1.2443115627637849
 ----------------------------------------------------------------------
 Symbolic Z-matrix:
 Charge =  0 Multiplicity = 1

                         Standard orientation:
 ---------------------------------------------------------------------
 Center     Atomic      Atomic             Coordinates (Angstroms)
 Number     Number       Type             X           Y           Z
 ---------------------------------------------------------------------
      1          1           0        1.738999    2.671559    0.000000
      2          1           0        1.738999    1.343553    0.000000
      3          1           0        0.869500    1.667781    0.000000
      4          1           0        0.869500    0.339775    0.000000
      5          1           0        0.000000    0.664003    0.000000
      6          1           0       -0.000000   -0.664003    0.000000
      7          1           0       -0.869500   -0.339775    0.000000
      8          1           0       -0.869500   -1.667781    0.000000
      9          1           0       -1.738999   -1.343553    0.000000
     10          1           0       -1.738999   -2.671559    0.000000
 ---------------------------------------------------------------------

 SCF Done:  E(RHF) =  -4.75023790796     A.U. after   11 cycles
 E2 =    -0.1324198309D+00 EUMP2 =    -0.48826577388585D+01

 The electronic state is 1-AG.
 Alpha  occ. eigenvalues --   -0.78033  -0.71980  -0.55132  -0.34312  -0.17833
 Alpha virt. eigenvalues --    0.01353   0.15179   0.16939   0.39972   0.63491

 Mulliken charges:
               1
     1  H    0.049955
     2  H    0.049341
     3  H    0.116649
     4  H   -0.075720
     5  H   -0.140225
     6  H   -0.140225
     7  H   -0.075720
     8  H    0.116649
     9  H    0.049341
    10  H    0.049955
 Sum of Mulliken charges =  -0.00000

 Dipole moment (field-independent basis, Debye):
    X=             -0.0000    Y=             -0.0000    Z=              0.0000  Tot=              0.0000
 Quadrupole moment (field-independent basis, Debye-Ang):
   XX=            -11.5652   YY=             -7.9804   ZZ=            -13.1880
   XY=              4.9376   XZ=              0.0000   YZ=              0.0000

 Normal termination of Gaussian 09 at Thu Feb  9 15:45:28 2017.
