 Gaussian 09, Revision E.01,
 Gaussian 09:  ES64L-G09RevE.01 30-Nov-2015

 ----------------------------------------------------------------------
 #rhf/gen scf(symm,tight,novaracc,noincfock,fulldiag) stable(crhf) geom
 =nocrowd test
 ----------------------------------------------------------------------

 ----------------------------------------------------------------------
 hf stability analysis of h10 triangular lattice, y= 1.0633312983770105
 ----------------------------------------------------------------------
 Symbolic Z-matrix:
 Charge =  0 Multiplicity = 1

                         Standard orientation:
 ---------------------------------------------------------------------
 Center     Atomic      Atomic             Coordinates (Angstroms)
 Number     Number       Type             X           Y           Z
 ---------------------------------------------------------------------
      1          1           0        1.934276    1.997150    0.000000
      2          1           0        1.934276    0.803214    0.000000
      3          1           0        0.967138    1.297059    0.000000
      4          1           0        0.967138    0.103123    0.000000
      5          1           0        0.000000    0.596968    0.000000
      6          1           0       -0.000000   -0.596968    0.000000
      7          1           0       -0.967138   -0.103123    0.000000
      8          1           0       -0.967138   -1.297059    0.000000
      9          1           0       -1.934276   -0.803214    0.000000
     10          1           0       -1.934276   -1.997150    0.000000
 ---------------------------------------------------------------------

 SCF Done:  E(RHF) =  -4.85740652936     A.U. after   10 cycles
 E2 =    -0.1157842446D+00 EUMP2 =    -0.49731907739194D+01

 The electronic state is 1-AG.
 Alpha  occ. eigenvalues --   -0.82845  -0.73775  -0.55282  -0.32317  -0.29736
 Alpha virt. eigenvalues --    0.01507   0.18066   0.24434   0.48977   0.57872

 Mulliken charges:
               1
     1  H   -0.067556
     2  H    0.137339
     3  H    0.112972
     4  H   -0.120761
     5  H   -0.061993
     6  H   -0.061993
     7  H   -0.120761
     8  H    0.112972
     9  H    0.137339
    10  H   -0.067556
 Sum of Mulliken charges =  -0.00000

 Dipole moment (field-independent basis, Debye):
    X=              0.0000    Y=             -0.0000    Z=              0.0000  Tot=              0.0000
 Quadrupole moment (field-independent basis, Debye-Ang):
   XX=            -12.7636   YY=            -14.9132   ZZ=            -13.0545
   XY=              0.2223   XZ=              0.0000   YZ=              0.0000

 Normal termination of Gaussian 09 at Thu Feb  9 15:39:04 2017.
