 Gaussian 09, Revision E.01,
 Gaussian 09:  ES64L-G09RevE.01 30-Nov-2015

 ----------------------------------------------------------------------
 #rhf/gen scf(symm,tight,novaracc,noincfock,fulldiag) stable(crhf) geom
 =nocrowd test
 ----------------------------------------------------------------------

 hf stability analysis of h10 triangular lattice, y= 0.9763803901699877
 9
 ----------------------------------------------------------------------
 Symbolic Z-matrix:
 Charge =  0 Multiplicity = 1

                         Standard orientation:
 ---------------------------------------------------------------------
 Center     Atomic      Atomic             Coordinates (Angstroms)
 Number     Number       Type             X           Y           Z
 ---------------------------------------------------------------------
      1          1           0        2.023166    1.628425   -0.000000
      2          1           0        2.023166    0.486946   -0.000000
      3          1           0        1.011583    1.099582   -0.000000
      4          1           0        1.011583   -0.041897    0.000000
      5          1           0       -0.000000    0.570740   -0.000000
      6          1           0       -0.000000   -0.570740   -0.000000
      7          1           0       -1.011583    0.041897    0.000000
      8          1           0       -1.011583   -1.099582   -0.000000
      9          1           0       -2.023166   -0.486946    0.000000
     10          1           0       -2.023166   -1.628425   -0.000000
 ---------------------------------------------------------------------

 SCF Done:  E(RHF) =  -4.86820389767     A.U. after   10 cycles
 E2 =    -0.1126523651D+00 EUMP2 =    -0.49808562627443D+01

 The electronic state is 1-AG.
 Alpha  occ. eigenvalues --   -0.84619  -0.74052  -0.55036  -0.35094  -0.30593
 Alpha virt. eigenvalues --   -0.00702   0.23415   0.23557   0.55354   0.62241

 Mulliken charges:
               1
     1  H   -0.095482
     2  H    0.145375
     3  H    0.103647
     4  H   -0.119404
     5  H   -0.034137
     6  H   -0.034137
     7  H   -0.119404
     8  H    0.103647
     9  H    0.145375
    10  H   -0.095482
 Sum of Mulliken charges =   0.00000

 Dipole moment (field-independent basis, Debye):
    X=              0.0000    Y=             -0.0000    Z=              0.0000  Tot=              0.0000
 Quadrupole moment (field-independent basis, Debye-Ang):
   XX=            -13.9197   YY=            -15.4709   ZZ=            -12.9626
   XY=             -1.3537   XZ=             -0.0000   YZ=             -0.0000

 Normal termination of Gaussian 09 at Thu Feb  9 15:35:01 2017.
