 Gaussian 09, Revision E.01,
 Gaussian 09:  ES64L-G09RevE.01 30-Nov-2015

 ----------------------------------------------------------------------
 #rhf/gen scf(symm,tight,novaracc,noincfock,fulldiag) stable(crhf) geom
 =nocrowd test
 ----------------------------------------------------------------------

 hf stability analysis of h10 triangular lattice, y= 0.9593618967412239
 6
 ----------------------------------------------------------------------
 Symbolic Z-matrix:
 Charge =  0 Multiplicity = 1

                         Standard orientation:
 ---------------------------------------------------------------------
 Center     Atomic      Atomic             Coordinates (Angstroms)
 Number     Number       Type             X           Y           Z
 ---------------------------------------------------------------------
      1          1           0        2.039214    1.552042    0.000000
      2          1           0        2.039214    0.419547    0.000000
      3          1           0        1.019607    1.059145    0.000000
      4          1           0        1.019607   -0.073350    0.000000
      5          1           0       -0.000000    0.566248    0.000000
      6          1           0       -0.000000   -0.566248    0.000000
      7          1           0       -1.019607    0.073350    0.000000
      8          1           0       -1.019607   -1.059145    0.000000
      9          1           0       -2.039214   -0.419547    0.000000
     10          1           0       -2.039214   -1.552042    0.000000
 ---------------------------------------------------------------------

 SCF Done:  E(RHF) =  -4.86748057382     A.U. after   10 cycles
 E2 =    -0.1124900944D+00 EUMP2 =    -0.49799706681891D+01

 The electronic state is 1-AG.
 Alpha  occ. eigenvalues --   -0.84900  -0.74055  -0.54969  -0.35880  -0.30386
 Alpha virt. eigenvalues --   -0.01098   0.23120   0.24710   0.54901   0.65229

 Mulliken charges:
               1
     1  H   -0.097060
     2  H    0.143771
     3  H    0.099574
     4  H   -0.117612
     5  H   -0.028672
     6  H   -0.028672
     7  H   -0.117612
     8  H    0.099574
     9  H    0.143771
    10  H   -0.097060
 Sum of Mulliken charges =  -0.00000

 Dipole moment (field-independent basis, Debye):
    X=              0.0000    Y=             -0.0000    Z=              0.0000  Tot=              0.0000
 Quadrupole moment (field-independent basis, Debye-Ang):
   XX=            -14.1684   YY=            -15.3971   ZZ=            -12.9439
   XY=             -1.5454   XZ=              0.0000   YZ=              0.0000

 Normal termination of Gaussian 09 at Thu Feb  9 15:34:12 2017.
