 Gaussian 09, Revision E.01,
 Gaussian 09:  ES64L-G09RevE.01 30-Nov-2015

 ----------------------------------------------------------------------
 #rhf/gen scf(symm,tight,novaracc,noincfock,fulldiag) stable(crhf) geom
 =nocrowd test
 ----------------------------------------------------------------------

 hf stability analysis of h10 triangular lattice, y= 0.8666369262473573
 3
 ----------------------------------------------------------------------
 Symbolic Z-matrix:
 Charge =  0 Multiplicity = 1

                         Standard orientation:
 ---------------------------------------------------------------------
 Center     Atomic      Atomic             Coordinates (Angstroms)
 Number     Number       Type             X           Y           Z
 ---------------------------------------------------------------------
      1          1           0        2.112700    1.108698    0.000000
      2          1           0        2.112700    0.015594    0.000000
      3          1           0        1.056350    0.827625    0.000000
      4          1           0        1.056350   -0.265479    0.000000
      5          1           0       -0.000000    0.546552    0.000000
      6          1           0       -0.000000   -0.546552   -0.000000
      7          1           0       -1.056350    0.265479    0.000000
      8          1           0       -1.056350   -0.827625    0.000000
      9          1           0       -2.112700   -0.015594    0.000000
     10          1           0       -2.112700   -1.108698    0.000000
 ---------------------------------------------------------------------

 SCF Done:  E(RHF) =  -4.85328047610     A.U. after   10 cycles
 E2 =    -0.1139377180D+00 EUMP2 =    -0.49672181941339D+01

 The electronic state is 1-AG.
 Alpha  occ. eigenvalues --   -0.85993  -0.73830  -0.54582  -0.39337  -0.29208
 Alpha virt. eigenvalues --   -0.02723   0.21569   0.30645   0.52811   0.81814

 Mulliken charges:
               1
     1  H   -0.075106
     2  H    0.110815
     3  H    0.058558
     4  H   -0.094382
     5  H    0.000115
     6  H    0.000115
     7  H   -0.094382
     8  H    0.058558
     9  H    0.110815
    10  H   -0.075106
 Sum of Mulliken charges =  -0.00000

 Dipole moment (field-independent basis, Debye):
    X=             -0.0000    Y=              0.0000    Z=              0.0000  Tot=              0.0000
 Quadrupole moment (field-independent basis, Debye-Ang):
   XX=            -15.4556   YY=            -14.3413   ZZ=            -12.8487
   XY=             -1.6910   XZ=              0.0000   YZ=              0.0000

 Normal termination of Gaussian 09 at Thu Feb  9 15:29:26 2017.
