 Gaussian 09, Revision E.01,
 Gaussian 09:  ES64L-G09RevE.01 30-Nov-2015

 ----------------------------------------------------------------------
 #rhf/gen scf(symm,tight,novaracc,noincfock,fulldiag) stable(crhf) geom
 =nocrowd test
 ----------------------------------------------------------------------

 hf stability analysis of h10 triangular lattice, y= 0.8489116403895913
 3
 ----------------------------------------------------------------------
 Symbolic Z-matrix:
 Charge =  0 Multiplicity = 1

                         Standard orientation:
 ---------------------------------------------------------------------
 Center     Atomic      Atomic             Coordinates (Angstroms)
 Number     Number       Type             X           Y           Z
 ---------------------------------------------------------------------
      1          1           0        2.123103    1.018444    0.000000
      2          1           0        2.123103   -0.069304    0.000000
      3          1           0        1.061552    0.781159    0.000000
      4          1           0        1.061552   -0.306589    0.000000
      5          1           0        0.000000    0.543874    0.000000
      6          1           0       -0.000000   -0.543874    0.000000
      7          1           0       -1.061552    0.306589    0.000000
      8          1           0       -1.061552   -0.781159    0.000000
      9          1           0       -2.123103    0.069304    0.000000
     10          1           0       -2.123103   -1.018444    0.000000
 ---------------------------------------------------------------------

 SCF Done:  E(RHF) =  -4.84977631836     A.U. after   10 cycles
 E2 =    -0.1145042797D+00 EUMP2 =    -0.49642805980510D+01

 The electronic state is 1-AG.
 Alpha  occ. eigenvalues --   -0.86116  -0.73760  -0.54516  -0.39797  -0.29012
 Alpha virt. eigenvalues --   -0.02915   0.21330   0.31584   0.52508   0.84631

 Mulliken charges:
               1
     1  H   -0.064349
     2  H    0.099245
     3  H    0.046728
     4  H   -0.086552
     5  H    0.004928
     6  H    0.004928
     7  H   -0.086552
     8  H    0.046728
     9  H    0.099245
    10  H   -0.064349
 Sum of Mulliken charges =   0.00000

 Dipole moment (field-independent basis, Debye):
    X=              0.0000    Y=              0.0000    Z=              0.0000  Tot=              0.0000
 Quadrupole moment (field-independent basis, Debye-Ang):
   XX=            -15.6540   YY=            -14.0920   ZZ=            -12.8337
   XY=             -1.5323   XZ=              0.0000   YZ=              0.0000

 Normal termination of Gaussian 09 at Thu Feb  9 15:28:27 2017.
