 Gaussian 09, Revision E.01,
 Gaussian 09:  ES64L-G09RevE.01 30-Nov-2015

 ----------------------------------------------------------------------
 #rhf/gen scf(symm,tight,novaracc,noincfock,fulldiag) stable(crhf) geom
 =nocrowd test
 ----------------------------------------------------------------------

 ----------------------------------------------------------------------
 hf stability analysis of h10 triangular lattice, y= 1.1441277932265064
 ----------------------------------------------------------------------
 Symbolic Z-matrix:
 Charge =  0 Multiplicity = 1

                         Standard orientation:
 ---------------------------------------------------------------------
 Center     Atomic      Atomic             Coordinates (Angstroms)
 Number     Number       Type             X           Y           Z
 ---------------------------------------------------------------------
      1          1           0        1.846830    2.311621    0.000000
      2          1           0        1.846830    1.061153    0.000000
      3          1           0        0.923415    1.468428    0.000000
      4          1           0        0.923415    0.217960    0.000000
      5          1           0        0.000000    0.625234    0.000000
      6          1           0       -0.000000   -0.625234    0.000000
      7          1           0       -0.923415   -0.217960    0.000000
      8          1           0       -0.923415   -1.468428    0.000000
      9          1           0       -1.846830   -1.061153    0.000000
     10          1           0       -1.846830   -2.311621    0.000000
 ---------------------------------------------------------------------

 SCF Done:  E(RHF) =  -4.82302856064     A.U. after   10 cycles
 E2 =    -0.1217075223D+00 EUMP2 =    -0.49447360829426D+01

 The electronic state is 1-AG.
 Alpha  occ. eigenvalues --   -0.80815  -0.73147  -0.55327  -0.33088  -0.24795
 Alpha virt. eigenvalues --    0.02921   0.14659   0.23118   0.41500   0.60384

 Mulliken charges:
               1
     1  H   -0.021089
     2  H    0.110959
     3  H    0.111968
     4  H   -0.112337
     5  H   -0.089500
     6  H   -0.089500
     7  H   -0.112337
     8  H    0.111968
     9  H    0.110959
    10  H   -0.021089
 Sum of Mulliken charges =   0.00000

 Dipole moment (field-independent basis, Debye):
    X=             -0.0000    Y=              0.0000    Z=              0.0000  Tot=              0.0000
 Quadrupole moment (field-independent basis, Debye-Ang):
   XX=            -11.9757   YY=            -12.7805   ZZ=            -13.1279
   XY=              2.2705   XZ=             -0.0000   YZ=             -0.0000

 Normal termination of Gaussian 09 at Thu Feb  9 15:42:12 2017.
