 Gaussian 09, Revision E.01,
 Gaussian 09:  ES64L-G09RevE.01 30-Nov-2015

 ----------------------------------------------------------------------
 #rhf/gen scf(symm,tight,novaracc,noincfock,fulldiag) stable(crhf) geom
 =nocrowd test
 ----------------------------------------------------------------------

 ----------------------------------------------------------------------
 hf stability analysis of h10 triangular lattice, y= 1.9256298803302931
 ----------------------------------------------------------------------
 Symbolic Z-matrix:
 Charge =  0 Multiplicity = 1

                         Standard orientation:
 ---------------------------------------------------------------------
 Center     Atomic      Atomic             Coordinates (Angstroms)
 Number     Number       Type             X           Y           Z
 ---------------------------------------------------------------------
      1          1           0        1.185019    4.687570    0.000000
      2          1           0        1.185019    2.738738    0.000000
      3          1           0        0.592509    2.830993    0.000000
      4          1           0        0.592509    0.882161    0.000000
      5          1           0        0.000000    0.974416    0.000000
      6          1           0       -0.000000   -0.974416    0.000000
      7          1           0       -0.592509   -0.882161    0.000000
      8          1           0       -0.592509   -2.830993    0.000000
      9          1           0       -1.185019   -2.738738    0.000000
     10          1           0       -1.185019   -4.687570    0.000000
 ---------------------------------------------------------------------

 SCF Done:  E(RHF) =  -4.84461627829     A.U. after    6 cycles
 E2 =    -0.7709423309D+00 EUMP2 =    -0.56155586091423D+01

 The electronic state is 1-AG.
 Alpha  occ. eigenvalues --   -0.73505  -0.70533  -0.65910  -0.60919  -0.19595
 Alpha virt. eigenvalues --   -0.14026   0.39207   0.46610   0.57497   0.67976

 Mulliken charges:
               1
     1  H   -0.008310
     2  H    0.003849
     3  H    0.003154
     4  H   -0.000091
     5  H    0.001399
     6  H    0.001399
     7  H   -0.000091
     8  H    0.003154
     9  H    0.003849
    10  H   -0.008310
 Sum of Mulliken charges =  -0.00000

 Dipole moment (field-independent basis, Debye):
    X=              0.0000    Y=              0.0000    Z=             -0.0000  Tot=              0.0000
 Quadrupole moment (field-independent basis, Debye-Ang):
   XX=            -12.3320   YY=            -17.8067   ZZ=            -13.2329
   XY=             -1.3692   XZ=              0.0000   YZ=              0.0000

 Normal termination of Gaussian 09 at Thu Feb  9 15:56:39 2017.
