 Gaussian 09, Revision E.01,
 Gaussian 09:  ES64L-G09RevE.01 30-Nov-2015

 ----------------------------------------------------------------------
 #rhf/gen scf(symm,tight,novaracc,noincfock,fulldiag) stable(crhf) geom
 =nocrowd test
 ----------------------------------------------------------------------

 hf stability analysis of h10 triangular lattice, y= 0.9105785525071997
 7
 ----------------------------------------------------------------------
 Symbolic Z-matrix:
 Charge =  0 Multiplicity = 1

                         Standard orientation:
 ---------------------------------------------------------------------
 Center     Atomic      Atomic             Coordinates (Angstroms)
 Number     Number       Type             X           Y           Z
 ---------------------------------------------------------------------
      1          1           0        2.081327    1.324697    0.000000
      2          1           0        2.081327    0.215116    0.000000
      3          1           0        1.040664    0.939744    0.000000
      4          1           0        1.040664   -0.169837   -0.000000
      5          1           0        0.000000    0.554790    0.000000
      6          1           0       -0.000000   -0.554790    0.000000
      7          1           0       -1.040664    0.169837   -0.000000
      8          1           0       -1.040664   -0.939744    0.000000
      9          1           0       -2.081327   -0.215116    0.000000
     10          1           0       -2.081327   -1.324697    0.000000
 ---------------------------------------------------------------------

 SCF Done:  E(RHF) =  -4.86156844867     A.U. after   10 cycles
 E2 =    -0.1128239109D+00 EUMP2 =    -0.49743923595933D+01

 The electronic state is 1-AG.
 Alpha  occ. eigenvalues --   -0.85570  -0.73979  -0.54764  -0.37901  -0.29753
 Alpha virt. eigenvalues --   -0.02078   0.22264   0.27972   0.53710   0.74086

 Mulliken charges:
               1
     1  H   -0.092449
     2  H    0.131937
     3  H    0.082284
     4  H   -0.108658
     5  H   -0.013114
     6  H   -0.013114
     7  H   -0.108658
     8  H    0.082284
     9  H    0.131937
    10  H   -0.092449
 Sum of Mulliken charges =  -0.00000

 Dipole moment (field-independent basis, Debye):
    X=             -0.0000    Y=             -0.0000    Z=             -0.0000  Tot=              0.0000
 Quadrupole moment (field-independent basis, Debye-Ang):
   XX=            -14.8785   YY=            -14.9398   ZZ=            -12.8915
   XY=             -1.8230   XZ=              0.0000   YZ=              0.0000

 Normal termination of Gaussian 09 at Thu Feb  9 15:31:48 2017.
