 Gaussian 09, Revision E.01,
 Gaussian 09:  ES64L-G09RevE.01 30-Nov-2015

 ----------------------------------------------------------------------
 #rhf/gen scf(symm,tight,novaracc,noincfock,fulldiag) stable(crhf) geom
 =nocrowd test
 ----------------------------------------------------------------------

 hf stability analysis of h10 triangular lattice, y= 0.8391243392857693
 5
 ----------------------------------------------------------------------
 Symbolic Z-matrix:
 Charge =  0 Multiplicity = 1

                         Standard orientation:
 ---------------------------------------------------------------------
 Center     Atomic      Atomic             Coordinates (Angstroms)
 Number     Number       Type             X           Y           Z
 ---------------------------------------------------------------------
      1          1           0        2.128207    0.967827   -0.000000
      2          1           0        2.128207   -0.117312    0.000000
      3          1           0        1.064104    0.755199   -0.000000
      4          1           0        1.064104   -0.329941    0.000000
      5          1           0        0.000000    0.542570   -0.000000
      6          1           0       -0.000000   -0.542570   -0.000000
      7          1           0       -1.064104    0.329941    0.000000
      8          1           0       -1.064104   -0.755199   -0.000000
      9          1           0       -2.128207    0.117312    0.000000
     10          1           0       -2.128207   -0.967827   -0.000000
 ---------------------------------------------------------------------

 SCF Done:  E(RHF) =  -4.84791649355     A.U. after   10 cycles
 E2 =    -0.1148225272D+00 EUMP2 =    -0.49627390207761D+01

 The electronic state is 1-AG.
 Alpha  occ. eigenvalues --   -0.86173  -0.73721  -0.54483  -0.40018  -0.28914
 Alpha virt. eigenvalues --   -0.03005   0.21211   0.32056   0.52357   0.86066

 Mulliken charges:
               1
     1  H   -0.057501
     2  H    0.092097
     3  H    0.039676
     4  H   -0.081657
     5  H    0.007383
     6  H    0.007383
     7  H   -0.081657
     8  H    0.039676
     9  H    0.092097
    10  H   -0.057501
 Sum of Mulliken charges =  -0.00000

 Dipole moment (field-independent basis, Debye):
    X=              0.0000    Y=             -0.0000    Z=              0.0000  Tot=              0.0000
 Quadrupole moment (field-independent basis, Debye-Ang):
   XX=            -15.7523   YY=            -13.9602   ZZ=            -12.8262
   XY=             -1.4198   XZ=             -0.0000   YZ=             -0.0000

 Normal termination of Gaussian 09 at Thu Feb  9 15:27:53 2017.
