 Gaussian 09, Revision E.01,
 Gaussian 09:  ES64L-G09RevE.01 30-Nov-2015

 ----------------------------------------------------------------------
 #rhf/gen scf(symm,tight,novaracc,noincfock,fulldiag) stable(crhf) geom
 =nocrowd test
 ----------------------------------------------------------------------

 ----------------------------------------------------------------------
 hf stability analysis of h10 triangular lattice, y= 1.3916476650995724
 ----------------------------------------------------------------------
 Symbolic Z-matrix:
 Charge =  0 Multiplicity = 1

                         Standard orientation:
 ---------------------------------------------------------------------
 Center     Atomic      Atomic             Coordinates (Angstroms)
 Number     Number       Type             X           Y           Z
 ---------------------------------------------------------------------
      1          1           0        1.590310    3.156334    0.000000
      2          1           0        1.590310    1.704164    0.000000
      3          1           0        0.795155    1.941210    0.000000
      4          1           0        0.795155    0.489039    0.000000
      5          1           0        0.000000    0.726085    0.000000
      6          1           0       -0.000000   -0.726085   -0.000000
      7          1           0       -0.795155   -0.489039   -0.000000
      8          1           0       -0.795155   -1.941210   -0.000000
      9          1           0       -1.590310   -1.704164   -0.000000
     10          1           0       -1.590310   -3.156334   -0.000000
 ---------------------------------------------------------------------

 SCF Done:  E(RHF) =  -4.81391073945     A.U. after   10 cycles
 E2 =    -0.2951877949D+00 EUMP2 =    -0.51090985343370D+01

 The electronic state is 1-AG.
 Alpha  occ. eigenvalues --   -0.80855  -0.72698  -0.60278  -0.44616  -0.12470
 Alpha virt. eigenvalues --   -0.01232   0.12206   0.24485   0.42029   0.58342

 Mulliken charges:
               1
     1  H   -0.191317
     2  H    0.044844
     3  H    0.083281
     4  H    0.027890
     5  H    0.035303
     6  H    0.035303
     7  H    0.027890
     8  H    0.083281
     9  H    0.044844
    10  H   -0.191317
 Sum of Mulliken charges =  -0.00000

 Dipole moment (field-independent basis, Debye):
    X=              0.0000    Y=              0.0000    Z=              0.0000  Tot=              0.0000
 Quadrupole moment (field-independent basis, Debye-Ang):
   XX=            -15.5460   YY=            -31.1421   ZZ=            -12.8319
   XY=             -9.8706   XZ=             -0.0000   YZ=             -0.0000

 Normal termination of Gaussian 09 at Thu Feb  9 15:49:12 2017.
