 Gaussian 09, Revision E.01,
 Gaussian 09:  ES64L-G09RevE.01 30-Nov-2015

 ----------------------------------------------------------------------
 #rhf/gen scf(symm,tight,novaracc,noincfock,fulldiag) stable(crhf) geom
 =nocrowd test
 ----------------------------------------------------------------------

 hf stability analysis of h10 triangular lattice, y= 0.9419900581645389
 6
 ----------------------------------------------------------------------
 Symbolic Z-matrix:
 Charge =  0 Multiplicity = 1

                         Standard orientation:
 ---------------------------------------------------------------------
 Center     Atomic      Atomic             Coordinates (Angstroms)
 Number     Number       Type             X           Y           Z
 ---------------------------------------------------------------------
      1          1           0        2.054935    1.472538    0.000000
      2          1           0        2.054935    0.348706    0.000000
      3          1           0        1.027468    1.017227    0.000000
      4          1           0        1.027468   -0.106605    0.000000
      5          1           0       -0.000000    0.561916    0.000000
      6          1           0       -0.000000   -0.561916    0.000000
      7          1           0       -1.027468    0.106605    0.000000
      8          1           0       -1.027468   -1.017227    0.000000
      9          1           0       -2.054935   -0.348706    0.000000
     10          1           0       -2.054935   -1.472538    0.000000
 ---------------------------------------------------------------------

 SCF Done:  E(RHF) =  -4.86595939347     A.U. after   10 cycles
 E2 =    -0.1124777802D+00 EUMP2 =    -0.49784371736933D+01

 The electronic state is 1-AG.
 Alpha  occ. eigenvalues --   -0.85163  -0.74042  -0.54898  -0.36644  -0.30163
 Alpha virt. eigenvalues --   -0.01476   0.22813   0.25887   0.54458   0.68355

 Mulliken charges:
               1
     1  H   -0.097049
     2  H    0.140845
     3  H    0.094426
     4  H   -0.115125
     5  H   -0.023098
     6  H   -0.023098
     7  H   -0.115125
     8  H    0.094426
     9  H    0.140845
    10  H   -0.097049
 Sum of Mulliken charges =  -0.00000

 Dipole moment (field-independent basis, Debye):
    X=              0.0000    Y=              0.0000    Z=              0.0000  Tot=              0.0000
 Quadrupole moment (field-independent basis, Debye-Ang):
   XX=            -14.4240   YY=            -15.2716   ZZ=            -12.9249
   XY=             -1.6925   XZ=             -0.0000   YZ=             -0.0000

 Normal termination of Gaussian 09 at Thu Feb  9 15:33:22 2017.
