 Gaussian 09, Revision E.01,
 Gaussian 09:  ES64L-G09RevE.01 30-Nov-2015

 ----------------------------------------------------------------------
 #rhf/gen scf(symm,tight,novaracc,noincfock,fulldiag) stable(crhf) geom
 =nocrowd test
 ----------------------------------------------------------------------

 ----------------------------------------------------------------------
 hf stability analysis of h10 triangular lattice, y= 2.3738143243004877
 ----------------------------------------------------------------------
 Symbolic Z-matrix:
 Charge =  0 Multiplicity = 1

                         Standard orientation:
 ---------------------------------------------------------------------
 Center     Atomic      Atomic             Coordinates (Angstroms)
 Number     Number       Type             X           Y           Z
 ---------------------------------------------------------------------
      1          1           0        0.967799    5.866445   -0.000000
      2          1           0        0.967799    3.480203   -0.000000
      3          1           0        0.483899    3.529783   -0.000000
      4          1           0        0.483899    1.143541   -0.000000
      5          1           0        0.000000    1.193121   -0.000000
      6          1           0       -0.000000   -1.193121   -0.000000
      7          1           0       -0.483899   -1.143541   -0.000000
      8          1           0       -0.483899   -3.529783   -0.000000
      9          1           0       -0.967799   -3.480203   -0.000000
     10          1           0       -0.967799   -5.866445   -0.000000
 ---------------------------------------------------------------------

 SCF Done:  E(RHF) =  -4.46343016204     A.U. after    5 cycles
 E2 =    -0.9864786125D+00 EUMP2 =    -0.54499087745422D+01

 The electronic state is 1-AG.
 Alpha  occ. eigenvalues --   -0.73726  -0.72540  -0.70901  -0.69404  -0.20503
 Alpha virt. eigenvalues --   -0.16050   0.54666   0.59419   0.65969   0.71886

 Mulliken charges:
               1
     1  H    0.001189
     2  H   -0.000026
     3  H   -0.001181
     4  H   -0.000102
     5  H    0.000120
     6  H    0.000120
     7  H   -0.000102
     8  H   -0.001181
     9  H   -0.000026
    10  H    0.001189
 Sum of Mulliken charges =  -0.00000

 Dipole moment (field-independent basis, Debye):
    X=             -0.0000    Y=             -0.0000    Z=             -0.0000  Tot=              0.0000
 Quadrupole moment (field-independent basis, Debye-Ang):
   XX=            -12.6791   YY=            -15.0026   ZZ=            -13.4712
   XY=             -0.3476   XZ=             -0.0000   YZ=             -0.0000

 Normal termination of Gaussian 09 at Thu Feb  9 15:59:27 2017.
