 Gaussian 09, Revision E.01,
 Gaussian 09:  ES64L-G09RevE.01 30-Nov-2015

 ----------------------------------------------------------------------
 #rhf/gen scf(symm,tight,novaracc,noincfock,fulldiag) stable(crhf) geom
 =nocrowd test
 ----------------------------------------------------------------------

 hf stability analysis of h10 triangular lattice, y= 0.8035739955143523
 8
 ----------------------------------------------------------------------
 Symbolic Z-matrix:
 Charge =  0 Multiplicity = 1

                         Standard orientation:
 ---------------------------------------------------------------------
 Center     Atomic      Atomic             Coordinates (Angstroms)
 Number     Number       Type             X           Y           Z
 ---------------------------------------------------------------------
      1          1           0        2.142433    0.779279    0.000000
      2          1           0        2.142433   -0.298655    0.000000
      3          1           0        1.071216    0.659123    0.000000
      4          1           0        1.071216   -0.418811    0.000000
      5          1           0        0.000000    0.538967   -0.000000
      6          1           0       -0.000000   -0.538967   -0.000000
      7          1           0       -1.071216    0.418811    0.000000
      8          1           0       -1.071216   -0.659123   -0.000000
      9          1           0       -2.142433    0.298655    0.000000
     10          1           0       -2.142433   -0.779279    0.000000
 ---------------------------------------------------------------------

 SCF Done:  E(RHF) =  -4.88095794000     A.U. after   10 cycles
 E2 =    -0.1053335774D+00 EUMP2 =    -0.49862915173804D+01

 The electronic state is 1-AG.
 Alpha  occ. eigenvalues --   -0.87623  -0.74444  -0.52697  -0.46542  -0.30889
 Alpha virt. eigenvalues --   -0.01669   0.15771   0.35968   0.51705   0.88399

 Mulliken charges:
               1
     1  H    0.074720
     2  H    0.005258
     3  H   -0.032130
     4  H   -0.034602
     5  H   -0.013246
     6  H   -0.013246
     7  H   -0.034602
     8  H   -0.032130
     9  H    0.005258
    10  H    0.074720
 Sum of Mulliken charges =   0.00000

 Dipole moment (field-independent basis, Debye):
    X=             -0.0000    Y=              0.0000    Z=              0.0000  Tot=              0.0000
 Quadrupole moment (field-independent basis, Debye-Ang):
   XX=            -10.1603   YY=            -17.1468   ZZ=            -12.9564
   XY=              1.6414   XZ=              0.0000   YZ=             -0.0000

 Normal termination of Gaussian 09 at Thu Feb  9 15:25:46 2017.
