 Gaussian 09, Revision E.01,
 Gaussian 09:  ES64L-G09RevE.01 30-Nov-2015

 ----------------------------------------------------------------------
 #rhf/gen scf(symm,tight,novaracc,noincfock,fulldiag) stable(crhf) geom
 =nocrowd test
 ----------------------------------------------------------------------

 ----------------------------------------------------------------------
 hf stability analysis of h10 triangular lattice, y= 1.4453149317584530
 ----------------------------------------------------------------------
 Symbolic Z-matrix:
 Charge =  0 Multiplicity = 1

                         Standard orientation:
 ---------------------------------------------------------------------
 Center     Atomic      Atomic             Coordinates (Angstroms)
 Number     Number       Type             X           Y           Z
 ---------------------------------------------------------------------
      1          1           0        1.540112    3.323091   -0.000000
      2          1           0        1.540112    1.823589   -0.000000
      3          1           0        0.770056    2.036421   -0.000000
      4          1           0        0.770056    0.536919   -0.000000
      5          1           0       -0.000000    0.749751   -0.000000
      6          1           0       -0.000000   -0.749751    0.000000
      7          1           0       -0.770056   -0.536919    0.000000
      8          1           0       -0.770056   -2.036421    0.000000
      9          1           0       -1.540112   -1.823589    0.000000
     10          1           0       -1.540112   -3.323091    0.000000
 ---------------------------------------------------------------------

 SCF Done:  E(RHF) =  -4.85237047835     A.U. after    9 cycles
 E2 =    -0.3537235943D+00 EUMP2 =    -0.52060940726599D+01

 The electronic state is 1-AG.
 Alpha  occ. eigenvalues --   -0.79333  -0.72003  -0.60671  -0.46424  -0.13617
 Alpha virt. eigenvalues --   -0.03696   0.15555   0.27207   0.44064   0.60095

 Mulliken charges:
               1
     1  H   -0.152272
     2  H    0.038352
     3  H    0.064810
     4  H    0.020705
     5  H    0.028405
     6  H    0.028405
     7  H    0.020705
     8  H    0.064810
     9  H    0.038352
    10  H   -0.152272
 Sum of Mulliken charges =  -0.00000

 Dipole moment (field-independent basis, Debye):
    X=             -0.0000    Y=             -0.0000    Z=             -0.0000  Tot=              0.0000
 Quadrupole moment (field-independent basis, Debye-Ang):
   XX=            -14.5773   YY=            -29.5711   ZZ=            -12.8668
   XY=             -8.3081   XZ=              0.0000   YZ=              0.0000

 Normal termination of Gaussian 09 at Thu Feb  9 15:50:18 2017.
