 Gaussian 09, Revision E.01,
 Gaussian 09:  ES64L-G09RevE.01 30-Nov-2015

 ----------------------------------------------------------------------
 #rhf/gen scf(symm,tight,novaracc,noincfock,fulldiag) stable(crhf) geom
 =nocrowd test
 ----------------------------------------------------------------------

 ----------------------------------------------------------------------
 hf stability analysis of h10 triangular lattice, y= 1.2360879047933260
 ----------------------------------------------------------------------
 Symbolic Z-matrix:
 Charge =  0 Multiplicity = 1

                         Standard orientation:
 ---------------------------------------------------------------------
 Center     Atomic      Atomic             Coordinates (Angstroms)
 Number     Number       Type             X           Y           Z
 ---------------------------------------------------------------------
      1          1           0        1.747704    2.643077    0.000000
      2          1           0        1.747704    1.321685    0.000000
      3          1           0        0.873852    1.651886    0.000000
      4          1           0        0.873852    0.330495    0.000000
      5          1           0        0.000000    0.660696    0.000000
      6          1           0       -0.000000   -0.660696    0.000000
      7          1           0       -0.873852   -0.330495    0.000000
      8          1           0       -0.873852   -1.651886    0.000000
      9          1           0       -1.747704   -1.321685    0.000000
     10          1           0       -1.747704   -2.643077    0.000000
 ---------------------------------------------------------------------

 SCF Done:  E(RHF) =  -4.75718893502     A.U. after   11 cycles
 E2 =    -0.1313508927D+00 EUMP2 =    -0.48885398277606D+01

 The electronic state is 1-AG.
 Alpha  occ. eigenvalues --   -0.78265  -0.72090  -0.55155  -0.34196  -0.18425
 Alpha virt. eigenvalues --    0.01627   0.14929   0.17540   0.39878   0.63246

 Mulliken charges:
               1
     1  H    0.043998
     2  H    0.056704
     3  H    0.114849
     4  H   -0.081410
     5  H   -0.134142
     6  H   -0.134142
     7  H   -0.081410
     8  H    0.114849
     9  H    0.056704
    10  H    0.043998
 Sum of Mulliken charges =   0.00000

 Dipole moment (field-independent basis, Debye):
    X=             -0.0000    Y=             -0.0000    Z=              0.0000  Tot=              0.0000
 Quadrupole moment (field-independent basis, Debye-Ang):
   XX=            -11.5600   YY=             -8.4431   ZZ=            -13.1855
   XY=              4.7486   XZ=             -0.0000   YZ=             -0.0000

 Normal termination of Gaussian 09 at Thu Feb  9 15:45:13 2017.
