 Gaussian 09, Revision E.01,
 Gaussian 09:  ES64L-G09RevE.01 30-Nov-2015

 ----------------------------------------------------------------------
 #rhf/gen scf(symm,tight,novaracc,noincfock,fulldiag) stable(crhf) geom
 =nocrowd test
 ----------------------------------------------------------------------

 hf stability analysis of h10 triangular lattice, y= 0.9510602499003174
 6
 ----------------------------------------------------------------------
 Symbolic Z-matrix:
 Charge =  0 Multiplicity = 1

                         Standard orientation:
 ---------------------------------------------------------------------
 Center     Atomic      Atomic             Coordinates (Angstroms)
 Number     Number       Type             X           Y           Z
 ---------------------------------------------------------------------
      1          1           0        2.046816    1.514245   -0.000000
      2          1           0        2.046816    0.385956   -0.000000
      3          1           0        1.023408    1.039195   -0.000000
      4          1           0        1.023408   -0.089094    0.000000
      5          1           0       -0.000000    0.564145   -0.000000
      6          1           0       -0.000000   -0.564145   -0.000000
      7          1           0       -1.023408    0.089094    0.000000
      8          1           0       -1.023408   -1.039195   -0.000000
      9          1           0       -2.046816   -0.385956    0.000000
     10          1           0       -2.046816   -1.514245   -0.000000
 ---------------------------------------------------------------------

 SCF Done:  E(RHF) =  -4.86684600286     A.U. after   10 cycles
 E2 =    -0.1124651795D+00 EUMP2 =    -0.49793111823646D+01

 The electronic state is 1-AG.
 Alpha  occ. eigenvalues --   -0.85029  -0.74051  -0.54936  -0.36250  -0.30281
 Alpha virt. eigenvalues --   -0.01282   0.22973   0.25274   0.54687   0.66715

 Mulliken charges:
               1
     1  H   -0.097268
     2  H    0.142541
     3  H    0.097245
     4  H   -0.116511
     5  H   -0.026007
     6  H   -0.026007
     7  H   -0.116511
     8  H    0.097245
     9  H    0.142541
    10  H   -0.097268
 Sum of Mulliken charges =   0.00000

 Dipole moment (field-independent basis, Debye):
    X=             -0.0000    Y=             -0.0000    Z=              0.0000  Tot=              0.0000
 Quadrupole moment (field-independent basis, Debye-Ang):
   XX=            -14.2906   YY=            -15.3430   ZZ=            -12.9348
   XY=             -1.6220   XZ=             -0.0000   YZ=             -0.0000

 Normal termination of Gaussian 09 at Thu Feb  9 15:33:49 2017.
