 Gaussian 09, Revision E.01,
 Gaussian 09:  ES64L-G09RevE.01 30-Nov-2015

 ----------------------------------------------------------------------
 #rhf/gen scf(symm,tight,novaracc,noincfock,fulldiag) stable(crhf) geom
 =nocrowd test
 ----------------------------------------------------------------------

 hf stability analysis of h10 triangular lattice, y= 0.7834165171194891
 2
 ----------------------------------------------------------------------
 Symbolic Z-matrix:
 Charge =  0 Multiplicity = 1

                         Standard orientation:
 ---------------------------------------------------------------------
 Center     Atomic      Atomic             Coordinates (Angstroms)
 Number     Number       Type             X           Y           Z
 ---------------------------------------------------------------------
      1          1           0        2.147135    0.669111    0.000000
      2          1           0        2.147135   -0.406462    0.000000
      3          1           0        1.073567    0.603449    0.000000
      4          1           0        1.073567   -0.472125    0.000000
      5          1           0        0.000000    0.537787    0.000000
      6          1           0       -0.000000   -0.537787    0.000000
      7          1           0       -1.073567    0.472125    0.000000
      8          1           0       -1.073567   -0.603449    0.000000
      9          1           0       -2.147135    0.406462    0.000000
     10          1           0       -2.147135   -0.669111    0.000000
 ---------------------------------------------------------------------

 SCF Done:  E(RHF) =  -4.88496828947     A.U. after   10 cycles
 E2 =    -0.1050771773D+00 EUMP2 =    -0.49900454667542D+01

 The electronic state is 1-AG.
 Alpha  occ. eigenvalues --   -0.87726  -0.74505  -0.52656  -0.46776  -0.31124
 Alpha virt. eigenvalues --   -0.01407   0.15459   0.36570   0.51412   0.89777

 Mulliken charges:
               1
     1  H    0.059409
     2  H    0.021267
     3  H   -0.032825
     4  H   -0.033940
     5  H   -0.013911
     6  H   -0.013911
     7  H   -0.033940
     8  H   -0.032825
     9  H    0.021267
    10  H    0.059409
 Sum of Mulliken charges =   0.00000

 Dipole moment (field-independent basis, Debye):
    X=             -0.0000    Y=              0.0000    Z=              0.0000  Tot=              0.0000
 Quadrupole moment (field-independent basis, Debye-Ang):
   XX=            -10.0927   YY=            -17.3305   ZZ=            -12.9550
   XY=              0.9007   XZ=             -0.0000   YZ=              0.0000

 Normal termination of Gaussian 09 at Thu Feb  9 15:24:30 2017.
