 Gaussian 09, Revision E.01,
 Gaussian 09:  ES64L-G09RevE.01 30-Nov-2015

 ----------------------------------------------------------------------
 #rhf/gen scf(symm,tight,novaracc,noincfock,fulldiag) stable(crhf) geom
 =nocrowd test
 ----------------------------------------------------------------------

 ----------------------------------------------------------------------
 hf stability analysis of h10 triangular lattice, y= 1.2628985236429111
 ----------------------------------------------------------------------
 Symbolic Z-matrix:
 Charge =  0 Multiplicity = 1

                         Standard orientation:
 ---------------------------------------------------------------------
 Center     Atomic      Atomic             Coordinates (Angstroms)
 Number     Number       Type             X           Y           Z
 ---------------------------------------------------------------------
      1          1           0        1.719459    2.735308   -0.000000
      2          1           0        1.719459    1.392210   -0.000000
      3          1           0        0.859730    1.703428   -0.000000
      4          1           0        0.859730    0.360331   -0.000000
      5          1           0        0.000000    0.671549   -0.000000
      6          1           0       -0.000000   -0.671549   -0.000000
      7          1           0       -0.859730   -0.360331   -0.000000
      8          1           0       -0.859730   -1.703428   -0.000000
      9          1           0       -1.719459   -1.392210   -0.000000
     10          1           0       -1.719459   -2.735308   -0.000000
 ---------------------------------------------------------------------

 SCF Done:  E(RHF) =  -4.73424097944     A.U. after   11 cycles
 E2 =    -0.1351607388D+00 EUMP2 =    -0.48694017182025D+01

 The electronic state is 1-AG.
 Alpha  occ. eigenvalues --   -0.77509  -0.71721  -0.55082  -0.34607  -0.16473
 Alpha virt. eigenvalues --    0.00653   0.15587   0.15884   0.40275   0.64021

 Mulliken charges:
               1
     1  H    0.062922
     2  H    0.029203
     3  H    0.123340
     4  H   -0.058546
     5  H   -0.156918
     6  H   -0.156918
     7  H   -0.058546
     8  H    0.123340
     9  H    0.029203
    10  H    0.062922
 Sum of Mulliken charges =   0.00000

 Dipole moment (field-independent basis, Debye):
    X=             -0.0000    Y=             -0.0000    Z=             -0.0000  Tot=              0.0000
 Quadrupole moment (field-independent basis, Debye-Ang):
   XX=            -11.6308   YY=             -6.9412   ZZ=            -13.1892
   XY=              5.2857   XZ=              0.0000   YZ=              0.0000

 Normal termination of Gaussian 09 at Thu Feb  9 15:46:00 2017.
