 Gaussian 09, Revision E.01,
 Gaussian 09:  ES64L-G09RevE.01 30-Nov-2015

 ----------------------------------------------------------------------
 #rhf/gen scf(symm,tight,novaracc,noincfock,fulldiag) stable(crhf) geom
 =nocrowd test
 ----------------------------------------------------------------------

 ----------------------------------------------------------------------
 hf stability analysis of h10 triangular lattice, y= 1.1495662960871658
 ----------------------------------------------------------------------
 Symbolic Z-matrix:
 Charge =  0 Multiplicity = 1

                         Standard orientation:
 ---------------------------------------------------------------------
 Center     Atomic      Atomic             Coordinates (Angstroms)
 Number     Number       Type             X           Y           Z
 ---------------------------------------------------------------------
      1          1           0        1.840911    2.331946   -0.000000
      2          1           0        1.840911    1.077458   -0.000000
      3          1           0        0.920455    1.479595   -0.000000
      4          1           0        0.920455    0.225107   -0.000000
      5          1           0        0.000000    0.627244   -0.000000
      6          1           0       -0.000000   -0.627244   -0.000000
      7          1           0       -0.920455   -0.225107   -0.000000
      8          1           0       -0.920455   -1.479595   -0.000000
      9          1           0       -1.840911   -1.077458   -0.000000
     10          1           0       -1.840911   -2.331946   -0.000000
 ---------------------------------------------------------------------

 SCF Done:  E(RHF) =  -4.81987265004     A.U. after   10 cycles
 E2 =    -0.1221930233D+00 EUMP2 =    -0.49420656733783D+01

 The electronic state is 1-AG.
 Alpha  occ. eigenvalues --   -0.80669  -0.73094  -0.55324  -0.33150  -0.24433
 Alpha virt. eigenvalues --    0.02946   0.14537   0.22895   0.41218   0.60555

 Mulliken charges:
               1
     1  H   -0.017496
     2  H    0.108603
     3  H    0.111809
     4  H   -0.111379
     5  H   -0.091537
     6  H   -0.091537
     7  H   -0.111379
     8  H    0.111809
     9  H    0.108603
    10  H   -0.017496
 Sum of Mulliken charges =   0.00000

 Dipole moment (field-independent basis, Debye):
    X=              0.0000    Y=             -0.0000    Z=             -0.0000  Tot=              0.0000
 Quadrupole moment (field-independent basis, Debye-Ang):
   XX=            -11.9347   YY=            -12.5784   ZZ=            -13.1322
   XY=              2.4191   XZ=             -0.0000   YZ=             -0.0000

 Normal termination of Gaussian 09 at Thu Feb  9 15:42:24 2017.
