 Gaussian 09, Revision E.01,
 Gaussian 09:  ES64L-G09RevE.01 30-Nov-2015

 ----------------------------------------------------------------------
 #rhf/gen scf(symm,tight,novaracc,noincfock,fulldiag) stable(crhf) geom
 =nocrowd test
 ----------------------------------------------------------------------

 hf stability analysis of h10 triangular lattice, y= 0.8466387197876653
 6
 ----------------------------------------------------------------------
 Symbolic Z-matrix:
 Charge =  0 Multiplicity = 1

                         Standard orientation:
 ---------------------------------------------------------------------
 Center     Atomic      Atomic             Coordinates (Angstroms)
 Number     Number       Type             X           Y           Z
 ---------------------------------------------------------------------
      1          1           0        2.124331    1.006739   -0.000000
      2          1           0        2.124331   -0.080381    0.000000
      3          1           0        1.062165    0.775149   -0.000000
      4          1           0        1.062165   -0.311970    0.000000
      5          1           0       -0.000000    0.543560   -0.000000
      6          1           0       -0.000000   -0.543560    0.000000
      7          1           0       -1.062165    0.311970   -0.000000
      8          1           0       -1.062165   -0.775149    0.000000
      9          1           0       -2.124331    0.080381   -0.000000
     10          1           0       -2.124331   -1.006739    0.000000
 ---------------------------------------------------------------------

 SCF Done:  E(RHF) =  -4.84933753701     A.U. after   10 cycles
 E2 =    -0.1145783228D+00 EUMP2 =    -0.49639158598478D+01

 The electronic state is 1-AG.
 Alpha  occ. eigenvalues --   -0.86130  -0.73751  -0.54508  -0.39850  -0.28989
 Alpha virt. eigenvalues --   -0.02937   0.21302   0.31697   0.52472   0.84973

 Mulliken charges:
               1
     1  H   -0.062816
     2  H    0.097633
     3  H    0.045122
     4  H   -0.085452
     5  H    0.005513
     6  H    0.005513
     7  H   -0.085452
     8  H    0.045122
     9  H    0.097633
    10  H   -0.062816
 Sum of Mulliken charges =  -0.00000

 Dipole moment (field-independent basis, Debye):
    X=             -0.0000    Y=              0.0000    Z=              0.0000  Tot=              0.0000
 Quadrupole moment (field-independent basis, Debye-Ang):
   XX=            -15.6776   YY=            -14.0609   ZZ=            -12.8319
   XY=             -1.5077   XZ=              0.0000   YZ=              0.0000

 Normal termination of Gaussian 09 at Thu Feb  9 15:28:19 2017.
