 Gaussian 09, Revision E.01,
 Gaussian 09:  ES64L-G09RevE.01 30-Nov-2015

 ----------------------------------------------------------------------
 #rhf/gen scf(symm,tight,novaracc,noincfock,fulldiag) stable(crhf) geom
 =nocrowd test
 ----------------------------------------------------------------------

 ----------------------------------------------------------------------
 hf stability analysis of h10 triangular lattice, y= 1.1879529318790409
 ----------------------------------------------------------------------
 Symbolic Z-matrix:
 Charge =  0 Multiplicity = 1

                         Standard orientation:
 ---------------------------------------------------------------------
 Center     Atomic      Atomic             Coordinates (Angstroms)
 Number     Number       Type             X           Y           Z
 ---------------------------------------------------------------------
      1          1           0        1.799267    2.472709   -0.000000
      2          1           0        1.799267    1.189186   -0.000000
      3          1           0        0.899633    1.557235   -0.000000
      4          1           0        0.899633    0.273712   -0.000000
      5          1           0        0.000000    0.641762    0.000000
      6          1           0       -0.000000   -0.641762    0.000000
      7          1           0       -0.899633   -0.273712   -0.000000
      8          1           0       -0.899633   -1.557235   -0.000000
      9          1           0       -1.799267   -1.189186   -0.000000
     10          1           0       -1.799267   -2.472709   -0.000000
 ---------------------------------------------------------------------

 SCF Done:  E(RHF) =  -4.79478776280     A.U. after   10 cycles
 E2 =    -0.1259027400D+00 EUMP2 =    -0.49206905027524D+01

 The electronic state is 1-AG.
 Alpha  occ. eigenvalues --   -0.79618  -0.72683  -0.55271  -0.33595  -0.21818
 Alpha virt. eigenvalues --    0.02755   0.14174   0.20855   0.39982   0.61763

 Mulliken charges:
               1
     1  H    0.009018
     2  H    0.089551
     3  H    0.111201
     4  H   -0.102415
     5  H   -0.107355
     6  H   -0.107355
     7  H   -0.102415
     8  H    0.111201
     9  H    0.089551
    10  H    0.009018
 Sum of Mulliken charges =  -0.00000

 Dipole moment (field-independent basis, Debye):
    X=             -0.0000    Y=              0.0000    Z=             -0.0000  Tot=              0.0000
 Quadrupole moment (field-independent basis, Debye-Ang):
   XX=            -11.6958   YY=            -10.9465   ZZ=            -13.1601
   XY=              3.4798   XZ=             -0.0000   YZ=             -0.0000

 Normal termination of Gaussian 09 at Thu Feb  9 15:43:43 2017.
