 Gaussian 09, Revision E.01,
 Gaussian 09:  ES64L-G09RevE.01 30-Nov-2015

 ----------------------------------------------------------------------
 #rhf/gen scf(symm,tight,novaracc,noincfock,fulldiag) stable(crhf) geom
 =nocrowd test
 ----------------------------------------------------------------------

 ----------------------------------------------------------------------
 hf stability analysis of h10 triangular lattice, y= 1.1076695698895584
 ----------------------------------------------------------------------
 Symbolic Z-matrix:
 Charge =  0 Multiplicity = 1

                         Standard orientation:
 ---------------------------------------------------------------------
 Center     Atomic      Atomic             Coordinates (Angstroms)
 Number     Number       Type             X           Y           Z
 ---------------------------------------------------------------------
      1          1           0        1.886491    2.172730   -0.000000
      2          1           0        1.886491    0.948552   -0.000000
      3          1           0        0.943246    1.392410   -0.000000
      4          1           0        0.943246    0.168231   -0.000000
      5          1           0        0.000000    0.612089   -0.000000
      6          1           0       -0.000000   -0.612089   -0.000000
      7          1           0       -0.943246   -0.168231    0.000000
      8          1           0       -0.943246   -1.392410   -0.000000
      9          1           0       -1.886491   -0.948552    0.000000
     10          1           0       -1.886491   -2.172730   -0.000000
 ---------------------------------------------------------------------

 SCF Done:  E(RHF) =  -4.84148587327     A.U. after   10 cycles
 E2 =    -0.1187221662D+00 EUMP2 =    -0.49602080394951D+01

 The electronic state is 1-AG.
 Alpha  occ. eigenvalues --   -0.81766  -0.73471  -0.55331  -0.32686  -0.27154
 Alpha virt. eigenvalues --    0.02474   0.15876   0.24143   0.44138   0.59240

 Mulliken charges:
               1
     1  H   -0.043835
     2  H    0.124843
     3  H    0.112954
     4  H   -0.117348
     5  H   -0.076614
     6  H   -0.076614
     7  H   -0.117348
     8  H    0.112954
     9  H    0.124843
    10  H   -0.043835
 Sum of Mulliken charges =   0.00000

 Dipole moment (field-independent basis, Debye):
    X=              0.0000    Y=              0.0000    Z=             -0.0000  Tot=              0.0000
 Quadrupole moment (field-independent basis, Debye-Ang):
   XX=            -12.2912   YY=            -13.9445   ZZ=            -13.0967
   XY=              1.3015   XZ=              0.0000   YZ=             -0.0000

 Normal termination of Gaussian 09 at Thu Feb  9 15:40:50 2017.
