 Gaussian 09, Revision E.01,
 Gaussian 09:  ES64L-G09RevE.01 30-Nov-2015

 ----------------------------------------------------------------------
 #rhf/gen scf(symm,tight,novaracc,noincfock,fulldiag) stable(crhf) geom
 =nocrowd test
 ----------------------------------------------------------------------

 ----------------------------------------------------------------------
 hf stability analysis of h10 triangular lattice, y= 1.3154982119869003
 ----------------------------------------------------------------------
 Symbolic Z-matrix:
 Charge =  0 Multiplicity = 1

                         Standard orientation:
 ---------------------------------------------------------------------
 Center     Atomic      Atomic             Coordinates (Angstroms)
 Number     Number       Type             X           Y           Z
 ---------------------------------------------------------------------
      1          1           0        1.665300    2.911360    0.000000
      2          1           0        1.665300    1.524582    0.000000
      3          1           0        0.832650    1.802375    0.000000
      4          1           0        0.832650    0.415596    0.000000
      5          1           0        0.000000    0.693389    0.000000
      6          1           0       -0.000000   -0.693389    0.000000
      7          1           0       -0.832650   -0.415596    0.000000
      8          1           0       -0.832650   -1.802375    0.000000
      9          1           0       -1.665300   -1.524582    0.000000
     10          1           0       -1.665300   -2.911360    0.000000
 ---------------------------------------------------------------------

 SCF Done:  E(RHF) =  -4.74773482953     A.U. after   11 cycles
 E2 =    -0.2160289762D+00 EUMP2 =    -0.49637638057092D+01

 The electronic state is 1-AG.
 Alpha  occ. eigenvalues --   -0.83066  -0.73761  -0.59664  -0.41844  -0.11194
 Alpha virt. eigenvalues --    0.01753   0.08724   0.20659   0.39148   0.55703

 Mulliken charges:
               1
     1  H   -0.245318
     2  H    0.049348
     3  H    0.119233
     4  H    0.034634
     5  H    0.042102
     6  H    0.042102
     7  H    0.034634
     8  H    0.119233
     9  H    0.049348
    10  H   -0.245318
 Sum of Mulliken charges =   0.00000

 Dipole moment (field-independent basis, Debye):
    X=              0.0000    Y=             -0.0000    Z=             -0.0000  Tot=              0.0000
 Quadrupole moment (field-independent basis, Debye-Ang):
   XX=            -17.2637   YY=            -31.9660   ZZ=            -12.7940
   XY=            -11.7232   XZ=              0.0000   YZ=              0.0000

 Normal termination of Gaussian 09 at Thu Feb  9 15:47:25 2017.
