 Gaussian 09, Revision E.01,
 Gaussian 09:  ES64L-G09RevE.01 30-Nov-2015

 ----------------------------------------------------------------------
 #rhf/gen scf(symm,tight,novaracc,noincfock,fulldiag) stable(crhf) geom
 =nocrowd test
 ----------------------------------------------------------------------

 ----------------------------------------------------------------------
 hf stability analysis of h10 triangular lattice, y= 1.1321087319861824
 ----------------------------------------------------------------------
 Symbolic Z-matrix:
 Charge =  0 Multiplicity = 1

                         Standard orientation:
 ---------------------------------------------------------------------
 Center     Atomic      Atomic             Coordinates (Angstroms)
 Number     Number       Type             X           Y           Z
 ---------------------------------------------------------------------
      1          1           0        1.859914    2.266348   -0.000000
      2          1           0        1.859914    1.024677   -0.000000
      3          1           0        0.929957    1.443592   -0.000000
      4          1           0        0.929957    0.201921   -0.000000
      5          1           0       -0.000000    0.620836    0.000000
      6          1           0       -0.000000   -0.620836    0.000000
      7          1           0       -0.929957   -0.201921   -0.000000
      8          1           0       -0.929957   -1.443592   -0.000000
      9          1           0       -1.859914   -1.024677   -0.000000
     10          1           0       -1.859914   -2.266348   -0.000000
 ---------------------------------------------------------------------

 SCF Done:  E(RHF) =  -4.82963714564     A.U. after   10 cycles
 E2 =    -0.1206707259D+00 EUMP2 =    -0.49503078715583D+01

 The electronic state is 1-AG.
 Alpha  occ. eigenvalues --   -0.81134  -0.73261  -0.55333  -0.32953  -0.25587
 Alpha virt. eigenvalues --    0.02823   0.14988   0.23546   0.42226   0.60006

 Mulliken charges:
               1
     1  H   -0.028858
     2  H    0.115896
     3  H    0.112326
     4  H   -0.114245
     5  H   -0.085119
     6  H   -0.085119
     7  H   -0.114245
     8  H    0.112326
     9  H    0.115896
    10  H   -0.028858
 Sum of Mulliken charges =  -0.00000

 Dipole moment (field-independent basis, Debye):
    X=              0.0000    Y=             -0.0000    Z=             -0.0000  Tot=              0.0000
 Quadrupole moment (field-independent basis, Debye-Ang):
   XX=            -12.0720   YY=            -13.2010   ZZ=            -13.1180
   XY=              1.9452   XZ=             -0.0000   YZ=              0.0000

 Normal termination of Gaussian 09 at Thu Feb  9 15:41:46 2017.
