 Gaussian 09, Revision E.01,
 Gaussian 09:  ES64L-G09RevE.01 30-Nov-2015

 ----------------------------------------------------------------------
 #rhf/gen scf(symm,tight,novaracc,noincfock,fulldiag) stable(crhf) geom
 =nocrowd test
 ----------------------------------------------------------------------

 hf stability analysis of h10 triangular lattice, y= 0.7820479823787287
 5
 ----------------------------------------------------------------------
 Symbolic Z-matrix:
 Charge =  0 Multiplicity = 1

                         Standard orientation:
 ---------------------------------------------------------------------
 Center     Atomic      Atomic             Coordinates (Angstroms)
 Number     Number       Type             X           Y           Z
 ---------------------------------------------------------------------
      1          1           0        2.147357    0.661547    0.000000
      2          1           0        2.147357   -0.413915    0.000000
      3          1           0        1.073679    0.599639    0.000000
      4          1           0        1.073679   -0.475823    0.000000
      5          1           0       -0.000000    0.537731    0.000000
      6          1           0       -0.000000   -0.537731    0.000000
      7          1           0       -1.073679    0.475823   -0.000000
      8          1           0       -1.073679   -0.599639   -0.000000
      9          1           0       -2.147357    0.413915   -0.000000
     10          1           0       -2.147357   -0.661547   -0.000000
 ---------------------------------------------------------------------

 SCF Done:  E(RHF) =  -4.88515708890     A.U. after   10 cycles
 E2 =    -0.1050651656D+00 EUMP2 =    -0.49902222545229D+01

 The electronic state is 1-AG.
 Alpha  occ. eigenvalues --   -0.87731  -0.74508  -0.52654  -0.46788  -0.31135
 Alpha virt. eigenvalues --   -0.01395   0.15444   0.36599   0.51398   0.89843

 Mulliken charges:
               1
     1  H    0.058339
     2  H    0.022370
     3  H   -0.032863
     4  H   -0.033903
     5  H   -0.013942
     6  H   -0.013942
     7  H   -0.033903
     8  H   -0.032863
     9  H    0.022370
    10  H    0.058339
 Sum of Mulliken charges =  -0.00000

 Dipole moment (field-independent basis, Debye):
    X=              0.0000    Y=              0.0000    Z=             -0.0000  Tot=              0.0000
 Quadrupole moment (field-independent basis, Debye-Ang):
   XX=            -10.0895   YY=            -17.3392   ZZ=            -12.9549
   XY=              0.8494   XZ=              0.0000   YZ=              0.0000

 Normal termination of Gaussian 09 at Thu Feb  9 15:24:25 2017.
