 Gaussian 09, Revision E.01,
 Gaussian 09:  ES64L-G09RevE.01 30-Nov-2015

 ----------------------------------------------------------------------
 #rhf/gen scf(symm,tight,novaracc,noincfock,fulldiag) stable(crhf) geom
 =nocrowd test
 ----------------------------------------------------------------------

 hf stability analysis of h10 triangular lattice, y= 0.9969861316836085
 0
 ----------------------------------------------------------------------
 Symbolic Z-matrix:
 Charge =  0 Multiplicity = 1

                         Standard orientation:
 ---------------------------------------------------------------------
 Center     Atomic      Atomic             Coordinates (Angstroms)
 Number     Number       Type             X           Y           Z
 ---------------------------------------------------------------------
      1          1           0        2.003007    1.718979   -0.000000
      2          1           0        2.003007    0.566012   -0.000000
      3          1           0        1.001504    1.147731   -0.000000
      4          1           0        1.001504   -0.005236    0.000000
      5          1           0       -0.000000    0.576484   -0.000000
      6          1           0       -0.000000   -0.576484   -0.000000
      7          1           0       -1.001504    0.005236    0.000000
      8          1           0       -1.001504   -1.147731   -0.000000
      9          1           0       -2.003007   -0.566012    0.000000
     10          1           0       -2.003007   -1.718979   -0.000000
 ---------------------------------------------------------------------

 SCF Done:  E(RHF) =  -4.86793916100     A.U. after   10 cycles
 E2 =    -0.1130508271D+00 EUMP2 =    -0.49809899880944D+01

 The electronic state is 1-AG.
 Alpha  occ. eigenvalues --   -0.84247  -0.74027  -0.55109  -0.34115  -0.30809
 Alpha virt. eigenvalues --   -0.00195   0.22177   0.23751   0.55923   0.58757

 Mulliken charges:
               1
     1  H   -0.091651
     2  H    0.145780
     3  H    0.107430
     4  H   -0.120817
     5  H   -0.040742
     6  H   -0.040742
     7  H   -0.120817
     8  H    0.107430
     9  H    0.145780
    10  H   -0.091651
 Sum of Mulliken charges =  -0.00000

 Dipole moment (field-independent basis, Debye):
    X=              0.0000    Y=              0.0000    Z=              0.0000  Tot=              0.0000
 Quadrupole moment (field-independent basis, Debye-Ang):
   XX=            -13.6247   YY=            -15.4870   ZZ=            -12.9851
   XY=             -1.0637   XZ=             -0.0000   YZ=             -0.0000

 Normal termination of Gaussian 09 at Thu Feb  9 15:36:03 2017.
