 Gaussian 09, Revision E.01,
 Gaussian 09:  ES64L-G09RevE.01 30-Nov-2015

 ----------------------------------------------------------------------
 #rhf/gen scf(symm,tight,novaracc,noincfock,fulldiag) stable(crhf) geom
 =nocrowd test
 ----------------------------------------------------------------------

 ----------------------------------------------------------------------
 hf stability analysis of h10 triangular lattice, y= 1.9311801631481520
 ----------------------------------------------------------------------
 Symbolic Z-matrix:
 Charge =  0 Multiplicity = 1

                         Standard orientation:
 ---------------------------------------------------------------------
 Center     Atomic      Atomic             Coordinates (Angstroms)
 Number     Number       Type             X           Y           Z
 ---------------------------------------------------------------------
      1          1           0        1.181773    4.702512   -0.000000
      2          1           0        1.181773    2.748328   -0.000000
      3          1           0        0.590886    2.839802   -0.000000
      4          1           0        0.590886    0.885618   -0.000000
      5          1           0        0.000000    0.977092    0.000000
      6          1           0       -0.000000   -0.977092    0.000000
      7          1           0       -0.590886   -0.885618    0.000000
      8          1           0       -0.590886   -2.839802    0.000000
      9          1           0       -1.181773   -2.748328    0.000000
     10          1           0       -1.181773   -4.702512    0.000000
 ---------------------------------------------------------------------

 SCF Done:  E(RHF) =  -4.84149424059     A.U. after    6 cycles
 E2 =    -0.7741014037D+00 EUMP2 =    -0.56155956443280D+01

 The electronic state is 1-AG.
 Alpha  occ. eigenvalues --   -0.73491  -0.70549  -0.65979  -0.61056  -0.19620
 Alpha virt. eigenvalues --   -0.14071   0.39424   0.46790   0.57614   0.68024

 Mulliken charges:
               1
     1  H   -0.007958
     2  H    0.003728
     3  H    0.002983
     4  H   -0.000104
     5  H    0.001350
     6  H    0.001350
     7  H   -0.000104
     8  H    0.002983
     9  H    0.003728
    10  H   -0.007958
 Sum of Mulliken charges =  -0.00000

 Dipole moment (field-independent basis, Debye):
    X=             -0.0000    Y=             -0.0000    Z=              0.0000  Tot=              0.0000
 Quadrupole moment (field-independent basis, Debye-Ang):
   XX=            -12.3340   YY=            -17.7446   ZZ=            -13.2368
   XY=             -1.3435   XZ=             -0.0000   YZ=              0.0000

 Normal termination of Gaussian 09 at Thu Feb  9 15:56:42 2017.
