 Gaussian 09, Revision E.01,
 Gaussian 09:  ES64L-G09RevE.01 30-Nov-2015

 ----------------------------------------------------------------------
 #rhf/gen scf(symm,tight,novaracc,noincfock,fulldiag) stable(crhf) geom
 =nocrowd test
 ----------------------------------------------------------------------

 ----------------------------------------------------------------------
 hf stability analysis of h10 triangular lattice, y= 1.1762612865891637
 ----------------------------------------------------------------------
 Symbolic Z-matrix:
 Charge =  0 Multiplicity = 1

                         Standard orientation:
 ---------------------------------------------------------------------
 Center     Atomic      Atomic             Coordinates (Angstroms)
 Number     Number       Type             X           Y           Z
 ---------------------------------------------------------------------
      1          1           0        1.811917    2.430322    0.000000
      2          1           0        1.811917    1.155760    0.000000
      3          1           0        0.905958    1.533802    0.000000
      4          1           0        0.905958    0.259239    0.000000
      5          1           0        0.000000    0.637281    0.000000
      6          1           0       -0.000000   -0.637281   -0.000000
      7          1           0       -0.905958   -0.259239    0.000000
      8          1           0       -0.905958   -1.533802   -0.000000
      9          1           0       -1.811917   -1.155760   -0.000000
     10          1           0       -1.811917   -2.430322   -0.000000
 ---------------------------------------------------------------------

 SCF Done:  E(RHF) =  -4.80293343296     A.U. after   10 cycles
 E2 =    -0.1247203650D+00 EUMP2 =    -0.49276537979246D+01

 The electronic state is 1-AG.
 Alpha  occ. eigenvalues --   -0.79942  -0.72814  -0.55292  -0.33458  -0.22624
 Alpha virt. eigenvalues --    0.02884   0.14190   0.21554   0.40228   0.61396

 Mulliken charges:
               1
     1  H    0.000753
     2  H    0.095847
     3  H    0.111235
     4  H   -0.105623
     5  H   -0.102212
     6  H   -0.102212
     7  H   -0.105623
     8  H    0.111235
     9  H    0.095847
    10  H    0.000753
 Sum of Mulliken charges =  -0.00000

 Dipole moment (field-independent basis, Debye):
    X=             -0.0000    Y=             -0.0000    Z=             -0.0000  Tot=              0.0000
 Quadrupole moment (field-independent basis, Debye-Ang):
   XX=            -11.7587   YY=            -11.4810   ZZ=            -13.1522
   XY=              3.1562   XZ=              0.0000   YZ=             -0.0000

 Normal termination of Gaussian 09 at Thu Feb  9 15:43:20 2017.
