 Gaussian 09, Revision E.01,
 Gaussian 09:  ES64L-G09RevE.01 30-Nov-2015

 ----------------------------------------------------------------------
 #rhf/gen scf(symm,tight,novaracc,noincfock,fulldiag) stable(crhf) geom
 =nocrowd test
 ----------------------------------------------------------------------

 hf stability analysis of h10 triangular lattice, y= 0.9890365543110610
 8
 ----------------------------------------------------------------------
 Symbolic Z-matrix:
 Charge =  0 Multiplicity = 1

                         Standard orientation:
 ---------------------------------------------------------------------
 Center     Atomic      Atomic             Coordinates (Angstroms)
 Number     Number       Type             X           Y           Z
 ---------------------------------------------------------------------
      1          1           0        2.010870    1.684289    0.000000
      2          1           0        2.010870    0.535830    0.000000
      3          1           0        1.005435    1.129259    0.000000
      4          1           0        1.005435   -0.019199    0.000000
      5          1           0       -0.000000    0.574229    0.000000
      6          1           0       -0.000000   -0.574229   -0.000000
      7          1           0       -1.005435    0.019199   -0.000000
      8          1           0       -1.005435   -1.129259   -0.000000
      9          1           0       -2.010870   -0.535830   -0.000000
     10          1           0       -2.010870   -1.684289   -0.000000
 ---------------------------------------------------------------------

 SCF Done:  E(RHF) =  -4.86819689561     A.U. after   10 cycles
 E2 =    -0.1128709079D+00 EUMP2 =    -0.49810678035038D+01

 The electronic state is 1-AG.
 Alpha  occ. eigenvalues --   -0.84394  -0.74040  -0.55082  -0.34493  -0.30732
 Alpha virt. eigenvalues --   -0.00394   0.22706   0.23625   0.55701   0.60081

 Mulliken charges:
               1
     1  H   -0.093365
     2  H    0.145814
     3  H    0.106110
     4  H   -0.120363
     5  H   -0.038196
     6  H   -0.038196
     7  H   -0.120363
     8  H    0.106110
     9  H    0.145814
    10  H   -0.093365
 Sum of Mulliken charges =  -0.00000

 Dipole moment (field-independent basis, Debye):
    X=              0.0000    Y=             -0.0000    Z=             -0.0000  Tot=              0.0000
 Quadrupole moment (field-independent basis, Debye-Ang):
   XX=            -13.7374   YY=            -15.4908   ZZ=            -12.9764
   XY=             -1.1827   XZ=             -0.0000   YZ=             -0.0000

 Normal termination of Gaussian 09 at Thu Feb  9 15:35:39 2017.
