 Gaussian 09, Revision E.01,
 Gaussian 09:  ES64L-G09RevE.01 30-Nov-2015

 ----------------------------------------------------------------------
 #rhf/gen scf(symm,tight,novaracc,noincfock,fulldiag) stable(crhf) geom
 =nocrowd test
 ----------------------------------------------------------------------

 hf stability analysis of h10 triangular lattice, y= 0.9621591990663992
 4
 ----------------------------------------------------------------------
 Symbolic Z-matrix:
 Charge =  0 Multiplicity = 1

                         Standard orientation:
 ---------------------------------------------------------------------
 Center     Atomic      Atomic             Coordinates (Angstroms)
 Number     Number       Type             X           Y           Z
 ---------------------------------------------------------------------
      1          1           0        2.036618    1.564698    0.000000
      2          1           0        2.036618    0.430759    0.000000
      3          1           0        1.018309    1.065834    0.000000
      4          1           0        1.018309   -0.068105    0.000000
      5          1           0       -0.000000    0.566970    0.000000
      6          1           0       -0.000000   -0.566970   -0.000000
      7          1           0       -1.018309    0.068105    0.000000
      8          1           0       -1.018309   -1.065834   -0.000000
      9          1           0       -2.036618   -0.430759   -0.000000
     10          1           0       -2.036618   -1.564698   -0.000000
 ---------------------------------------------------------------------

 SCF Done:  E(RHF) =  -4.86765416791     A.U. after   10 cycles
 E2 =    -0.1125064508D+00 EUMP2 =    -0.49801606187475D+01

 The electronic state is 1-AG.
 Alpha  occ. eigenvalues --   -0.84856  -0.74056  -0.54981  -0.35753  -0.30421
 Alpha virt. eigenvalues --   -0.01035   0.23169   0.24521   0.54975   0.64732

 Mulliken charges:
               1
     1  H   -0.096905
     2  H    0.144118
     3  H    0.100307
     4  H   -0.117949
     5  H   -0.029571
     6  H   -0.029571
     7  H   -0.117949
     8  H    0.100307
     9  H    0.144118
    10  H   -0.096905
 Sum of Mulliken charges =   0.00000

 Dipole moment (field-independent basis, Debye):
    X=             -0.0000    Y=             -0.0000    Z=              0.0000  Tot=              0.0000
 Quadrupole moment (field-independent basis, Debye-Ang):
   XX=            -14.1274   YY=            -15.4127   ZZ=            -12.9470
   XY=             -1.5170   XZ=             -0.0000   YZ=             -0.0000

 Normal termination of Gaussian 09 at Thu Feb  9 15:34:20 2017.
