 Gaussian 09, Revision E.01,
 Gaussian 09:  ES64L-G09RevE.01 30-Nov-2015

 ----------------------------------------------------------------------
 #rhf/gen scf(symm,tight,novaracc,noincfock,fulldiag) stable(crhf) geom
 =nocrowd test
 ----------------------------------------------------------------------

 ----------------------------------------------------------------------
 hf stability analysis of h10 triangular lattice, y= 1.0520078515824418
 ----------------------------------------------------------------------
 Symbolic Z-matrix:
 Charge =  0 Multiplicity = 1

                         Standard orientation:
 ---------------------------------------------------------------------
 Center     Atomic      Atomic             Coordinates (Angstroms)
 Number     Number       Type             X           Y           Z
 ---------------------------------------------------------------------
      1          1           0        1.946309    1.951041    0.000000
      2          1           0        1.946309    0.764487    0.000000
      3          1           0        0.973155    1.272159    0.000000
      4          1           0        0.973155    0.085605    0.000000
      5          1           0       -0.000000    0.593277    0.000000
      6          1           0       -0.000000   -0.593277    0.000000
      7          1           0       -0.973155   -0.085605    0.000000
      8          1           0       -0.973155   -1.272159    0.000000
      9          1           0       -1.946309   -0.764487    0.000000
     10          1           0       -1.946309   -1.951041    0.000000
 ---------------------------------------------------------------------

 SCF Done:  E(RHF) =  -4.86031279835     A.U. after   10 cycles
 E2 =    -0.1151689572D+00 EUMP2 =    -0.49754817555623D+01

 The electronic state is 1-AG.
 Alpha  occ. eigenvalues --   -0.83104  -0.73836  -0.55261  -0.32319  -0.30265
 Alpha virt. eigenvalues --    0.01223   0.18714   0.24386   0.50458   0.57530

 Mulliken charges:
               1
     1  H   -0.072754
     2  H    0.139714
     3  H    0.112598
     4  H   -0.121212
     5  H   -0.058346
     6  H   -0.058346
     7  H   -0.121212
     8  H    0.112598
     9  H    0.139714
    10  H   -0.072754
 Sum of Mulliken charges =   0.00000

 Dipole moment (field-independent basis, Debye):
    X=              0.0000    Y=             -0.0000    Z=              0.0000  Tot=              0.0000
 Quadrupole moment (field-independent basis, Debye-Ang):
   XX=            -12.8986   YY=            -15.0834   ZZ=            -13.0431
   XY=             -0.0292   XZ=             -0.0000   YZ=             -0.0000

 Normal termination of Gaussian 09 at Thu Feb  9 15:38:35 2017.
