 Gaussian 09, Revision E.01,
 Gaussian 09:  ES64L-G09RevE.01 30-Nov-2015

 ----------------------------------------------------------------------
 #rhf/gen scf(symm,tight,novaracc,noincfock,fulldiag) stable(crhf) geom
 =nocrowd test
 ----------------------------------------------------------------------

 ----------------------------------------------------------------------
 hf stability analysis of h10 triangular lattice, y= 1.2426558648313226
 ----------------------------------------------------------------------
 Symbolic Z-matrix:
 Charge =  0 Multiplicity = 1

                         Standard orientation:
 ---------------------------------------------------------------------
 Center     Atomic      Atomic             Coordinates (Angstroms)
 Number     Number       Type             X           Y           Z
 ---------------------------------------------------------------------
      1          1           0        1.740749    2.665838    0.000000
      2          1           0        1.740749    1.339167    0.000000
      3          1           0        0.870375    1.664587    0.000000
      4          1           0        0.870375    0.337916    0.000000
      5          1           0        0.000000    0.663336    0.000000
      6          1           0       -0.000000   -0.663336   -0.000000
      7          1           0       -0.870375   -0.337916   -0.000000
      8          1           0       -0.870375   -1.664587   -0.000000
      9          1           0       -1.740749   -1.339167   -0.000000
     10          1           0       -1.740749   -2.665838   -0.000000
 ---------------------------------------------------------------------

 SCF Done:  E(RHF) =  -4.75164610639     A.U. after   11 cycles
 E2 =    -0.1321994840D+00 EUMP2 =    -0.48838455903471D+01

 The electronic state is 1-AG.
 Alpha  occ. eigenvalues --   -0.78080  -0.72002  -0.55136  -0.34288  -0.17953
 Alpha virt. eigenvalues --    0.01409   0.15126   0.17060   0.39951   0.63442

 Mulliken charges:
               1
     1  H    0.048762
     2  H    0.050885
     3  H    0.116241
     4  H   -0.076941
     5  H   -0.138947
     6  H   -0.138947
     7  H   -0.076941
     8  H    0.116241
     9  H    0.050885
    10  H    0.048762
 Sum of Mulliken charges =   0.00000

 Dipole moment (field-independent basis, Debye):
    X=             -0.0000    Y=              0.0000    Z=             -0.0000  Tot=              0.0000
 Quadrupole moment (field-independent basis, Debye-Ang):
   XX=            -11.5632   YY=             -8.0738   ZZ=            -13.1875
   XY=              4.9008   XZ=              0.0000   YZ=              0.0000

 Normal termination of Gaussian 09 at Thu Feb  9 15:45:25 2017.
