 Gaussian 09, Revision E.01,
 Gaussian 09:  ES64L-G09RevE.01 30-Nov-2015

 ----------------------------------------------------------------------
 #rhf/gen scf(symm,tight,novaracc,noincfock,fulldiag) stable(crhf) geom
 =nocrowd test
 ----------------------------------------------------------------------

 ----------------------------------------------------------------------
 hf stability analysis of h10 triangular lattice, y= 2.0463576738314897
 ----------------------------------------------------------------------
 Symbolic Z-matrix:
 Charge =  0 Multiplicity = 1

                         Standard orientation:
 ---------------------------------------------------------------------
 Center     Atomic      Atomic             Coordinates (Angstroms)
 Number     Number       Type             X           Y           Z
 ---------------------------------------------------------------------
      1          1           0        1.117967    5.010152   -0.000000
      2          1           0        1.117967    2.944437   -0.000000
      3          1           0        0.558984    3.021505   -0.000000
      4          1           0        0.558984    0.955789   -0.000000
      5          1           0        0.000000    1.032858   -0.000000
      6          1           0       -0.000000   -1.032858   -0.000000
      7          1           0       -0.558984   -0.955789   -0.000000
      8          1           0       -0.558984   -3.021505   -0.000000
      9          1           0       -1.117967   -2.944437   -0.000000
     10          1           0       -1.117967   -5.010152   -0.000000
 ---------------------------------------------------------------------

 SCF Done:  E(RHF) =  -4.76575214038     A.U. after    6 cycles
 E2 =    -0.8353092921D+00 EUMP2 =    -0.56010614324304D+01

 The electronic state is 1-AG.
 Alpha  occ. eigenvalues --   -0.73334  -0.70961  -0.67384  -0.63707  -0.20041
 Alpha virt. eigenvalues --   -0.14845   0.43757   0.50385   0.59953   0.69002

 Mulliken charges:
               1
     1  H   -0.002780
     2  H    0.001843
     3  H    0.000479
     4  H   -0.000211
     5  H    0.000669
     6  H    0.000669
     7  H   -0.000211
     8  H    0.000479
     9  H    0.001843
    10  H   -0.002780
 Sum of Mulliken charges =  -0.00000

 Dipole moment (field-independent basis, Debye):
    X=              0.0000    Y=             -0.0000    Z=              0.0000  Tot=              0.0000
 Quadrupole moment (field-independent basis, Debye-Ang):
   XX=            -12.4019   YY=            -16.6721   ZZ=            -13.3132
   XY=             -0.9188   XZ=              0.0000   YZ=              0.0000

 Normal termination of Gaussian 09 at Thu Feb  9 15:57:35 2017.
