 Gaussian 09, Revision E.01,
 Gaussian 09:  ES64L-G09RevE.01 30-Nov-2015

 ----------------------------------------------------------------------
 #rhf/gen scf(symm,tight,novaracc,noincfock,fulldiag) stable(crhf) geom
 =nocrowd test
 ----------------------------------------------------------------------

 ----------------------------------------------------------------------
 hf stability analysis of h10 triangular lattice, y= 1.5077541156608558
 ----------------------------------------------------------------------
 Symbolic Z-matrix:
 Charge =  0 Multiplicity = 1

                         Standard orientation:
 ---------------------------------------------------------------------
 Center     Atomic      Atomic             Coordinates (Angstroms)
 Number     Number       Type             X           Y           Z
 ---------------------------------------------------------------------
      1          1           0        1.484555    3.512019   -0.000000
      2          1           0        1.484555    1.956400   -0.000000
      3          1           0        0.742277    2.144914   -0.000000
      4          1           0        0.742277    0.589295   -0.000000
      5          1           0       -0.000000    0.777810   -0.000000
      6          1           0       -0.000000   -0.777810   -0.000000
      7          1           0       -0.742277   -0.589295   -0.000000
      8          1           0       -0.742277   -2.144914   -0.000000
      9          1           0       -1.484555   -1.956400   -0.000000
     10          1           0       -1.484555   -3.512019   -0.000000
 ---------------------------------------------------------------------

 SCF Done:  E(RHF) =  -4.88653473300     A.U. after    9 cycles
 E2 =    -0.4229786883D+00 EUMP2 =    -0.53095134213046D+01

 The electronic state is 1-AG.
 Alpha  occ. eigenvalues --   -0.77789  -0.71335  -0.61166  -0.48477  -0.14909
 Alpha virt. eigenvalues --   -0.06177   0.19368   0.30264   0.46316   0.61876

 Mulliken charges:
               1
     1  H   -0.112872
     2  H    0.030543
     3  H    0.048132
     4  H    0.013502
     5  H    0.020694
     6  H    0.020694
     7  H    0.013502
     8  H    0.048132
     9  H    0.030543
    10  H   -0.112872
 Sum of Mulliken charges =  -0.00000

 Dipole moment (field-independent basis, Debye):
    X=              0.0000    Y=              0.0000    Z=              0.0000  Tot=              0.0000
 Quadrupole moment (field-independent basis, Debye-Ang):
   XX=            -13.7314   YY=            -27.4267   ZZ=            -12.9109
   XY=             -6.6268   XZ=             -0.0000   YZ=             -0.0000

 Normal termination of Gaussian 09 at Thu Feb  9 15:51:28 2017.
