 Gaussian 09, Revision E.01,
 Gaussian 09:  ES64L-G09RevE.01 30-Nov-2015

 ----------------------------------------------------------------------
 #rhf/gen scf(symm,tight,novaracc,noincfock,fulldiag) stable(crhf) geom
 =nocrowd test
 ----------------------------------------------------------------------

 hf stability analysis of h10 triangular lattice, y= 0.7861616727003952
 8
 ----------------------------------------------------------------------
 Symbolic Z-matrix:
 Charge =  0 Multiplicity = 1

                         Standard orientation:
 ---------------------------------------------------------------------
 Center     Atomic      Atomic             Coordinates (Angstroms)
 Number     Number       Type             X           Y           Z
 ---------------------------------------------------------------------
      1          1           0        2.146650    0.684252   -0.000000
      2          1           0        2.146650   -0.391564   -0.000000
      3          1           0        1.073325    0.611080   -0.000000
      4          1           0        1.073325   -0.464736   -0.000000
      5          1           0       -0.000000    0.537908    0.000000
      6          1           0       -0.000000   -0.537908    0.000000
      7          1           0       -1.073325    0.464736   -0.000000
      8          1           0       -1.073325   -0.611080   -0.000000
      9          1           0       -2.146650    0.391564   -0.000000
     10          1           0       -2.146650   -0.684252   -0.000000
 ---------------------------------------------------------------------

 SCF Done:  E(RHF) =  -4.88455700612     A.U. after   10 cycles
 E2 =    -0.1051033619D+00 EUMP2 =    -0.49896603680388D+01

 The electronic state is 1-AG.
 Alpha  occ. eigenvalues --   -0.87716  -0.74499  -0.52660  -0.46752  -0.31099
 Alpha virt. eigenvalues --   -0.01435   0.15492   0.36506   0.51444   0.89633

 Mulliken charges:
               1
     1  H    0.061544
     2  H    0.019061
     3  H   -0.032746
     4  H   -0.034015
     5  H   -0.013844
     6  H   -0.013844
     7  H   -0.034015
     8  H   -0.032746
     9  H    0.019061
    10  H    0.061544
 Sum of Mulliken charges =  -0.00000

 Dipole moment (field-independent basis, Debye):
    X=             -0.0000    Y=              0.0000    Z=             -0.0000  Tot=              0.0000
 Quadrupole moment (field-independent basis, Debye-Ang):
   XX=            -10.0996   YY=            -17.3116   ZZ=            -12.9551
   XY=              1.0033   XZ=              0.0000   YZ=             -0.0000

 Normal termination of Gaussian 09 at Thu Feb  9 15:24:40 2017.
