 Gaussian 09, Revision E.01,
 Gaussian 09:  ES64L-G09RevE.01 30-Nov-2015

 ----------------------------------------------------------------------
 #rhf/gen scf(symm,tight,novaracc,noincfock,fulldiag) stable(crhf) geom
 =nocrowd test
 ----------------------------------------------------------------------

 hf stability analysis of h10 triangular lattice, y= 0.9929956017537452
 4
 ----------------------------------------------------------------------
 Symbolic Z-matrix:
 Charge =  0 Multiplicity = 1

                         Standard orientation:
 ---------------------------------------------------------------------
 Center     Atomic      Atomic             Coordinates (Angstroms)
 Number     Number       Type             X           Y           Z
 ---------------------------------------------------------------------
      1          1           0        2.006967    1.701603   -0.000000
      2          1           0        2.006967    0.550911   -0.000000
      3          1           0        1.003483    1.138475   -0.000000
      4          1           0        1.003483   -0.012218   -0.000000
      5          1           0       -0.000000    0.575346   -0.000000
      6          1           0       -0.000000   -0.575346   -0.000000
      7          1           0       -1.003483    0.012218   -0.000000
      8          1           0       -1.003483   -1.138475   -0.000000
      9          1           0       -2.006967   -0.550911   -0.000000
     10          1           0       -2.006967   -1.701603   -0.000000
 ---------------------------------------------------------------------

 SCF Done:  E(RHF) =  -4.86809357009     A.U. after   10 cycles
 E2 =    -0.1129564117D+00 EUMP2 =    -0.49810499818262D+01

 The electronic state is 1-AG.
 Alpha  occ. eigenvalues --   -0.84322  -0.74034  -0.55096  -0.34305  -0.30772
 Alpha virt. eigenvalues --   -0.00296   0.22442   0.23688   0.55811   0.59418

 Mulliken charges:
               1
     1  H   -0.092548
     2  H    0.145826
     3  H    0.106789
     4  H   -0.120603
     5  H   -0.039464
     6  H   -0.039464
     7  H   -0.120603
     8  H    0.106789
     9  H    0.145826
    10  H   -0.092548
 Sum of Mulliken charges =  -0.00000

 Dipole moment (field-independent basis, Debye):
    X=              0.0000    Y=             -0.0000    Z=             -0.0000  Tot=              0.0000
 Quadrupole moment (field-independent basis, Debye-Ang):
   XX=            -13.6811   YY=            -15.4906   ZZ=            -12.9807
   XY=             -1.1245   XZ=             -0.0000   YZ=             -0.0000

 Normal termination of Gaussian 09 at Thu Feb  9 15:35:51 2017.
