 Gaussian 09, Revision E.01,
 Gaussian 09:  ES64L-G09RevE.01 30-Nov-2015

 ----------------------------------------------------------------------
 #rhf/gen scf(symm,tight,novaracc,noincfock,fulldiag) stable(crhf) geom
 =nocrowd test
 ----------------------------------------------------------------------

 ----------------------------------------------------------------------
 hf stability analysis of h10 triangular lattice, y= 1.3614912904919696
 ----------------------------------------------------------------------
 Symbolic Z-matrix:
 Charge =  0 Multiplicity = 1

                         Standard orientation:
 ---------------------------------------------------------------------
 Center     Atomic      Atomic             Coordinates (Angstroms)
 Number     Number       Type             X           Y           Z
 ---------------------------------------------------------------------
      1          1           0        1.619493    3.060590    0.000000
      2          1           0        1.619493    1.634588    0.000000
      3          1           0        0.809747    1.886796    0.000000
      4          1           0        0.809747    0.460793    0.000000
      5          1           0        0.000000    0.713001    0.000000
      6          1           0       -0.000000   -0.713001   -0.000000
      7          1           0       -0.809747   -0.460793   -0.000000
      8          1           0       -0.809747   -1.886796   -0.000000
      9          1           0       -1.619493   -1.634588   -0.000000
     10          1           0       -1.619493   -3.060590   -0.000000
 ---------------------------------------------------------------------

 SCF Done:  E(RHF) =  -4.78899129022     A.U. after   11 cycles
 E2 =    -0.2631878903D+00 EUMP2 =    -0.50521791805503D+01

 The electronic state is 1-AG.
 Alpha  occ. eigenvalues --   -0.81751  -0.73122  -0.60054  -0.43561  -0.11871
 Alpha virt. eigenvalues --    0.00192   0.10444   0.22945   0.40870   0.57295

 Mulliken charges:
               1
     1  H   -0.214067
     2  H    0.047747
     3  H    0.095967
     4  H    0.031668
     5  H    0.038684
     6  H    0.038684
     7  H    0.031668
     8  H    0.095967
     9  H    0.047747
    10  H   -0.214067
 Sum of Mulliken charges =   0.00000

 Dipole moment (field-independent basis, Debye):
    X=             -0.0000    Y=              0.0000    Z=              0.0000  Tot=              0.0000
 Quadrupole moment (field-independent basis, Debye-Ang):
   XX=            -16.1887   YY=            -31.7569   ZZ=            -12.8145
   XY=            -10.7161   XZ=             -0.0000   YZ=             -0.0000

 Normal termination of Gaussian 09 at Thu Feb  9 15:48:32 2017.
