 Gaussian 09, Revision E.01,
 Gaussian 09:  ES64L-G09RevE.01 30-Nov-2015

 ----------------------------------------------------------------------
 #rhf/gen scf(symm,tight,novaracc,noincfock,fulldiag) stable(crhf) geom
 =nocrowd test
 ----------------------------------------------------------------------

 ----------------------------------------------------------------------
 hf stability analysis of h10 triangular lattice, y= 1.4260216511106174
 ----------------------------------------------------------------------
 Symbolic Z-matrix:
 Charge =  0 Multiplicity = 1

                         Standard orientation:
 ---------------------------------------------------------------------
 Center     Atomic      Atomic             Coordinates (Angstroms)
 Number     Number       Type             X           Y           Z
 ---------------------------------------------------------------------
      1          1           0        1.557899    3.263645    0.000000
      2          1           0        1.557899    1.781263    0.000000
      3          1           0        0.778950    2.002418    0.000000
      4          1           0        0.778950    0.520036    0.000000
      5          1           0        0.000000    0.741191    0.000000
      6          1           0       -0.000000   -0.741191   -0.000000
      7          1           0       -0.778950   -0.520036   -0.000000
      8          1           0       -0.778950   -2.002418   -0.000000
      9          1           0       -1.557899   -1.781263   -0.000000
     10          1           0       -1.557899   -3.263645   -0.000000
 ---------------------------------------------------------------------

 SCF Done:  E(RHF) =  -4.83947788654     A.U. after    9 cycles
 E2 =    -0.3324840032D+00 EUMP2 =    -0.51719618897115D+01

 The electronic state is 1-AG.
 Alpha  occ. eigenvalues --   -0.79863  -0.72242  -0.60528  -0.45781  -0.13202
 Alpha virt. eigenvalues --   -0.02840   0.14346   0.26236   0.43340   0.59486

 Mulliken charges:
               1
     1  H   -0.165879
     2  H    0.040779
     3  H    0.070930
     4  H    0.023243
     5  H    0.030927
     6  H    0.030927
     7  H    0.023243
     8  H    0.070930
     9  H    0.040779
    10  H   -0.165879
 Sum of Mulliken charges =   0.00000

 Dipole moment (field-independent basis, Debye):
    X=             -0.0000    Y=              0.0000    Z=              0.0000  Tot=              0.0000
 Quadrupole moment (field-independent basis, Debye-Ang):
   XX=            -14.8989   YY=            -30.1837   ZZ=            -12.8539
   XY=             -8.8657   XZ=             -0.0000   YZ=             -0.0000

 Normal termination of Gaussian 09 at Thu Feb  9 15:49:56 2017.
