 Gaussian 09, Revision E.01,
 Gaussian 09:  ES64L-G09RevE.01 30-Nov-2015

 ----------------------------------------------------------------------
 #rhf/gen scf(symm,tight,novaracc,noincfock,fulldiag) stable(crhf) geom
 =nocrowd test
 ----------------------------------------------------------------------

 ----------------------------------------------------------------------
 hf stability analysis of h10 triangular lattice, y= 1.0290458576996018
 ----------------------------------------------------------------------
 Symbolic Z-matrix:
 Charge =  0 Multiplicity = 1

                         Standard orientation:
 ---------------------------------------------------------------------
 Center     Atomic      Atomic             Coordinates (Angstroms)
 Number     Number       Type             X           Y           Z
 ---------------------------------------------------------------------
      1          1           0        1.970383    1.855854   -0.000000
      2          1           0        1.970383    0.683797   -0.000000
      3          1           0        0.985192    1.220941   -0.000000
      4          1           0        0.985192    0.048884   -0.000000
      5          1           0        0.000000    0.586028   -0.000000
      6          1           0       -0.000000   -0.586028   -0.000000
      7          1           0       -0.985192   -0.048884   -0.000000
      8          1           0       -0.985192   -1.220941   -0.000000
      9          1           0       -1.970383   -0.683797   -0.000000
     10          1           0       -1.970383   -1.855854   -0.000000
 ---------------------------------------------------------------------

 SCF Done:  E(RHF) =  -4.86478027241     A.U. after   10 cycles
 E2 =    -0.1141041818D+00 EUMP2 =    -0.49788844542136D+01

 The electronic state is 1-AG.
 Alpha  occ. eigenvalues --   -0.83606  -0.73937  -0.55207  -0.32735  -0.30875
 Alpha virt. eigenvalues --    0.00630   0.20105   0.24186   0.53717   0.56846

 Mulliken charges:
               1
     1  H   -0.082017
     2  H    0.143407
     3  H    0.111194
     4  H   -0.121591
     5  H   -0.050991
     6  H   -0.050991
     7  H   -0.121591
     8  H    0.111194
     9  H    0.143407
    10  H   -0.082017
 Sum of Mulliken charges =  -0.00000

 Dipole moment (field-independent basis, Debye):
    X=              0.0000    Y=              0.0000    Z=             -0.0000  Tot=              0.0000
 Quadrupole moment (field-independent basis, Debye-Ang):
   XX=            -13.1885   YY=            -15.3352   ZZ=            -13.0194
   XY=             -0.5020   XZ=             -0.0000   YZ=             -0.0000

 Normal termination of Gaussian 09 at Thu Feb  9 15:37:34 2017.
