 Gaussian 09, Revision E.01,
 Gaussian 09:  ES64L-G09RevE.01 30-Nov-2015

 ----------------------------------------------------------------------
 #t rhf/gen scf(tight,novaracc,noincfock) geom=nocrowd stable(crhf) tes
 t
 ----------------------------------------------------------------------

 scf stability calculation for a rhombic configuration of 4 H atoms (ma
 de up of 2 iscosceles triangles)
 ----------------------------------------------------------------------
 Symbolic Z-matrix:
 Charge =  0 Multiplicity = 1

                         Standard orientation:
 ---------------------------------------------------------------------
 Center     Atomic      Atomic             Coordinates (Angstroms)
 Number     Number       Type             X           Y           Z
 ---------------------------------------------------------------------
      1          1           0        0.000000    0.000000    3.475000
      2          1           0        0.000000    0.166143    0.000000
      3          1           0       -0.000000   -0.166143    0.000000
      4          1           0        0.000000    0.000000   -3.475000
 ---------------------------------------------------------------------

 SCF Done:  E(RHF) =  -1.30051190496     A.U. after    4 cycles
 E2 =    -0.4973671121D+00 EUMP2 =    -0.17978790170669D+01

 The electronic state is 1-AG.
 Alpha  occ. eigenvalues --   -0.77868  -0.22567
 Alpha virt. eigenvalues --   -0.14911   0.82048

 Mulliken charges:
               1
     1  H    0.000307
     2  H   -0.000307
     3  H   -0.000307
     4  H    0.000307
 Sum of Mulliken charges =  -0.00000

 Dipole moment (field-independent basis, Debye):
    X=              0.0000    Y=             -0.0000    Z=             -0.0000  Tot=              0.0000

 Test job not archived.
 1\1\GINC-SULU\Stability\RHF\Gen\H4\LCJ1\06-Jan-2017\0\\#t rhf/gen scf(
 tight,novaracc,noincfock) geom=nocrowd stable(crhf) test\\scf stabilit
 y calculation for a rhombic configuration of 4 H atoms (made up of 2 i
 scosceles triangles)\\0,1\H,0,0.,0.,3.475\H,0,0.166143,0.,0.\H,0,-0.16
 6143,0.,0.\H,0,0.,0.,-3.475\\Version=ES64L-G09RevE.01\State=1-AG\HF=-1
 .3005119\MP2=-1.797879\RMSD=7.304e-13\Dipole=0.,0.,0.\Quadrupole=0.048
 4158,-0.0279058,-0.02051,0.,0.,0.\PG=D02H [C2'(H1.H1),C2"(H1.H1)]\\@

 Normal termination of Gaussian 09 at Fri Jan  6 12:27:17 2017.
