 Gaussian 09, Revision E.01,
 Gaussian 09:  ES64L-G09RevE.01 30-Nov-2015

 ----------------------------------------------
 # opt rhf/3-21g geom=connectivity scf=novaracc
 ----------------------------------------------

 -------------------
 Title Card Required
 -------------------
 Symbolic Z-matrix:
 Charge =  0 Multiplicity = 1

 SCF Done:  E(RHF) =  -1710.77890846     A.U. after   14 cycles
 SCF Done:  E(RHF) =  -1710.78646854     A.U. after   12 cycles
 SCF Done:  E(RHF) =  -1710.78651948     A.U. after    9 cycles
 Optimization completed.
    -- Stationary point found.

                         Standard orientation:
 ---------------------------------------------------------------------
 Center     Atomic      Atomic             Coordinates (Angstroms)
 Number     Number       Type             X           Y           Z
 ---------------------------------------------------------------------
      1          6           0       -0.000000   -0.000000    1.931203
      2          6           0        0.000000    1.931203   -0.000000
      3          6           0        1.931203   -0.000000    0.000000
      4          6           0        0.000000   -0.000000   -1.931203
      5          6           0       -1.931203   -0.000000   -0.000000
      6          8           0       -0.000000   -0.000000    3.065764
      7          8           0        0.000000    3.065764   -0.000000
      8          8           0        3.065764   -0.000000    0.000000
      9          8           0        0.000000   -0.000000   -3.065764
     10          8           0       -3.065764   -0.000000   -0.000000
     11         24           0        0.000000    0.000000    0.000000
     12          6           0       -0.000000   -1.931203    0.000000
     13          8           0       -0.000000   -3.065764    0.000000
 ---------------------------------------------------------------------

 The electronic state is 1-A1G.
 Alpha  occ. eigenvalues -- -219.26943 -26.40211 -22.29765 -22.29765 -22.29765
 Alpha  occ. eigenvalues --  -20.58424 -20.58424 -20.58414 -20.58378 -20.58378
 Alpha  occ. eigenvalues --  -20.58378 -11.34702 -11.34651 -11.34651 -11.34651
 Alpha  occ. eigenvalues --  -11.34573 -11.34573  -3.50431  -2.24416  -2.24416
 Alpha  occ. eigenvalues --   -2.24416  -1.55356  -1.55236  -1.55236  -1.55215
 Alpha  occ. eigenvalues --   -1.55215  -1.55215  -0.85420  -0.80186  -0.80186
 Alpha  occ. eigenvalues --   -0.80186  -0.79544  -0.79544  -0.72238  -0.67203
 Alpha  occ. eigenvalues --   -0.67203  -0.67203  -0.67166  -0.67166  -0.67166
 Alpha  occ. eigenvalues --   -0.64827  -0.64827  -0.64827  -0.64077  -0.64077
 Alpha  occ. eigenvalues --   -0.64077  -0.62039  -0.62039  -0.60061  -0.60061
 Alpha  occ. eigenvalues --   -0.60061  -0.32558  -0.32558  -0.32558
 Alpha virt. eigenvalues --    0.08244   0.08244   0.08244   0.09195   0.11200
 Alpha virt. eigenvalues --    0.11200   0.11200   0.12971   0.12971   0.12971
 Alpha virt. eigenvalues --    0.14849   0.14849   0.14849   0.21241   0.21241

 Mulliken charges:
               1
     1  C    0.157045
     2  C    0.157045
     3  C    0.157045
     4  C    0.157045
     5  C    0.157045
     6  O   -0.484784
     7  O   -0.484784
     8  O   -0.484784
     9  O   -0.484784
    10  O   -0.484784
    11  Cr   1.966433
    12  C    0.157045
    13  O   -0.484784
 Sum of Mulliken charges =  -0.00000

 Dipole moment (field-independent basis, Debye):
    X=             -0.0000    Y=              0.0000    Z=             -0.0000  Tot=              0.0000
 Quadrupole moment (field-independent basis, Debye-Ang):
   XX=            -89.5616   YY=            -89.5616   ZZ=            -89.5616
   XY=              0.0000   XZ=             -0.0000   YZ=              0.0000

 Normal termination of Gaussian 09 at Tue Nov 29 15:46:26 2016.
