 Gaussian 09, Revision E.01,
 Gaussian 09:  ES64L-G09RevE.01 30-Nov-2015

 ----------------------------------------------------------------------
 #rhf/gen scf(symm,tight,novaracc,noincfock,fulldiag) stable(crhf) gues
 s=read geom=nocrowd test
 ----------------------------------------------------------------------

 hf stability analysis of h12 triangular lattice, y= 2.0268354180156947
  alpha= 82.000000000000000
 ----------------------------------------------------------------------
 Symbolic Z-matrix:
 Charge =  0 Multiplicity = 1

                         Standard orientation:
 ---------------------------------------------------------------------
 Center     Atomic      Atomic             Coordinates (Angstroms)
 Number     Number       Type             X           Y           Z
 ---------------------------------------------------------------------
      1          1           0        1.692486    6.925777    0.000000
      2          1           0        1.692486    4.879022    0.000000
      3          1           0        1.128324    4.958310    0.000000
      4          1           0        1.128324    2.911556    0.000000
      5          1           0        0.564162    2.990844    0.000000
      6          1           0        0.564162    0.944089    0.000000
      7          1           0       -0.000000    1.023377    0.000000
      8          1           0       -0.000000   -1.023377    0.000000
      9          1           0       -0.564162   -0.944089    0.000000
     10          1           0       -0.564162   -2.990844    0.000000
     11          1           0       -1.128324   -2.911556    0.000000
     12          1           0       -1.128324   -4.958310    0.000000
     13          1           0       -1.692486   -4.879022    0.000000
     14          1           0       -1.692486   -6.925777    0.000000
 ---------------------------------------------------------------------

 SCF Done:  E(RHF) =  -6.81122681988     A.U. after    5 cycles
 E2 =    -0.1227176763D+01 EUMP2 =    -0.80384035827875D+01

 The electronic state is 1-AG.
 Alpha  occ. eigenvalues --   -0.73541  -0.72359  -0.70246  -0.67562  -0.64718
 Alpha  occ. eigenvalues --   -0.62236  -0.19207
 Alpha virt. eigenvalues --   -0.15487   0.42129   0.45627   0.51350   0.58406
 Alpha virt. eigenvalues --    0.65483   0.70966

 Mulliken charges:
               1
     1  H   -0.002845
     2  H    0.001840
     3  H    0.000636
     4  H   -0.000383
     5  H    0.000728
     6  H   -0.000061
     7  H    0.000086
     8  H    0.000086
     9  H   -0.000061
    10  H    0.000728
    11  H   -0.000383
    12  H    0.000636
    13  H    0.001840
    14  H   -0.002845
 Sum of Mulliken charges =  -0.00000

 Dipole moment (field-independent basis, Debye):
    X=             -0.0000    Y=             -0.0000    Z=             -0.0000  Tot=              0.0000
 Quadrupole moment (field-independent basis, Debye-Ang):
   XX=            -17.2443   YY=            -23.7822   ZZ=            -18.5922
   XY=             -1.5058   XZ=              0.0000   YZ=             -0.0000

 Normal termination of Gaussian 09 at Wed Feb 15 13:16:12 2017.
