 Gaussian 09, Revision E.01,
 Gaussian 09:  ES64L-G09RevE.01 30-Nov-2015

 ----------------------------------------------------------------------
 #rhf/gen scf(symm,tight,novaracc,noincfock,fulldiag) stable(crhf) gues
 s=read geom=nocrowd test
 ----------------------------------------------------------------------

 hf stability analysis of h12 triangular lattice, y= 0.4068814698559844
 5 alpha= 16.000000000000000
 ----------------------------------------------------------------------
 Symbolic Z-matrix:
 Charge =  0 Multiplicity = 1

                         Standard orientation:
 ---------------------------------------------------------------------
 Center     Atomic      Atomic             Coordinates (Angstroms)
 Number     Number       Type             X           Y           Z
 ---------------------------------------------------------------------
      1          1           0        2.346717   -3.017459   -0.000000
      2          1           0        2.346717   -4.493607   -0.000000
      3          1           0        1.564478   -1.765615   -0.000000
      4          1           0        1.564478   -3.241762   -0.000000
      5          1           0        0.782239   -0.513770    0.000000
      6          1           0        0.782239   -1.989918   -0.000000
      7          1           0        0.000000    0.738074    0.000000
      8          1           0       -0.000000   -0.738074    0.000000
      9          1           0       -0.782239    1.989918   -0.000000
     10          1           0       -0.782239    0.513770    0.000000
     11          1           0       -1.564478    3.241762   -0.000000
     12          1           0       -1.564478    1.765615    0.000000
     13          1           0       -2.346717    4.493607   -0.000000
     14          1           0       -2.346717    3.017459    0.000000
 ---------------------------------------------------------------------

 SCF Done:  E(RHF) =  -6.82463313175     A.U. after    9 cycles
 E2 =    -0.7182193594D+00 EUMP2 =    -0.75428524911465D+01

 The electronic state is 1-AG.
 Alpha  occ. eigenvalues --   -0.77407  -0.74635  -0.68405  -0.60078  -0.49798
 Alpha  occ. eigenvalues --   -0.38096  -0.10443
 Alpha virt. eigenvalues --   -0.05354   0.15484   0.20808   0.30820   0.43375
 Alpha virt. eigenvalues --    0.56460   0.67146

 Mulliken charges:
               1
     1  H    0.016819
     2  H   -0.117546
     3  H    0.011993
     4  H    0.075278
     5  H   -0.006512
     6  H    0.009561
     7  H    0.010408
     8  H    0.010408
     9  H    0.009561
    10  H   -0.006512
    11  H    0.075278
    12  H    0.011993
    13  H   -0.117546
    14  H    0.016819
 Sum of Mulliken charges =   0.00000

 Dipole moment (field-independent basis, Debye):
    X=              0.0000    Y=             -0.0000    Z=              0.0000  Tot=              0.0000
 Quadrupole moment (field-independent basis, Debye-Ang):
   XX=            -20.6755   YY=            -38.0121   ZZ=            -17.6893
   XY=             11.6072   XZ=              0.0000   YZ=             -0.0000

 Normal termination of Gaussian 09 at Wed Feb 15 12:45:51 2017.
