 Gaussian 09, Revision E.01,
 Gaussian 09:  ES64L-G09RevE.01 30-Nov-2015

 ----------------------------------------------------------------------
 #rhf/gen scf(symm,tight,novaracc,noincfock,fulldiag) stable(crhf) gues
 s=read geom=nocrowd test
 ----------------------------------------------------------------------

 hf stability analysis of h12 triangular lattice, y= 0.8294933944434413
 9 alpha= 50.000000000000000
 ----------------------------------------------------------------------
 Symbolic Z-matrix:
 Charge =  0 Multiplicity = 1

                         Standard orientation:
 ---------------------------------------------------------------------
 Center     Atomic      Atomic             Coordinates (Angstroms)
 Number     Number       Type             X           Y           Z
 ---------------------------------------------------------------------
      1          1           0        3.199128    1.105506   -0.000000
      2          1           0        3.199128    0.022679   -0.000000
      3          1           0        2.132752    0.917475   -0.000000
      4          1           0        2.132752   -0.165352   -0.000000
      5          1           0        1.066376    0.729444    0.000000
      6          1           0        1.066376   -0.353382   -0.000000
      7          1           0        0.000000    0.541413    0.000000
      8          1           0       -0.000000   -0.541413    0.000000
      9          1           0       -1.066376    0.353382   -0.000000
     10          1           0       -1.066376   -0.729444   -0.000000
     11          1           0       -2.132752    0.165352   -0.000000
     12          1           0       -2.132752   -0.917475   -0.000000
     13          1           0       -3.199128   -0.022679   -0.000000
     14          1           0       -3.199128   -1.105506   -0.000000
 ---------------------------------------------------------------------

 SCF Done:  E(RHF) =  -6.71861627517     A.U. after   10 cycles
 E2 =    -0.1594709030D+00 EUMP2 =    -0.68780871781564D+01

 The electronic state is 1-AG.
 Alpha  occ. eigenvalues --   -0.89688  -0.82399  -0.70254  -0.52660  -0.48888
 Alpha  occ. eigenvalues --   -0.40295  -0.25507
 Alpha virt. eigenvalues --   -0.10295   0.14375   0.16161   0.41600   0.45760
 Alpha virt. eigenvalues --    0.69501   0.93299

 Mulliken charges:
               1
     1  H    0.064848
     2  H    0.029865
     3  H   -0.009118
     4  H   -0.074670
     5  H    0.008046
     6  H   -0.030406
     7  H    0.011435
     8  H    0.011435
     9  H   -0.030406
    10  H    0.008046
    11  H   -0.074670
    12  H   -0.009118
    13  H    0.029865
    14  H    0.064848
 Sum of Mulliken charges =  -0.00000

 Dipole moment (field-independent basis, Debye):
    X=             -0.0000    Y=              0.0000    Z=              0.0000  Tot=              0.0000
 Quadrupole moment (field-independent basis, Debye-Ang):
   XX=            -12.8292   YY=            -24.0105   ZZ=            -17.9622
   XY=              3.5604   XZ=              0.0000   YZ=             -0.0000

 Normal termination of Gaussian 09 at Wed Feb 15 12:52:05 2017.
