 Gaussian 09, Revision E.01,
 Gaussian 09:  ES64L-G09RevE.01 30-Nov-2015

 ----------------------------------------------------------------------
 #rhf/gen scf(symm,tight,novaracc,noincfock,fulldiag) stable(crhf) gues
 s=read geom=nocrowd test
 ----------------------------------------------------------------------

 hf stability analysis of h12 triangular lattice, y= 0.9802409242172439
 6 alpha= 59.000000000000000
 ----------------------------------------------------------------------
 Symbolic Z-matrix:
 Charge =  0 Multiplicity = 1

                         Standard orientation:
 ---------------------------------------------------------------------
 Center     Atomic      Atomic             Coordinates (Angstroms)
 Number     Number       Type             X           Y           Z
 ---------------------------------------------------------------------
      1          1           0        3.029168    2.182428   -0.000000
      2          1           0        3.029168    1.038846   -0.000000
      3          1           0        2.019446    1.645549   -0.000000
      4          1           0        2.019446    0.501967   -0.000000
      5          1           0        1.009723    1.108670   -0.000000
      6          1           0        1.009723   -0.034912    0.000000
      7          1           0        0.000000    0.571791   -0.000000
      8          1           0       -0.000000   -0.571791   -0.000000
      9          1           0       -1.009723    0.034912    0.000000
     10          1           0       -1.009723   -1.108670    0.000000
     11          1           0       -2.019446   -0.501967    0.000000
     12          1           0       -2.019446   -1.645549    0.000000
     13          1           0       -3.029168   -1.038846    0.000000
     14          1           0       -3.029168   -2.182428    0.000000
 ---------------------------------------------------------------------

 SCF Done:  E(RHF) =  -6.61881826401     A.U. after   12 cycles
 E2 =    -0.1760015569D+00 EUMP2 =    -0.67948198208877D+01

 The electronic state is 1-AG.
 Alpha  occ. eigenvalues --   -0.87665  -0.82211  -0.70857  -0.55353  -0.39555
 Alpha  occ. eigenvalues --   -0.36904  -0.20013
 Alpha virt. eigenvalues --   -0.11550   0.10686   0.18252   0.35024   0.41385
 Alpha virt. eigenvalues --    0.65026   0.65227

 Mulliken charges:
               1
     1  H   -0.191012
     2  H    0.203317
     3  H    0.163381
     4  H   -0.208655
     5  H    0.096585
     6  H   -0.033181
     7  H   -0.030435
     8  H   -0.030435
     9  H   -0.033181
    10  H    0.096585
    11  H   -0.208655
    12  H    0.163381
    13  H    0.203317
    14  H   -0.191012
 Sum of Mulliken charges =  -0.00000

 Dipole moment (field-independent basis, Debye):
    X=              0.0000    Y=              0.0000    Z=             -0.0000  Tot=              0.0000
 Quadrupole moment (field-independent basis, Debye-Ang):
   XX=            -20.4512   YY=            -24.3676   ZZ=            -17.9405
   XY=             -1.6229   XZ=              0.0000   YZ=              0.0000

 Normal termination of Gaussian 09 at Wed Feb 15 12:53:46 2017.
