 Gaussian 09, Revision E.01,
 Gaussian 09:  ES64L-G09RevE.01 30-Nov-2015

 ----------------------------------------------------------------------
 #rhf/gen scf(symm,tight,novaracc,noincfock,fulldiag) stable(crhf) gues
 s=read geom=nocrowd test
 ----------------------------------------------------------------------

 hf stability analysis of h12 triangular lattice, y= 1.7234297938777567
  alpha= 79.000000000000000
 ----------------------------------------------------------------------
 Symbolic Z-matrix:
 Charge =  0 Multiplicity = 1

                         Standard orientation:
 ---------------------------------------------------------------------
 Center     Atomic      Atomic             Coordinates (Angstroms)
 Number     Number       Type             X           Y           Z
 ---------------------------------------------------------------------
      1          1           0        1.973075    5.761376    0.000000
      2          1           0        1.973075    4.005690    0.000000
      3          1           0        1.315384    4.133532    0.000000
      4          1           0        1.315384    2.377845    0.000000
      5          1           0        0.657692    2.505688    0.000000
      6          1           0        0.657692    0.750001    0.000000
      7          1           0        0.000000    0.877843    0.000000
      8          1           0       -0.000000   -0.877843    0.000000
      9          1           0       -0.657692   -0.750001    0.000000
     10          1           0       -0.657692   -2.505688    0.000000
     11          1           0       -1.315384   -2.377845    0.000000
     12          1           0       -1.315384   -4.133532    0.000000
     13          1           0       -1.973075   -4.005690    0.000000
     14          1           0       -1.973075   -5.761376    0.000000
 ---------------------------------------------------------------------

 SCF Done:  E(RHF) =  -7.01007039475     A.U. after    6 cycles
 E2 =    -0.1004690243D+01 EUMP2 =    -0.80147606378680D+01

 The electronic state is 1-AG.
 Alpha  occ. eigenvalues --   -0.74377  -0.72530  -0.68806  -0.63881  -0.58181
 Alpha  occ. eigenvalues --   -0.52563  -0.17098
 Alpha virt. eigenvalues --   -0.12717   0.30066   0.34413   0.42055   0.51700
 Alpha virt. eigenvalues --    0.61630   0.69654

 Mulliken charges:
               1
     1  H   -0.026609
     2  H    0.009087
     3  H    0.013765
     4  H   -0.000315
     5  H    0.003813
     6  H   -0.000304
     7  H    0.000562
     8  H    0.000562
     9  H   -0.000304
    10  H    0.003813
    11  H   -0.000315
    12  H    0.013765
    13  H    0.009087
    14  H   -0.026609
 Sum of Mulliken charges =  -0.00000

 Dipole moment (field-independent basis, Debye):
    X=             -0.0000    Y=              0.0000    Z=             -0.0000  Tot=              0.0000
 Quadrupole moment (field-independent basis, Debye-Ang):
   XX=            -17.3145   YY=            -29.1320   ZZ=            -18.2076
   XY=             -4.1544   XZ=              0.0000   YZ=              0.0000

 Normal termination of Gaussian 09 at Wed Feb 15 12:57:22 2017.
