 Gaussian 09, Revision E.01,
 Gaussian 09:  ES64L-G09RevE.01 30-Nov-2015

 ----------------------------------------------------------------------
 #rhf/gen scf(symm,tight,novaracc,noincfock,fulldiag) stable(crhf) gues
 s=read geom=nocrowd test
 ----------------------------------------------------------------------

 hf stability analysis of h12 triangular lattice, y= 0.9251794552834028
 4 alpha= 56.000000000000000
 ----------------------------------------------------------------------
 Symbolic Z-matrix:
 Charge =  0 Multiplicity = 1

                         Standard orientation:
 ---------------------------------------------------------------------
 Center     Atomic      Atomic             Coordinates (Angstroms)
 Number     Number       Type             X           Y           Z
 ---------------------------------------------------------------------
      1          1           0        3.104123    1.812131    0.000000
      2          1           0        3.104123    0.696163    0.000000
      3          1           0        2.069415    1.394082    0.000000
      4          1           0        2.069415    0.278114    0.000000
      5          1           0        1.034708    0.976033    0.000000
      6          1           0        1.034708   -0.139935    0.000000
      7          1           0        0.000000    0.557984    0.000000
      8          1           0       -0.000000   -0.557984    0.000000
      9          1           0       -1.034708    0.139935    0.000000
     10          1           0       -1.034708   -0.976033    0.000000
     11          1           0       -2.069415   -0.278114    0.000000
     12          1           0       -2.069415   -1.394082    0.000000
     13          1           0       -3.104123   -0.696163    0.000000
     14          1           0       -3.104123   -1.812131    0.000000
 ---------------------------------------------------------------------

 SCF Done:  E(RHF) =  -6.65192206062     A.U. after   11 cycles
 E2 =    -0.1654875385D+00 EUMP2 =    -0.68174095990813D+01

 The electronic state is 1-AG.
 Alpha  occ. eigenvalues --   -0.88699  -0.81927  -0.70272  -0.53884  -0.44983
 Alpha  occ. eigenvalues --   -0.37831  -0.22990
 Alpha virt. eigenvalues --   -0.11588   0.12825   0.16420   0.39751   0.42334
 Alpha virt. eigenvalues --    0.66730   0.75495

 Mulliken charges:
               1
     1  H   -0.010807
     2  H    0.081798
     3  H    0.064029
     4  H   -0.171723
     5  H    0.074385
     6  H   -0.031417
     7  H   -0.006265
     8  H   -0.006265
     9  H   -0.031417
    10  H    0.074385
    11  H   -0.171723
    12  H    0.064029
    13  H    0.081798
    14  H   -0.010807
 Sum of Mulliken charges =  -0.00000

 Dipole moment (field-independent basis, Debye):
    X=             -0.0000    Y=              0.0000    Z=              0.0000  Tot=              0.0000
 Quadrupole moment (field-independent basis, Debye-Ang):
   XX=            -16.4272   YY=            -22.0591   ZZ=            -17.9738
   XY=              4.3847   XZ=              0.0000   YZ=              0.0000

 Normal termination of Gaussian 09 at Wed Feb 15 12:53:13 2017.
