 Gaussian 09, Revision E.01,
 Gaussian 09:  ES64L-G09RevE.01 30-Nov-2015

 ----------------------------------------------------------------------
 #rhf/gen scf(symm,tight,novaracc,noincfock,fulldiag) stable(crhf) gues
 s=read geom=nocrowd test
 ----------------------------------------------------------------------

 hf stability analysis of h12 triangular lattice, y= 0.7732164846609803
 6 alpha= 46.000000000000000
 ----------------------------------------------------------------------
 Symbolic Z-matrix:
 Charge =  0 Multiplicity = 1

                         Standard orientation:
 ---------------------------------------------------------------------
 Center     Atomic      Atomic             Coordinates (Angstroms)
 Number     Number       Type             X           Y           Z
 ---------------------------------------------------------------------
      1          1           0        3.222728    0.649989    0.000000
      2          1           0        3.222728   -0.424909    0.000000
      3          1           0        2.148485    0.612475    0.000000
      4          1           0        2.148485   -0.462422    0.000000
      5          1           0        1.074243    0.574962    0.000000
      6          1           0        1.074243   -0.499935    0.000000
      7          1           0        0.000000    0.537449    0.000000
      8          1           0       -0.000000   -0.537449    0.000000
      9          1           0       -1.074243    0.499935   -0.000000
     10          1           0       -1.074243   -0.574962   -0.000000
     11          1           0       -2.148485    0.462422   -0.000000
     12          1           0       -2.148485   -0.612475   -0.000000
     13          1           0       -3.222728    0.424909   -0.000000
     14          1           0       -3.222728   -0.649989   -0.000000
 ---------------------------------------------------------------------

 SCF Done:  E(RHF) =  -6.73576548155     A.U. after    9 cycles
 E2 =    -0.1579733740D+00 EUMP2 =    -0.68937388555933D+01

 The electronic state is 1-AG.
 Alpha  occ. eigenvalues --   -0.89971  -0.82598  -0.70314  -0.52392  -0.49751
 Alpha  occ. eigenvalues --   -0.40961  -0.26123
 Alpha virt. eigenvalues --   -0.09831   0.13791   0.17139   0.41252   0.47082
 Alpha virt. eigenvalues --    0.70536   0.98600

 Mulliken charges:
               1
     1  H    0.053519
     2  H    0.044365
     3  H   -0.033898
     4  H   -0.045420
     5  H   -0.012106
     6  H   -0.019384
     7  H    0.012924
     8  H    0.012924
     9  H   -0.019384
    10  H   -0.012106
    11  H   -0.045420
    12  H   -0.033898
    13  H    0.044365
    14  H    0.053519
 Sum of Mulliken charges =  -0.00000

 Dipole moment (field-independent basis, Debye):
    X=             -0.0000    Y=              0.0000    Z=             -0.0000  Tot=              0.0000
 Quadrupole moment (field-independent basis, Debye-Ang):
   XX=            -12.2070   YY=            -24.8623   ZZ=            -17.9549
   XY=              0.7499   XZ=              0.0000   YZ=              0.0000

 Normal termination of Gaussian 09 at Wed Feb 15 12:51:21 2017.
