 Gaussian 09, Revision E.01,
 Gaussian 09:  ES64L-G09RevE.01 30-Nov-2015

 ----------------------------------------------------------------------
 #rhf/gen scf(symm,tight,novaracc,noincfock,fulldiag) stable(crhf) gues
 s=read geom=nocrowd test
 ----------------------------------------------------------------------

 hf stability analysis of h12 triangular lattice, y= 0.8149635215757493
 6 alpha= 49.000000000000000
 ----------------------------------------------------------------------
 Symbolic Z-matrix:
 Charge =  0 Multiplicity = 1

                         Standard orientation:
 ---------------------------------------------------------------------
 Center     Atomic      Atomic             Coordinates (Angstroms)
 Number     Number       Type             X           Y           Z
 ---------------------------------------------------------------------
      1          1           0        3.207985    0.990772   -0.000000
      2          1           0        3.207985   -0.089066    0.000000
      3          1           0        2.138657    0.840487   -0.000000
      4          1           0        2.138657   -0.239350    0.000000
      5          1           0        1.069328    0.690203   -0.000000
      6          1           0        1.069328   -0.389634    0.000000
      7          1           0        0.000000    0.539919   -0.000000
      8          1           0       -0.000000   -0.539919   -0.000000
      9          1           0       -1.069328    0.389634    0.000000
     10          1           0       -1.069328   -0.690203   -0.000000
     11          1           0       -2.138657    0.239350    0.000000
     12          1           0       -2.138657   -0.840487   -0.000000
     13          1           0       -3.207985    0.089066   -0.000000
     14          1           0       -3.207985   -0.990772   -0.000000
 ---------------------------------------------------------------------

 SCF Done:  E(RHF) =  -6.72507339572     A.U. after   10 cycles
 E2 =    -0.1589042992D+00 EUMP2 =    -0.68839776948725D+01

 The electronic state is 1-AG.
 Alpha  occ. eigenvalues --   -0.89793  -0.82471  -0.70275  -0.52562  -0.49211
 Alpha  occ. eigenvalues --   -0.40543  -0.25737
 Alpha virt. eigenvalues --   -0.10127   0.14160   0.16520   0.41476   0.46267
 Alpha virt. eigenvalues --    0.69867   0.95238

 Mulliken charges:
               1
     1  H    0.063704
     2  H    0.032272
     3  H   -0.016012
     4  H   -0.065981
     5  H    0.002033
     6  H   -0.028086
     7  H    0.012071
     8  H    0.012071
     9  H   -0.028086
    10  H    0.002033
    11  H   -0.065981
    12  H   -0.016012
    13  H    0.032272
    14  H    0.063704
 Sum of Mulliken charges =   0.00000

 Dipole moment (field-independent basis, Debye):
    X=             -0.0000    Y=              0.0000    Z=             -0.0000  Tot=              0.0000
 Quadrupole moment (field-independent basis, Debye-Ang):
   XX=            -12.5861   YY=            -24.3226   ZZ=            -17.9596
   XY=              2.9097   XZ=             -0.0000   YZ=              0.0000

 Normal termination of Gaussian 09 at Wed Feb 15 12:51:54 2017.
