 Gaussian 09, Revision E.01,
 Gaussian 09:  ES64L-G09RevE.01 30-Nov-2015

 ----------------------------------------------------------------------
 #rhf/gen scf(symm,tight,novaracc,noincfock,fulldiag) stable(crhf) gues
 s=read geom=nocrowd test
 ----------------------------------------------------------------------

 hf stability analysis of h12 triangular lattice, y= 1.9092530122354845
  alpha= 81.000000000000000
 ----------------------------------------------------------------------
 Symbolic Z-matrix:
 Charge =  0 Multiplicity = 1

                         Standard orientation:
 ---------------------------------------------------------------------
 Center     Atomic      Atomic             Coordinates (Angstroms)
 Number     Number       Type             X           Y           Z
 ---------------------------------------------------------------------
      1          1           0        1.792038    6.481851    0.000000
      2          1           0        1.792038    4.548799    0.000000
      3          1           0        1.194692    4.643410    0.000000
      4          1           0        1.194692    2.710358    0.000000
      5          1           0        0.597346    2.804968    0.000000
      6          1           0        0.597346    0.871916    0.000000
      7          1           0       -0.000000    0.966526    0.000000
      8          1           0       -0.000000   -0.966526    0.000000
      9          1           0       -0.597346   -0.871916    0.000000
     10          1           0       -0.597346   -2.804968    0.000000
     11          1           0       -1.194692   -2.710358    0.000000
     12          1           0       -1.194692   -4.643410    0.000000
     13          1           0       -1.792038   -4.548799    0.000000
     14          1           0       -1.792038   -6.481851    0.000000
 ---------------------------------------------------------------------

 SCF Done:  E(RHF) =  -6.92019504257     A.U. after    5 cycles
 E2 =    -0.1147435185D+01 EUMP2 =    -0.80676302275020D+01

 The electronic state is 1-AG.
 Alpha  occ. eigenvalues --   -0.73693  -0.72271  -0.69617  -0.66187  -0.62418
 Alpha  occ. eigenvalues --   -0.58996  -0.18668
 Alpha virt. eigenvalues --   -0.14718   0.37676   0.41509   0.47933   0.55936
 Alpha virt. eigenvalues --    0.64052   0.70441

 Mulliken charges:
               1
     1  H   -0.007922
     2  H    0.003650
     3  H    0.003373
     4  H   -0.000499
     5  H    0.001357
     6  H   -0.000118
     7  H    0.000159
     8  H    0.000159
     9  H   -0.000118
    10  H    0.001357
    11  H   -0.000499
    12  H    0.003373
    13  H    0.003650
    14  H   -0.007922
 Sum of Mulliken charges =   0.00000

 Dipole moment (field-independent basis, Debye):
    X=             -0.0000    Y=              0.0000    Z=             -0.0000  Tot=              0.0000
 Quadrupole moment (field-independent basis, Debye-Ang):
   XX=            -17.1522   YY=            -25.3646   ZZ=            -18.4607
   XY=             -2.2001   XZ=              0.0000   YZ=              0.0000

 Normal termination of Gaussian 09 at Wed Feb 15 12:57:41 2017.
