 Gaussian 09, Revision E.01,
 Gaussian 09:  ES64L-G09RevE.01 30-Nov-2015

 ----------------------------------------------------------------------
 #rhf/gen scf(symm,tight,novaracc,noincfock,fulldiag) stable(crhf) gues
 s=read geom=nocrowd test
 ----------------------------------------------------------------------

 hf stability analysis of h12 triangular lattice, y= 0.3933198989211816
 9 alpha= 15.000000000000000
 ----------------------------------------------------------------------
 Symbolic Z-matrix:
 Charge =  0 Multiplicity = 1

                         Standard orientation:
 ---------------------------------------------------------------------
 Center     Atomic      Atomic             Coordinates (Angstroms)
 Number     Number       Type             X           Y           Z
 ---------------------------------------------------------------------
      1          1           0        2.279507   -3.188386   -0.000000
      2          1           0        2.279507   -4.708058   -0.000000
      3          1           0        1.519671   -1.872312   -0.000000
      4          1           0        1.519671   -3.391984   -0.000000
      5          1           0        0.759836   -0.556238   -0.000000
      6          1           0        0.759836   -2.075910   -0.000000
      7          1           0        0.000000    0.759836    0.000000
      8          1           0       -0.000000   -0.759836    0.000000
      9          1           0       -0.759836    2.075910   -0.000000
     10          1           0       -0.759836    0.556238   -0.000000
     11          1           0       -1.519671    3.391984   -0.000000
     12          1           0       -1.519671    1.872312   -0.000000
     13          1           0       -2.279507    4.708058   -0.000000
     14          1           0       -2.279507    3.188386   -0.000000
 ---------------------------------------------------------------------

 SCF Done:  E(RHF) =  -6.89049762083     A.U. after    8 cycles
 E2 =    -0.7702075780D+00 EUMP2 =    -0.76607051988306D+01

 The electronic state is 1-AG.
 Alpha  occ. eigenvalues --   -0.76727  -0.74134  -0.68372  -0.60687  -0.51259
 Alpha  occ. eigenvalues --   -0.40748  -0.12019
 Alpha virt. eigenvalues --   -0.07000   0.18027   0.23153   0.32758   0.44848
 Alpha virt. eigenvalues --    0.57422   0.67748

 Mulliken charges:
               1
     1  H    0.019335
     2  H   -0.097406
     3  H    0.006316
     4  H    0.057518
     5  H   -0.002751
     6  H    0.011552
     7  H    0.005436
     8  H    0.005436
     9  H    0.011552
    10  H   -0.002751
    11  H    0.057518
    12  H    0.006316
    13  H   -0.097406
    14  H    0.019335
 Sum of Mulliken charges =  -0.00000

 Dipole moment (field-independent basis, Debye):
    X=             -0.0000    Y=             -0.0000    Z=              0.0000  Tot=              0.0000
 Quadrupole moment (field-independent basis, Debye-Ang):
   XX=            -19.6366   YY=            -36.8921   ZZ=            -17.7772
   XY=             10.0664   XZ=             -0.0000   YZ=              0.0000

 Normal termination of Gaussian 09 at Wed Feb 15 12:45:40 2017.
