 Gaussian 09, Revision E.01,
 Gaussian 09:  ES64L-G09RevE.01 30-Nov-2015

 ----------------------------------------------------------------------
 #rhf/gen scf(symm,tight,novaracc,noincfock,fulldiag) stable(crhf) gues
 s=read geom=nocrowd test
 ----------------------------------------------------------------------

 hf stability analysis of h12 triangular lattice, y= 0.7598357022583297
 5 alpha= 45.000000000000000
 ----------------------------------------------------------------------
 Symbolic Z-matrix:
 Charge =  0 Multiplicity = 1

                         Standard orientation:
 ---------------------------------------------------------------------
 Center     Atomic      Atomic             Coordinates (Angstroms)
 Number     Number       Type             X           Y           Z
 ---------------------------------------------------------------------
      1          1           0       -0.000000    3.223710    0.537285
      2          1           0        0.000000    3.223710   -0.537285
      3          1           0       -0.000000    2.149140    0.537285
      4          1           0        0.000000    2.149140   -0.537285
      5          1           0       -0.000000    1.074570    0.537285
      6          1           0        0.000000    1.074570   -0.537285
      7          1           0        0.000000    0.000000    0.537285
      8          1           0        0.000000   -0.000000   -0.537285
      9          1           0       -0.000000   -1.074570    0.537285
     10          1           0       -0.000000   -1.074570   -0.537285
     11          1           0       -0.000000   -2.149140    0.537285
     12          1           0       -0.000000   -2.149140   -0.537285
     13          1           0       -0.000000   -3.223710    0.537285
     14          1           0       -0.000000   -3.223710   -0.537285
 ---------------------------------------------------------------------

 SCF Done:  E(RHF) =  -6.73647435521     A.U. after    6 cycles
 E2 =    -0.1579119997D+00 EUMP2 =    -0.68943863549508D+01

 The electronic state is 1-AG.
 Alpha  occ. eigenvalues --   -0.89983  -0.82607  -0.70317  -0.52380  -0.49787
 Alpha  occ. eigenvalues --   -0.40989  -0.26149
 Alpha virt. eigenvalues --   -0.09810   0.13766   0.17181   0.41237   0.47135
 Alpha virt. eigenvalues --    0.70583   0.98830

 Mulliken charges:
               1
     1  H    0.049002
     2  H    0.049002
     3  H   -0.039576
     4  H   -0.039576
     5  H   -0.015912
     6  H   -0.015912
     7  H    0.012973
     8  H    0.012973
     9  H   -0.015912
    10  H   -0.015912
    11  H   -0.039576
    12  H   -0.039576
    13  H    0.049002
    14  H    0.049002
 Sum of Mulliken charges =  -0.00000

 Dipole moment (field-independent basis, Debye):
    X=             -0.0000    Y=             -0.0000    Z=              0.0000  Tot=              0.0000
 Quadrupole moment (field-independent basis, Debye-Ang):
   XX=            -17.9546   YY=            -12.1828   ZZ=            -24.8990
   XY=              0.0000   XZ=              0.0000   YZ=              0.0000

 Normal termination of Gaussian 09 at Wed Feb 15 12:51:10 2017.
