 Gaussian 09, Revision E.01,
 Gaussian 09:  ES64L-G09RevE.01 30-Nov-2015

 ----------------------------------------------------------------------
 #rhf/gen scf(symm,tight,novaracc,noincfock,fulldiag) stable(crhf) gues
 s=read geom=nocrowd test
 ----------------------------------------------------------------------

 hf stability analysis of h12 triangular lattice, y= 0.3503135618487248
 1 alpha= 12.000000000000000
 ----------------------------------------------------------------------
 Symbolic Z-matrix:
 Charge =  0 Multiplicity = 1

                         Standard orientation:
 ---------------------------------------------------------------------
 Center     Atomic      Atomic             Coordinates (Angstroms)
 Number     Number       Type             X           Y           Z
 ---------------------------------------------------------------------
      1          1           0        2.055950   -3.775282   -0.000000
      2          1           0        2.055950   -5.460197   -0.000000
      3          1           0        1.370633   -2.236036   -0.000000
      4          1           0        1.370633   -3.920951   -0.000000
      5          1           0        0.685317   -0.696789   -0.000000
      6          1           0        0.685317   -2.381704   -0.000000
      7          1           0        0.000000    0.842458    0.000000
      8          1           0       -0.000000   -0.842458    0.000000
      9          1           0       -0.685317    2.381704   -0.000000
     10          1           0       -0.685317    0.696789   -0.000000
     11          1           0       -1.370633    3.920951   -0.000000
     12          1           0       -1.370633    2.236036   -0.000000
     13          1           0       -2.055950    5.460197   -0.000000
     14          1           0       -2.055950    3.775282   -0.000000
 ---------------------------------------------------------------------

 SCF Done:  E(RHF) =  -7.00920663194     A.U. after    6 cycles
 E2 =    -0.9397545766D+00 EUMP2 =    -0.79489612085540D+01

 The electronic state is 1-AG.
 Alpha  occ. eigenvalues --   -0.74865  -0.72826  -0.68576  -0.62927  -0.56258
 Alpha  occ. eigenvalues --   -0.49440  -0.16063
 Alpha virt. eigenvalues --   -0.11484   0.26737   0.31291   0.39473   0.49825
 Alpha virt. eigenvalues --    0.60530   0.69261

 Mulliken charges:
               1
     1  H    0.012406
     2  H   -0.040566
     3  H    0.000223
     4  H    0.021673
     5  H   -0.000477
     6  H    0.005735
     7  H    0.001006
     8  H    0.001006
     9  H    0.005735
    10  H   -0.000477
    11  H    0.021673
    12  H    0.000223
    13  H   -0.040566
    14  H    0.012406
 Sum of Mulliken charges =   0.00000

 Dipole moment (field-independent basis, Debye):
    X=             -0.0000    Y=             -0.0000    Z=              0.0000  Tot=              0.0000
 Quadrupole moment (field-independent basis, Debye-Ang):
   XX=            -17.6183   YY=            -31.1951   ZZ=            -18.0897
   XY=              5.4199   XZ=              0.0000   YZ=              0.0000

 Normal termination of Gaussian 09 at Wed Feb 15 12:45:10 2017.
