 Gaussian 09, Revision E.01,
 Gaussian 09:  ES64L-G09RevE.01 30-Nov-2015

 ----------------------------------------------------------------------
 #rhf/gen scf(symm,tight,novaracc,noincfock,fulldiag) stable(crhf) gues
 s=read geom=nocrowd test
 ----------------------------------------------------------------------

 hf stability analysis of h12 triangular lattice, y= 0.5657123745340343
 3 alpha= 29.000000000000000
 ----------------------------------------------------------------------
 Symbolic Z-matrix:
 Charge =  0 Multiplicity = 1

                         Standard orientation:
 ---------------------------------------------------------------------
 Center     Atomic      Atomic             Coordinates (Angstroms)
 Number     Number       Type             X           Y           Z
 ---------------------------------------------------------------------
      1          1           0        2.968699   -1.271611    0.000000
      2          1           0        2.968699   -2.438487    0.000000
      3          1           0        1.979133   -0.653262    0.000000
      4          1           0        1.979133   -1.820137    0.000000
      5          1           0        0.989566   -0.034912    0.000000
      6          1           0        0.989566   -1.201787    0.000000
      7          1           0        0.000000    0.583438   -0.000000
      8          1           0       -0.000000   -0.583438   -0.000000
      9          1           0       -0.989566    1.201787    0.000000
     10          1           0       -0.989566    0.034912    0.000000
     11          1           0       -1.979133    1.820137    0.000000
     12          1           0       -1.979133    0.653262    0.000000
     13          1           0       -2.968699    2.438487    0.000000
     14          1           0       -2.968699    1.271611    0.000000
 ---------------------------------------------------------------------

 SCF Done:  E(RHF) =  -6.61629312519     A.U. after   13 cycles
 E2 =    -0.1858251046D+00 EUMP2 =    -0.68021182297744D+01

 The electronic state is 1-AG.
 Alpha  occ. eigenvalues --   -0.86555  -0.82213  -0.71079  -0.56170  -0.37830
 Alpha  occ. eigenvalues --   -0.34802  -0.17856
 Alpha virt. eigenvalues --   -0.09779   0.09642   0.19110   0.32535   0.39565
 Alpha virt. eigenvalues --    0.59157   0.64711

 Mulliken charges:
               1
     1  H    0.229447
     2  H   -0.270100
     3  H   -0.133134
     4  H    0.214152
     5  H   -0.107797
     6  H    0.055947
     7  H    0.011484
     8  H    0.011484
     9  H    0.055947
    10  H   -0.107797
    11  H    0.214152
    12  H   -0.133134
    13  H   -0.270100
    14  H    0.229447
 Sum of Mulliken charges =  -0.00000

 Dipole moment (field-independent basis, Debye):
    X=             -0.0000    Y=             -0.0000    Z=             -0.0000  Tot=              0.0000
 Quadrupole moment (field-independent basis, Debye-Ang):
   XX=            -22.1612   YY=            -26.3964   ZZ=            -17.9252
   XY=              5.4346   XZ=             -0.0000   YZ=              0.0000

 Normal termination of Gaussian 09 at Wed Feb 15 12:48:09 2017.
