 Gaussian 09, Revision E.01,
 Gaussian 09:  ES64L-G09RevE.01 30-Nov-2015

 ----------------------------------------------------------------------
 #rhf/gen scf(symm,tight,novaracc,noincfock,fulldiag) stable(crhf) gues
 s=read geom=nocrowd test
 ----------------------------------------------------------------------

 hf stability analysis of h12 triangular lattice, y= 0.6476646814092581
 5 alpha= 36.000000000000000
 ----------------------------------------------------------------------
 Symbolic Z-matrix:
 Charge =  0 Multiplicity = 1

                         Standard orientation:
 ---------------------------------------------------------------------
 Center     Atomic      Atomic             Coordinates (Angstroms)
 Number     Number       Type             X           Y           Z
 ---------------------------------------------------------------------
      1          1           0        3.143830   -0.470556   -0.000000
      2          1           0        3.143830   -1.572429   -0.000000
      3          1           0        2.095887   -0.130058   -0.000000
      4          1           0        2.095887   -1.231931   -0.000000
      5          1           0        1.047943    0.210439   -0.000000
      6          1           0        1.047943   -0.891434    0.000000
      7          1           0        0.000000    0.550936   -0.000000
      8          1           0       -0.000000   -0.550936   -0.000000
      9          1           0       -1.047943    0.891434    0.000000
     10          1           0       -1.047943   -0.210439   -0.000000
     11          1           0       -2.095887    1.231931   -0.000000
     12          1           0       -2.095887    0.130058   -0.000000
     13          1           0       -3.143830    1.572429   -0.000000
     14          1           0       -3.143830    0.470556   -0.000000
 ---------------------------------------------------------------------

 SCF Done:  E(RHF) =  -6.67856527831     A.U. after   11 cycles
 E2 =    -0.1630315968D+00 EUMP2 =    -0.68415968750835D+01

 The electronic state is 1-AG.
 Alpha  occ. eigenvalues --   -0.89084  -0.82035  -0.70193  -0.53306  -0.46777
 Alpha  occ. eigenvalues --   -0.38799  -0.24078
 Alpha virt. eigenvalues --   -0.11169   0.14107   0.15609   0.42186   0.42351
 Alpha virt. eigenvalues --    0.67704   0.82343

 Mulliken charges:
               1
     1  H    0.043339
     2  H    0.040650
     3  H   -0.128202
     4  H    0.030245
     5  H   -0.034887
     6  H    0.044578
     7  H    0.004277
     8  H    0.004277
     9  H    0.044578
    10  H   -0.034887
    11  H    0.030245
    12  H   -0.128202
    13  H    0.040650
    14  H    0.043339
 Sum of Mulliken charges =  -0.00000

 Dipole moment (field-independent basis, Debye):
    X=             -0.0000    Y=              0.0000    Z=              0.0000  Tot=              0.0000
 Quadrupole moment (field-independent basis, Debye-Ang):
   XX=            -14.6721   YY=            -22.4307   ZZ=            -17.9737
   XY=             -5.1444   XZ=              0.0000   YZ=             -0.0000

 Normal termination of Gaussian 09 at Wed Feb 15 12:49:25 2017.
