 Gaussian 09, Revision E.01,
 Gaussian 09:  ES64L-G09RevE.01 30-Nov-2015

 ----------------------------------------------------------------------
 #rhf/gen scf(symm,tight,novaracc,noincfock,fulldiag) stable(crhf) gues
 s=read geom=nocrowd test
 ----------------------------------------------------------------------

 hf stability analysis of h12 triangular lattice, y= 0.6716215332591580
 8 alpha= 38.000000000000000
 ----------------------------------------------------------------------
 Symbolic Z-matrix:
 Charge =  0 Multiplicity = 1

                         Standard orientation:
 ---------------------------------------------------------------------
 Center     Atomic      Atomic             Coordinates (Angstroms)
 Number     Number       Type             X           Y           Z
 ---------------------------------------------------------------------
      1          1           0        3.175470   -0.246286    0.000000
      2          1           0        3.175470   -1.337181    0.000000
      3          1           0        2.116980    0.017625    0.000000
      4          1           0        2.116980   -1.073269   -0.000000
      5          1           0        1.058490    0.281536    0.000000
      6          1           0        1.058490   -0.809358   -0.000000
      7          1           0        0.000000    0.545447    0.000000
      8          1           0       -0.000000   -0.545447    0.000000
      9          1           0       -1.058490    0.809358    0.000000
     10          1           0       -1.058490   -0.281536    0.000000
     11          1           0       -2.116980    1.073269    0.000000
     12          1           0       -2.116980   -0.017625    0.000000
     13          1           0       -3.175470    1.337181    0.000000
     14          1           0       -3.175470    0.246286    0.000000
 ---------------------------------------------------------------------

 SCF Done:  E(RHF) =  -6.70133880458     A.U. after   11 cycles
 E2 =    -0.1609999264D+00 EUMP2 =    -0.68623387310250D+01

 The electronic state is 1-AG.
 Alpha  occ. eigenvalues --   -0.89419  -0.82222  -0.70211  -0.52925  -0.48013
 Alpha  occ. eigenvalues --   -0.39641  -0.24896
 Alpha virt. eigenvalues --   -0.10706   0.14924   0.15242   0.41893   0.44346
 Alpha virt. eigenvalues --    0.68643   0.88384

 Mulliken charges:
               1
     1  H    0.030258
     2  H    0.060561
     3  H   -0.096783
     4  H    0.007498
     5  H   -0.033882
     6  H    0.023194
     7  H    0.009154
     8  H    0.009154
     9  H    0.023194
    10  H   -0.033882
    11  H    0.007498
    12  H   -0.096783
    13  H    0.060561
    14  H    0.030258
 Sum of Mulliken charges =   0.00000

 Dipole moment (field-independent basis, Debye):
    X=             -0.0000    Y=             -0.0000    Z=             -0.0000  Tot=              0.0000
 Quadrupole moment (field-independent basis, Debye-Ang):
   XX=            -13.5433   YY=            -23.2394   ZZ=            -17.9682
   XY=             -4.6389   XZ=             -0.0000   YZ=             -0.0000

 Normal termination of Gaussian 09 at Wed Feb 15 12:49:48 2017.
