 Gaussian 09, Revision E.01,
 Gaussian 09:  ES64L-G09RevE.01 30-Nov-2015

 ----------------------------------------------------------------------
 #rhf/gen scf(symm,tight,novaracc,noincfock,fulldiag) stable(crhf) gues
 s=read geom=nocrowd test
 ----------------------------------------------------------------------

 hf stability analysis of h12 triangular lattice, y= 0.9080427759821990
 7 alpha= 55.000000000000000
 ----------------------------------------------------------------------
 Symbolic Z-matrix:
 Charge =  0 Multiplicity = 1

                         Standard orientation:
 ---------------------------------------------------------------------
 Center     Atomic      Atomic             Coordinates (Angstroms)
 Number     Number       Type             X           Y           Z
 ---------------------------------------------------------------------
      1          1           0        3.124992    1.691662   -0.000000
      2          1           0        3.124992    0.583146   -0.000000
      3          1           0        2.083328    1.312527   -0.000000
      4          1           0        2.083328    0.204012   -0.000000
      5          1           0        1.041664    0.933392   -0.000000
      6          1           0        1.041664   -0.175123   -0.000000
      7          1           0        0.000000    0.554258    0.000000
      8          1           0       -0.000000   -0.554258    0.000000
      9          1           0       -1.041664    0.175123   -0.000000
     10          1           0       -1.041664   -0.933392   -0.000000
     11          1           0       -2.083328   -0.204012   -0.000000
     12          1           0       -2.083328   -1.312527   -0.000000
     13          1           0       -3.124992   -0.583146   -0.000000
     14          1           0       -3.124992   -1.691662   -0.000000
 ---------------------------------------------------------------------

 SCF Done:  E(RHF) =  -6.66552368002     A.U. after   11 cycles
 E2 =    -0.1642050807D+00 EUMP2 =    -0.68297287607125D+01

 The electronic state is 1-AG.
 Alpha  occ. eigenvalues --   -0.88899  -0.81963  -0.70213  -0.53563  -0.45973
 Alpha  occ. eigenvalues --   -0.38323  -0.23577
 Alpha virt. eigenvalues --   -0.11392   0.13480   0.15997   0.41125   0.42293
 Alpha virt. eigenvalues --    0.67223   0.78998

 Mulliken charges:
               1
     1  H    0.020365
     2  H    0.058263
     3  H    0.045277
     4  H   -0.148485
     5  H    0.058444
     6  H   -0.033863
     7  H   -0.000001
     8  H   -0.000001
     9  H   -0.033863
    10  H    0.058444
    11  H   -0.148485
    12  H    0.045277
    13  H    0.058263
    14  H    0.020365
 Sum of Mulliken charges =  -0.00000

 Dipole moment (field-independent basis, Debye):
    X=              0.0000    Y=              0.0000    Z=             -0.0000  Tot=              0.0000
 Quadrupole moment (field-independent basis, Debye-Ang):
   XX=            -15.4550   YY=            -22.1394   ZZ=            -17.9749
   XY=              4.9909   XZ=              0.0000   YZ=              0.0000

 Normal termination of Gaussian 09 at Wed Feb 15 12:53:01 2017.
