 Gaussian 09, Revision E.01,
 Gaussian 09:  ES64L-G09RevE.01 30-Nov-2015

 ----------------------------------------------------------------------
 #rhf/gen scf(symm,tight,novaracc,noincfock,fulldiag) stable(crhf) gues
 s=read geom=nocrowd test
 ----------------------------------------------------------------------

 hf stability analysis of h12 triangular lattice, y= 0.5540600992415728
 5 alpha= 28.000000000000000
 ----------------------------------------------------------------------
 Symbolic Z-matrix:
 Charge =  0 Multiplicity = 1

                         Standard orientation:
 ---------------------------------------------------------------------
 Center     Atomic      Atomic             Coordinates (Angstroms)
 Number     Number       Type             X           Y           Z
 ---------------------------------------------------------------------
      1          1           0        2.935236   -1.389753    0.000000
      2          1           0        2.935236   -2.569931    0.000000
      3          1           0        1.956824   -0.729805    0.000000
      4          1           0        1.956824   -1.909984    0.000000
      5          1           0        0.978412   -0.069858    0.000000
      6          1           0        0.978412   -1.250036    0.000000
      7          1           0       -0.000000    0.590089    0.000000
      8          1           0       -0.000000   -0.590089   -0.000000
      9          1           0       -0.978412    1.250036    0.000000
     10          1           0       -0.978412    0.069858   -0.000000
     11          1           0       -1.956824    1.909984    0.000000
     12          1           0       -1.956824    0.729805   -0.000000
     13          1           0       -2.935236    2.569931    0.000000
     14          1           0       -2.935236    1.389753   -0.000000
 ---------------------------------------------------------------------

 SCF Done:  E(RHF) =  -6.62069641322     A.U. after   13 cycles
 E2 =    -0.1847116811D+00 EUMP2 =    -0.68054080943735D+01

 The electronic state is 1-AG.
 Alpha  occ. eigenvalues --   -0.85979  -0.82018  -0.70990  -0.56510  -0.38469
 Alpha  occ. eigenvalues --   -0.32587  -0.17365
 Alpha virt. eigenvalues --   -0.08357   0.09609   0.18895   0.31843   0.38256
 Alpha virt. eigenvalues --    0.56689   0.64661

 Mulliken charges:
               1
     1  H    0.232510
     2  H   -0.284364
     3  H   -0.096520
     4  H    0.213218
     5  H   -0.146168
     6  H    0.046944
     7  H    0.034379
     8  H    0.034379
     9  H    0.046944
    10  H   -0.146168
    11  H    0.213218
    12  H   -0.096520
    13  H   -0.284364
    14  H    0.232510
 Sum of Mulliken charges =   0.00000

 Dipole moment (field-independent basis, Debye):
    X=             -0.0000    Y=             -0.0000    Z=             -0.0000  Tot=              0.0000
 Quadrupole moment (field-independent basis, Debye-Ang):
   XX=            -22.4429   YY=            -27.2462   ZZ=            -17.9257
   XY=              6.6426   XZ=              0.0000   YZ=             -0.0000

 Normal termination of Gaussian 09 at Wed Feb 15 12:47:59 2017.
