 Gaussian 09, Revision E.01,
 Gaussian 09:  ES64L-G09RevE.01 30-Nov-2015

 ----------------------------------------------------------------------
 #rhf/gen scf(symm,tight,novaracc,noincfock,fulldiag) stable(crhf) gues
 s=read geom=nocrowd test
 ----------------------------------------------------------------------

 hf stability analysis of h12 triangular lattice, y= 0.5306529471566099
 3 alpha= 26.000000000000000
 ----------------------------------------------------------------------
 Symbolic Z-matrix:
 Charge =  0 Multiplicity = 1

                         Standard orientation:
 ---------------------------------------------------------------------
 Center     Atomic      Atomic             Coordinates (Angstroms)
 Number     Number       Type             X           Y           Z
 ---------------------------------------------------------------------
      1          1           0        2.861686   -1.630539    0.000000
      2          1           0        2.861686   -2.841050    0.000000
      3          1           0        1.907791   -0.885274    0.000000
      4          1           0        1.907791   -2.095785    0.000000
      5          1           0        0.953895   -0.140009    0.000000
      6          1           0        0.953895   -1.350520    0.000000
      7          1           0        0.000000    0.605255    0.000000
      8          1           0       -0.000000   -0.605255   -0.000000
      9          1           0       -0.953895    1.350520    0.000000
     10          1           0       -0.953895    0.140009    0.000000
     11          1           0       -1.907791    2.095785    0.000000
     12          1           0       -1.907791    0.885274    0.000000
     13          1           0       -2.861686    2.841050    0.000000
     14          1           0       -2.861686    1.630539    0.000000
 ---------------------------------------------------------------------

 SCF Done:  E(RHF) =  -6.63647780735     A.U. after   12 cycles
 E2 =    -0.1869738386D+00 EUMP2 =    -0.68234516459203D+01

 The electronic state is 1-AG.
 Alpha  occ. eigenvalues --   -0.84656  -0.81303  -0.70432  -0.56961  -0.39562
 Alpha  occ. eigenvalues --   -0.28479  -0.17881
 Alpha virt. eigenvalues --   -0.05612   0.10847   0.17157   0.31704   0.34343
 Alpha virt. eigenvalues --    0.53555   0.65161

 Mulliken charges:
               1
     1  H    0.214288
     2  H   -0.253258
     3  H   -0.054315
     4  H    0.176780
     5  H   -0.165904
     6  H    0.049146
     7  H    0.033263
     8  H    0.033263
     9  H    0.049146
    10  H   -0.165904
    11  H    0.176780
    12  H   -0.054315
    13  H   -0.253258
    14  H    0.214288
 Sum of Mulliken charges =  -0.00000

 Dipole moment (field-independent basis, Debye):
    X=              0.0000    Y=              0.0000    Z=             -0.0000  Tot=              0.0000
 Quadrupole moment (field-independent basis, Debye-Ang):
   XX=            -21.3482   YY=            -27.3200   ZZ=            -17.9574
   XY=              6.3874   XZ=              0.0000   YZ=             -0.0000

 Normal termination of Gaussian 09 at Wed Feb 15 12:47:37 2017.
