 Gaussian 09, Revision E.01,
 Gaussian 09:  ES64L-G09RevE.01 30-Nov-2015

 ----------------------------------------------------------------------
 #rhf/gen scf(symm,tight,novaracc,noincfock,fulldiag) stable(crhf) gues
 s=read geom=nocrowd test
 ----------------------------------------------------------------------

 hf stability analysis of h12 triangular lattice, y= 0.5188669005588153
 5 alpha= 25.000000000000000
 ----------------------------------------------------------------------
 Symbolic Z-matrix:
 Charge =  0 Multiplicity = 1

                         Standard orientation:
 ---------------------------------------------------------------------
 Center     Atomic      Atomic             Coordinates (Angstroms)
 Number     Number       Type             X           Y           Z
 ---------------------------------------------------------------------
      1          1           0        2.821519   -1.753663    0.000000
      2          1           0        2.821519   -2.981407    0.000000
      3          1           0        1.881012   -0.964485    0.000000
      4          1           0        1.881012   -2.192229    0.000000
      5          1           0        0.940506   -0.175307    0.000000
      6          1           0        0.940506   -1.403050    0.000000
      7          1           0        0.000000    0.613872   -0.000000
      8          1           0       -0.000000   -0.613872   -0.000000
      9          1           0       -0.940506    1.403050    0.000000
     10          1           0       -0.940506    0.175307    0.000000
     11          1           0       -1.881012    2.192229    0.000000
     12          1           0       -1.881012    0.964485    0.000000
     13          1           0       -2.821519    2.981407    0.000000
     14          1           0       -2.821519    1.753663    0.000000
 ---------------------------------------------------------------------

 SCF Done:  E(RHF) =  -6.64417460968     A.U. after   12 cycles
 E2 =    -0.1902361969D+00 EUMP2 =    -0.68344108065993D+01

 The electronic state is 1-AG.
 Alpha  occ. eigenvalues --   -0.83976  -0.80908  -0.70121  -0.57112  -0.40034
 Alpha  occ. eigenvalues --   -0.26572  -0.18485
 Alpha virt. eigenvalues --   -0.04423   0.11748   0.15767   0.31730   0.32027
 Alpha virt. eigenvalues --    0.52811   0.65626

 Mulliken charges:
               1
     1  H    0.201386
     2  H   -0.226992
     3  H   -0.045268
     4  H    0.161041
     5  H   -0.163892
     6  H    0.047996
     7  H    0.025729
     8  H    0.025729
     9  H    0.047996
    10  H   -0.163892
    11  H    0.161041
    12  H   -0.045268
    13  H   -0.226992
    14  H    0.201386
 Sum of Mulliken charges =  -0.00000

 Dipole moment (field-independent basis, Debye):
    X=              0.0000    Y=              0.0000    Z=              0.0000  Tot=              0.0000
 Quadrupole moment (field-independent basis, Debye-Ang):
   XX=            -20.3757   YY=            -26.6945   ZZ=            -17.9891
   XY=              5.3595   XZ=              0.0000   YZ=             -0.0000

 Normal termination of Gaussian 09 at Wed Feb 15 12:47:26 2017.
