 Gaussian 09, Revision E.01,
 Gaussian 09:  ES64L-G09RevE.01 30-Nov-2015

 ----------------------------------------------------------------------
 #rhf/gen scf(symm,tight,novaracc,noincfock,fulldiag) stable(crhf) gues
 s=read geom=nocrowd test
 ----------------------------------------------------------------------

 hf stability analysis of h12 triangular lattice, y= 0.5773502789032680
 7 alpha= 30.000000000000000
 ----------------------------------------------------------------------
 Symbolic Z-matrix:
 Charge =  0 Multiplicity = 1

                         Standard orientation:
 ---------------------------------------------------------------------
 Center     Atomic      Atomic             Coordinates (Angstroms)
 Number     Number       Type             X           Y           Z
 ---------------------------------------------------------------------
      1          1           0        3.000000   -1.154701    0.000000
      2          1           0        3.000000   -2.309401    0.000000
      3          1           0        2.000000   -0.577350    0.000000
      4          1           0        2.000000   -1.732051    0.000000
      5          1           0        1.000000    0.000000    0.000000
      6          1           0        1.000000   -1.154701    0.000000
      7          1           0        0.000000    0.577350    0.000000
      8          1           0       -0.000000   -0.577350    0.000000
      9          1           0       -1.000000    1.154701   -0.000000
     10          1           0       -1.000000    0.000000   -0.000000
     11          1           0       -2.000000    1.732051   -0.000000
     12          1           0       -2.000000    0.577350   -0.000000
     13          1           0       -3.000000    2.309401   -0.000000
     14          1           0       -3.000000    1.154701   -0.000000
 ---------------------------------------------------------------------

 SCF Done:  E(RHF) =  -6.61550740919     A.U. after   12 cycles
 E2 =    -0.1833774414D+00 EUMP2 =    -0.67988848506187D+01

 The electronic state is 1-AG.
 Alpha  occ. eigenvalues --   -0.87096  -0.82275  -0.71028  -0.55803  -0.37254
 Alpha  occ. eigenvalues --   -0.37051  -0.18754
 Alpha virt. eigenvalues --   -0.10877   0.10035   0.18893   0.33624   0.40575
 Alpha virt. eigenvalues --    0.61994   0.64908

 Mulliken charges:
               1
     1  H    0.222307
     2  H   -0.240894
     3  H   -0.174002
     4  H    0.197643
     5  H   -0.064548
     6  H    0.075158
     7  H   -0.015664
     8  H   -0.015664
     9  H    0.075158
    10  H   -0.064548
    11  H    0.197643
    12  H   -0.174002
    13  H   -0.240894
    14  H    0.222307
 Sum of Mulliken charges =  -0.00000

 Dipole moment (field-independent basis, Debye):
    X=              0.0000    Y=             -0.0000    Z=             -0.0000  Tot=              0.0000
 Quadrupole moment (field-independent basis, Debye-Ang):
   XX=            -21.5211   YY=            -25.4413   ZZ=            -17.9282
   XY=              3.8314   XZ=             -0.0000   YZ=              0.0000

 Normal termination of Gaussian 09 at Wed Feb 15 12:48:20 2017.
