 Gaussian 09, Revision E.01,
 Gaussian 09:  ES64L-G09RevE.01 30-Nov-2015

 ----------------------------------------------------------------------
 #rhf/gen scf(symm,tight,novaracc,noincfock,fulldiag) stable(crhf) gues
 s=read geom=nocrowd test
 ----------------------------------------------------------------------

 hf stability analysis of h12 triangular lattice, y= 0.6595943070875844
 9 alpha= 37.000000000000000
 ----------------------------------------------------------------------
 Symbolic Z-matrix:
 Charge =  0 Multiplicity = 1

                         Standard orientation:
 ---------------------------------------------------------------------
 Center     Atomic      Atomic             Coordinates (Angstroms)
 Number     Number       Type             X           Y           Z
 ---------------------------------------------------------------------
      1          1           0        3.160653   -0.358298   -0.000000
      2          1           0        3.160653   -1.454307   -0.000000
      3          1           0        2.107102   -0.056198   -0.000000
      4          1           0        2.107102   -1.152206   -0.000000
      5          1           0        1.053551    0.245903   -0.000000
      6          1           0        1.053551   -0.850105   -0.000000
      7          1           0       -0.000000    0.548004    0.000000
      8          1           0       -0.000000   -0.548004    0.000000
      9          1           0       -1.053551    0.850105   -0.000000
     10          1           0       -1.053551   -0.245903   -0.000000
     11          1           0       -2.107102    1.152206   -0.000000
     12          1           0       -2.107102    0.056198   -0.000000
     13          1           0       -3.160653    1.454307   -0.000000
     14          1           0       -3.160653    0.358298   -0.000000
 ---------------------------------------------------------------------

 SCF Done:  E(RHF) =  -6.69058612504     A.U. after   11 cycles
 E2 =    -0.1619578082D+00 EUMP2 =    -0.68525439332631D+01

 The electronic state is 1-AG.
 Alpha  occ. eigenvalues --   -0.89258  -0.82126  -0.70196  -0.53098  -0.47447
 Alpha  occ. eigenvalues --   -0.39241  -0.24514
 Alpha virt. eigenvalues --   -0.10936   0.14698   0.15251   0.42046   0.43424
 Alpha virt. eigenvalues --    0.68178   0.85485

 Mulliken charges:
               1
     1  H    0.034613
     2  H    0.053284
     3  H   -0.111087
     4  H    0.017878
     5  H   -0.034794
     6  H    0.032926
     7  H    0.007179
     8  H    0.007179
     9  H    0.032926
    10  H   -0.034794
    11  H    0.017878
    12  H   -0.111087
    13  H    0.053284
    14  H    0.034613
 Sum of Mulliken charges =  -0.00000

 Dipole moment (field-independent basis, Debye):
    X=             -0.0000    Y=              0.0000    Z=             -0.0000  Tot=              0.0000
 Quadrupole moment (field-independent basis, Debye-Ang):
   XX=            -14.0448   YY=            -22.8207   ZZ=            -17.9712
   XY=             -4.9936   XZ=              0.0000   YZ=             -0.0000

 Normal termination of Gaussian 09 at Wed Feb 15 12:49:37 2017.
