 Gaussian 09, Revision E.01,
 Gaussian 09:  ES64L-G09RevE.01 30-Nov-2015

 ----------------------------------------------------------------------
 #rhf/gen scf(symm,tight,novaracc,noincfock,fulldiag) stable(crhf) gues
 s=read geom=nocrowd test
 ----------------------------------------------------------------------

 hf stability analysis of h12 triangular lattice, y= 0.7210052279144877
 3 alpha= 42.000000000000000
 ----------------------------------------------------------------------
 Symbolic Z-matrix:
 Charge =  0 Multiplicity = 1

                         Standard orientation:
 ---------------------------------------------------------------------
 Center     Atomic      Atomic             Coordinates (Angstroms)
 Number     Number       Type             X           Y           Z
 ---------------------------------------------------------------------
      1          1           0        3.214868    0.200866   -0.000000
      2          1           0        3.214868   -0.876659   -0.000000
      3          1           0        2.143245    0.313499   -0.000000
      4          1           0        2.143245   -0.764027   -0.000000
      5          1           0        1.071623    0.426131   -0.000000
      6          1           0        1.071623   -0.651395   -0.000000
      7          1           0        0.000000    0.538763    0.000000
      8          1           0       -0.000000   -0.538763    0.000000
      9          1           0       -1.071623    0.651395   -0.000000
     10          1           0       -1.071623   -0.426131   -0.000000
     11          1           0       -2.143245    0.764027   -0.000000
     12          1           0       -2.143245   -0.313499   -0.000000
     13          1           0       -3.214868    0.876659   -0.000000
     14          1           0       -3.214868   -0.200866   -0.000000
 ---------------------------------------------------------------------

 SCF Done:  E(RHF) =  -6.73007580404     A.U. after    9 cycles
 E2 =    -0.1584675647D+00 EUMP2 =    -0.68885433687784D+01

 The electronic state is 1-AG.
 Alpha  occ. eigenvalues --   -0.89876  -0.82530  -0.70293  -0.52484  -0.49462
 Alpha  occ. eigenvalues --   -0.40738  -0.25917
 Alpha virt. eigenvalues --   -0.09991   0.13990   0.16806   0.41374   0.46652
 Alpha virt. eigenvalues --    0.70169   0.96786

 Mulliken charges:
               1
     1  H    0.035723
     2  H    0.061172
     3  H   -0.058394
     4  H   -0.022303
     5  H   -0.025463
     6  H   -0.003234
     7  H    0.012499
     8  H    0.012499
     9  H   -0.003234
    10  H   -0.025463
    11  H   -0.022303
    12  H   -0.058394
    13  H    0.061172
    14  H    0.035723
 Sum of Mulliken charges =  -0.00000

 Dipole moment (field-independent basis, Debye):
    X=             -0.0000    Y=             -0.0000    Z=             -0.0000  Tot=              0.0000
 Quadrupole moment (field-independent basis, Debye-Ang):
   XX=            -12.4053   YY=            -24.5718   ZZ=            -17.9574
   XY=             -2.2151   XZ=             -0.0000   YZ=             -0.0000

 Normal termination of Gaussian 09 at Wed Feb 15 12:50:37 2017.
