 Gaussian 09, Revision E.01,
 Gaussian 09:  ES64L-G09RevE.01 30-Nov-2015

 ----------------------------------------------------------------------
 #rhf/gen scf(symm,tight,novaracc,noincfock,fulldiag) stable(crhf) gues
 s=read geom=nocrowd test
 ----------------------------------------------------------------------

 hf stability analysis of h12 triangular lattice, y= 1.5217180473945009
  alpha= 76.000000000000000
 ----------------------------------------------------------------------
 Symbolic Z-matrix:
 Charge =  0 Multiplicity = 1

                         Standard orientation:
 ---------------------------------------------------------------------
 Center     Atomic      Atomic             Coordinates (Angstroms)
 Number     Number       Type             X           Y           Z
 ---------------------------------------------------------------------
      1          1           0        2.208821    4.938341   -0.000000
      2          1           0        2.208821    3.370037   -0.000000
      3          1           0        1.472548    3.553611   -0.000000
      4          1           0        1.472548    1.985308   -0.000000
      5          1           0        0.736274    2.168881   -0.000000
      6          1           0        0.736274    0.600578   -0.000000
      7          1           0        0.000000    0.784152   -0.000000
      8          1           0       -0.000000   -0.784152    0.000000
      9          1           0       -0.736274   -0.600578   -0.000000
     10          1           0       -0.736274   -2.168881   -0.000000
     11          1           0       -1.472548   -1.985308   -0.000000
     12          1           0       -1.472548   -3.553611   -0.000000
     13          1           0       -2.208821   -3.370037   -0.000000
     14          1           0       -2.208821   -4.938341   -0.000000
 ---------------------------------------------------------------------

 SCF Done:  E(RHF) =  -6.94537313908     A.U. after    8 cycles
 E2 =    -0.8226105399D+00 EUMP2 =    -0.77679836789296D+01

 The electronic state is 1-AG.
 Alpha  occ. eigenvalues --   -0.76056  -0.73648  -0.68377  -0.61347  -0.52806
 Alpha  occ. eigenvalues --   -0.43518  -0.13508
 Alpha virt. eigenvalues --   -0.08601   0.20747   0.25681   0.34842   0.46412
 Alpha virt. eigenvalues --    0.58430   0.68316

 Mulliken charges:
               1
     1  H   -0.076700
     2  H    0.018322
     3  H    0.043297
     4  H    0.003145
     5  H    0.010252
     6  H   -0.001372
     7  H    0.003056
     8  H    0.003056
     9  H   -0.001372
    10  H    0.010252
    11  H    0.003145
    12  H    0.043297
    13  H    0.018322
    14  H   -0.076700
 Sum of Mulliken charges =  -0.00000

 Dipole moment (field-independent basis, Debye):
    X=              0.0000    Y=              0.0000    Z=              0.0000  Tot=              0.0000
 Quadrupole moment (field-independent basis, Debye-Ang):
   XX=            -18.7702   YY=            -35.2140   ZZ=            -17.8742
   XY=             -8.4316   XZ=              0.0000   YZ=             -0.0000

 Normal termination of Gaussian 09 at Wed Feb 15 12:56:51 2017.
