 Gaussian 09, Revision E.01,
 Gaussian 09:  ES64L-G09RevE.01 30-Nov-2015

 ----------------------------------------------------------------------
 #rhf/gen scf(symm,tight,novaracc,noincfock,fulldiag) stable(crhf) gues
 s=read geom=nocrowd test
 ----------------------------------------------------------------------

 hf stability analysis of h12 triangular lattice, y= 0.2247478695127229
 1 alpha= 5.0000000000000000
 ----------------------------------------------------------------------
 Symbolic Z-matrix:
 Charge =  0 Multiplicity = 1

                         Standard orientation:
 ---------------------------------------------------------------------
 Center     Atomic      Atomic             Coordinates (Angstroms)
 Number     Number       Type             X           Y           Z
 ---------------------------------------------------------------------
      1          1           0        1.343356   -6.329203   -0.000000
      2          1           0        1.343356   -8.907895   -0.000000
      3          1           0        0.895571   -3.789687   -0.000000
      4          1           0        0.895571   -6.368379   -0.000000
      5          1           0        0.447785   -1.250170   -0.000000
      6          1           0        0.447785   -3.828863   -0.000000
      7          1           0        0.000000    1.289346    0.000000
      8          1           0       -0.000000   -1.289346    0.000000
      9          1           0       -0.447785    3.828863   -0.000000
     10          1           0       -0.447785    1.250170   -0.000000
     11          1           0       -0.895571    6.368379   -0.000000
     12          1           0       -0.895571    3.789687   -0.000000
     13          1           0       -1.343356    8.907895   -0.000000
     14          1           0       -1.343356    6.329203   -0.000000
 ---------------------------------------------------------------------

 SCF Done:  E(RHF) =  -6.00500962150     A.U. after    8 cycles
 E2 =    -0.1563513963D+01 EUMP2 =    -0.75685235843112D+01

 The electronic state is 1-AG.
 Alpha  occ. eigenvalues --   -0.74389  -0.74012  -0.73416  -0.72733  -0.72096
 Alpha  occ. eigenvalues --   -0.71621  -0.19948
 Alpha virt. eigenvalues --   -0.17012   0.59687   0.61738   0.64881   0.68585
 Alpha virt. eigenvalues --    0.72133   0.74735

 Mulliken charges:
               1
     1  H   -0.000235
     2  H    0.001237
     3  H   -0.000060
     4  H   -0.001002
     5  H   -0.000007
     6  H    0.000059
     7  H    0.000007
     8  H    0.000007
     9  H    0.000059
    10  H   -0.000007
    11  H   -0.001002
    12  H   -0.000060
    13  H    0.001237
    14  H   -0.000235
 Sum of Mulliken charges =  -0.00000

 Dipole moment (field-independent basis, Debye):
    X=              0.0000    Y=             -0.0000    Z=             -0.0000  Tot=              0.0000
 Quadrupole moment (field-independent basis, Debye-Ang):
   XX=            -17.8916   YY=            -20.3814   ZZ=            -18.9450
   XY=              0.3172   XZ=             -0.0000   YZ=              0.0000

 Normal termination of Gaussian 09 at Wed Feb 15 12:43:59 2017.
