 Gaussian 09, Revision E.01,
 Gaussian 09:  ES64L-G09RevE.01 30-Nov-2015

 ----------------------------------------------------------------------
 #rhf/gen scf(symm,tight,novaracc,noincfock,fulldiag) stable(crhf) gues
 s=read geom=nocrowd test
 ----------------------------------------------------------------------

 hf stability analysis of h12 triangular lattice, y= 0.6123199016056329
 9 alpha= 33.000000000000000
 ----------------------------------------------------------------------
 Symbolic Z-matrix:
 Charge =  0 Multiplicity = 1

                         Standard orientation:
 ---------------------------------------------------------------------
 Center     Atomic      Atomic             Coordinates (Angstroms)
 Number     Number       Type             X           Y           Z
 ---------------------------------------------------------------------
      1          1           0        3.081208   -0.809709    0.000000
      2          1           0        3.081208   -1.933976    0.000000
      3          1           0        2.054139   -0.352428    0.000000
      4          1           0        2.054139   -1.476695    0.000000
      5          1           0        1.027069    0.104853    0.000000
      6          1           0        1.027069   -1.019414    0.000000
      7          1           0        0.000000    0.562134    0.000000
      8          1           0       -0.000000   -0.562134   -0.000000
      9          1           0       -1.027069    1.019414    0.000000
     10          1           0       -1.027069   -0.104853    0.000000
     11          1           0       -2.054139    1.476695    0.000000
     12          1           0       -2.054139    0.352428    0.000000
     13          1           0       -3.081208    1.933976    0.000000
     14          1           0       -3.081208    0.809709    0.000000
 ---------------------------------------------------------------------

 SCF Done:  E(RHF) =  -6.63858092565     A.U. after   11 cycles
 E2 =    -0.1670630643D+00 EUMP2 =    -0.68056439899805D+01

 The electronic state is 1-AG.
 Alpha  occ. eigenvalues --   -0.88468  -0.81952  -0.70393  -0.54292  -0.43702
 Alpha  occ. eigenvalues --   -0.37357  -0.22266
 Alpha virt. eigenvalues --   -0.11731   0.12148   0.16900   0.38242   0.42252
 Alpha virt. eigenvalues --    0.66216   0.71901

 Mulliken charges:
               1
     1  H    0.116403
     2  H   -0.056903
     3  H   -0.195932
     4  H    0.088361
     5  H   -0.027628
     6  H    0.090804
     7  H   -0.015104
     8  H   -0.015104
     9  H    0.090804
    10  H   -0.027628
    11  H    0.088361
    12  H   -0.195932
    13  H   -0.056903
    14  H    0.116403
 Sum of Mulliken charges =  -0.00000

 Dipole moment (field-independent basis, Debye):
    X=              0.0000    Y=             -0.0000    Z=              0.0000  Tot=              0.0000
 Quadrupole moment (field-independent basis, Debye-Ang):
   XX=            -17.6172   YY=            -22.3506   ZZ=            -17.9688
   XY=             -3.1263   XZ=             -0.0000   YZ=             -0.0000

 Normal termination of Gaussian 09 at Wed Feb 15 12:48:53 2017.
