 Gaussian 09, Revision E.01,
 Gaussian 09:  ES64L-G09RevE.01 30-Nov-2015

 ----------------------------------------------------------------------
 #rhf/gen scf(symm,tight,novaracc,noincfock,fulldiag) stable(crhf) gues
 s=read geom=nocrowd test
 ----------------------------------------------------------------------

 hf stability analysis of h12 triangular lattice, y= 1.1387493349689228
  alpha= 66.000000000000000
 ----------------------------------------------------------------------
 Symbolic Z-matrix:
 Charge =  0 Multiplicity = 1

                         Standard orientation:
 ---------------------------------------------------------------------
 Center     Atomic      Atomic             Coordinates (Angstroms)
 Number     Number       Type             X           Y           Z
 ---------------------------------------------------------------------
      1          1           0        2.779026    3.125505    0.000000
      2          1           0        2.779026    1.878988    0.000000
      3          1           0        1.852684    2.291423    0.000000
      4          1           0        1.852684    1.044906    0.000000
      5          1           0        0.926342    1.457340    0.000000
      6          1           0        0.926342    0.210824    0.000000
      7          1           0       -0.000000    0.623258    0.000000
      8          1           0       -0.000000   -0.623258    0.000000
      9          1           0       -0.926342   -0.210824   -0.000000
     10          1           0       -0.926342   -1.457340   -0.000000
     11          1           0       -1.852684   -1.044906   -0.000000
     12          1           0       -1.852684   -2.291423   -0.000000
     13          1           0       -2.779026   -1.878988   -0.000000
     14          1           0       -2.779026   -3.125505   -0.000000
 ---------------------------------------------------------------------

 SCF Done:  E(RHF) =  -6.65010637206     A.U. after   11 cycles
 E2 =    -0.1941662919D+00 EUMP2 =    -0.68442726639623D+01

 The electronic state is 1-AG.
 Alpha  occ. eigenvalues --   -0.83258  -0.80475  -0.69792  -0.57236  -0.40498
 Alpha  occ. eigenvalues --   -0.24633  -0.19153
 Alpha virt. eigenvalues --   -0.03240   0.12705   0.14185   0.28862   0.32548
 Alpha virt. eigenvalues --    0.52496   0.66201

 Mulliken charges:
               1
     1  H   -0.198725
     2  H    0.188058
     3  H    0.148483
     4  H   -0.039675
     5  H    0.043928
     6  H   -0.161172
     7  H    0.019104
     8  H    0.019104
     9  H   -0.161172
    10  H    0.043928
    11  H   -0.039675
    12  H    0.148483
    13  H    0.188058
    14  H   -0.198725
 Sum of Mulliken charges =   0.00000

 Dipole moment (field-independent basis, Debye):
    X=              0.0000    Y=              0.0000    Z=             -0.0000  Tot=              0.0000
 Quadrupole moment (field-independent basis, Debye-Ang):
   XX=            -19.3287   YY=            -25.6584   ZZ=            -18.0249
   XY=             -4.0214   XZ=             -0.0000   YZ=             -0.0000

 Normal termination of Gaussian 09 at Wed Feb 15 12:55:01 2017.
