 Gaussian 09, Revision E.01,
 Gaussian 09:  ES64L-G09RevE.01 30-Nov-2015

 ----------------------------------------------------------------------
 #rhf/gen scf(symm,tight,novaracc,noincfock,fulldiag) stable(crhf) gues
 s=read geom=nocrowd test
 ----------------------------------------------------------------------

 hf stability analysis of h12 triangular lattice, y= 0.5423787099077283
 0 alpha= 27.000000000000000
 ----------------------------------------------------------------------
 Symbolic Z-matrix:
 Charge =  0 Multiplicity = 1

                         Standard orientation:
 ---------------------------------------------------------------------
 Center     Atomic      Atomic             Coordinates (Angstroms)
 Number     Number       Type             X           Y           Z
 ---------------------------------------------------------------------
      1          1           0        2.899578   -1.509321    0.000000
      2          1           0        2.899578   -2.704012    0.000000
      3          1           0        1.933052   -0.807098    0.000000
      4          1           0        1.933052   -2.001790    0.000000
      5          1           0        0.966526   -0.104876    0.000000
      6          1           0        0.966526   -1.299568    0.000000
      7          1           0        0.000000    0.597346   -0.000000
      8          1           0       -0.000000   -0.597346    0.000000
      9          1           0       -0.966526    1.299568   -0.000000
     10          1           0       -0.966526    0.104876   -0.000000
     11          1           0       -1.933052    2.001790   -0.000000
     12          1           0       -1.933052    0.807098   -0.000000
     13          1           0       -2.899578    2.704012   -0.000000
     14          1           0       -2.899578    1.509321   -0.000000
 ---------------------------------------------------------------------

 SCF Done:  E(RHF) =  -6.62807625752     A.U. after   12 cycles
 E2 =    -0.1847718999D+00 EUMP2 =    -0.68128481574206D+01

 The electronic state is 1-AG.
 Alpha  occ. eigenvalues --   -0.85324  -0.81681  -0.70737  -0.56773  -0.39057
 Alpha  occ. eigenvalues --   -0.30441  -0.17430
 Alpha virt. eigenvalues --   -0.06890   0.10070   0.18240   0.31611   0.36542
 Alpha virt. eigenvalues --    0.54819   0.64823

 Mulliken charges:
               1
     1  H    0.226230
     2  H   -0.275723
     3  H   -0.069835
     4  H    0.196144
     5  H   -0.163624
     6  H    0.047571
     7  H    0.039237
     8  H    0.039237
     9  H    0.047571
    10  H   -0.163624
    11  H    0.196144
    12  H   -0.069835
    13  H   -0.275723
    14  H    0.226230
 Sum of Mulliken charges =   0.00000

 Dipole moment (field-independent basis, Debye):
    X=             -0.0000    Y=              0.0000    Z=             -0.0000  Tot=              0.0000
 Quadrupole moment (field-independent basis, Debye-Ang):
   XX=            -22.1337   YY=            -27.5576   ZZ=            -17.9344
   XY=              6.9534   XZ=             -0.0000   YZ=              0.0000

 Normal termination of Gaussian 09 at Wed Feb 15 12:47:48 2017.
