 Gaussian 09, Revision E.01,
 Gaussian 09:  ES64L-G09RevE.01 30-Nov-2015

 ----------------------------------------------------------------------
 #rhf/gen scf(symm,tight,novaracc,noincfock,fulldiag) stable(crhf) gues
 s=read geom=nocrowd test
 ----------------------------------------------------------------------

 hf stability analysis of h12 triangular lattice, y= 0.4331194750473593
 1 alpha= 18.000000000000000
 ----------------------------------------------------------------------
 Symbolic Z-matrix:
 Charge =  0 Multiplicity = 1

                         Standard orientation:
 ---------------------------------------------------------------------
 Center     Atomic      Atomic             Coordinates (Angstroms)
 Number     Number       Type             X           Y           Z
 ---------------------------------------------------------------------
      1          1           0        2.471527   -2.700962   -0.000000
      2          1           0        2.471527   -4.102566   -0.000000
      3          1           0        1.647684   -1.567041   -0.000000
      4          1           0        1.647684   -2.968645   -0.000000
      5          1           0        0.823842   -0.433119   -0.000000
      6          1           0        0.823842   -1.834723   -0.000000
      7          1           0        0.000000    0.700802   -0.000000
      8          1           0       -0.000000   -0.700802   -0.000000
      9          1           0       -0.823842    1.834723   -0.000000
     10          1           0       -0.823842    0.433119   -0.000000
     11          1           0       -1.647684    2.968645   -0.000000
     12          1           0       -1.647684    1.567041   -0.000000
     13          1           0       -2.471527    4.102566   -0.000000
     14          1           0       -2.471527    2.700962   -0.000000
 ---------------------------------------------------------------------

 SCF Done:  E(RHF) =  -6.67693155148     A.U. after   11 cycles
 E2 =    -0.4812585544D+00 EUMP2 =    -0.71581901058967D+01

 The electronic state is 1-AG.
 Alpha  occ. eigenvalues --   -0.77960  -0.75290  -0.68229  -0.58531  -0.46495
 Alpha  occ. eigenvalues --   -0.32089  -0.08224
 Alpha virt. eigenvalues --   -0.02618   0.11426   0.16628   0.27341   0.40796
 Alpha virt. eigenvalues --    0.55293   0.67093

 Mulliken charges:
               1
     1  H   -0.021618
     2  H   -0.108143
     3  H    0.049474
     4  H    0.143462
     5  H   -0.073474
     6  H   -0.050746
     7  H    0.061046
     8  H    0.061046
     9  H   -0.050746
    10  H   -0.073474
    11  H    0.143462
    12  H    0.049474
    13  H   -0.108143
    14  H   -0.021618
 Sum of Mulliken charges =  -0.00000

 Dipole moment (field-independent basis, Debye):
    X=             -0.0000    Y=             -0.0000    Z=              0.0000  Tot=              0.0000
 Quadrupole moment (field-independent basis, Debye-Ang):
   XX=            -21.6210   YY=            -31.4986   ZZ=            -17.6290
   XY=              9.8894   XZ=              0.0000   YZ=             -0.0000

 Normal termination of Gaussian 09 at Wed Feb 15 12:46:11 2017.
