 Gaussian 09, Revision E.01,
 Gaussian 09:  ES64L-G09RevE.01 30-Nov-2015

 ----------------------------------------------------------------------
 #rhf/gen scf(symm,tight,novaracc,noincfock,fulldiag) stable(crhf) gues
 s=read geom=nocrowd test
 ----------------------------------------------------------------------

 hf stability analysis of h12 triangular lattice, y= 0.4201353311163031
 9 alpha= 17.000000000000000
 ----------------------------------------------------------------------
 Symbolic Z-matrix:
 Charge =  0 Multiplicity = 1

                         Standard orientation:
 ---------------------------------------------------------------------
 Center     Atomic      Atomic             Coordinates (Angstroms)
 Number     Number       Type             X           Y           Z
 ---------------------------------------------------------------------
      1          1           0        2.410664   -2.855462   -0.000000
      2          1           0        2.410664   -4.292452   -0.000000
      3          1           0        1.607110   -1.664143   -0.000000
      4          1           0        1.607110   -3.101133   -0.000000
      5          1           0        0.803555   -0.472824   -0.000000
      6          1           0        0.803555   -1.909814   -0.000000
      7          1           0        0.000000    0.718495    0.000000
      8          1           0       -0.000000   -0.718495    0.000000
      9          1           0       -0.803555    1.909814   -0.000000
     10          1           0       -0.803555    0.472824   -0.000000
     11          1           0       -1.607110    3.101133   -0.000000
     12          1           0       -1.607110    1.664143   -0.000000
     13          1           0       -2.410664    4.292452   -0.000000
     14          1           0       -2.410664    2.855462   -0.000000
 ---------------------------------------------------------------------

 SCF Done:  E(RHF) =  -6.75111941032     A.U. after   10 cycles
 E2 =    -0.6490565602D+00 EUMP2 =    -0.74001759704757D+01

 The electronic state is 1-AG.
 Alpha  occ. eigenvalues --   -0.77986  -0.75082  -0.68430  -0.59456  -0.48341
 Alpha  occ. eigenvalues --   -0.35450  -0.08938
 Alpha virt. eigenvalues --   -0.03782   0.13185   0.18668   0.29039   0.42011
 Alpha virt. eigenvalues --    0.55625   0.66652

 Mulliken charges:
               1
     1  H    0.006223
     2  H   -0.130728
     3  H    0.023474
     4  H    0.100194
     5  H   -0.019196
     6  H   -0.003076
     7  H    0.023110
     8  H    0.023110
     9  H   -0.003076
    10  H   -0.019196
    11  H    0.100194
    12  H    0.023474
    13  H   -0.130728
    14  H    0.006223
 Sum of Mulliken charges =   0.00000

 Dipole moment (field-independent basis, Debye):
    X=             -0.0000    Y=             -0.0000    Z=              0.0000  Tot=              0.0000
 Quadrupole moment (field-independent basis, Debye-Ang):
   XX=            -21.7248   YY=            -37.6651   ZZ=            -17.6196
   XY=             12.5087   XZ=              0.0000   YZ=             -0.0000

 Normal termination of Gaussian 09 at Wed Feb 15 12:46:01 2017.
