 Gaussian 09, Revision E.01,
 Gaussian 09:  ES64L-G09RevE.01 30-Nov-2015

 ----------------------------------------------------------------------
 #rhf/gen scf(symm,tight,novaracc,noincfock,fulldiag) stable(crhf) gues
 s=read geom=nocrowd test
 ----------------------------------------------------------------------

 hf stability analysis of h12 triangular lattice, y= 1.5813852119866876
  alpha= 77.000000000000000
 ----------------------------------------------------------------------
 Symbolic Z-matrix:
 Charge =  0 Multiplicity = 1

                         Standard orientation:
 ---------------------------------------------------------------------
 Center     Atomic      Atomic             Coordinates (Angstroms)
 Number     Number       Type             X           Y           Z
 ---------------------------------------------------------------------
      1          1           0        2.134406    5.187671   -0.000000
      2          1           0        2.134406    3.564689   -0.000000
      3          1           0        1.422937    3.728944   -0.000000
      4          1           0        1.422937    2.105962   -0.000000
      5          1           0        0.711469    2.270218   -0.000000
      6          1           0        0.711469    0.647236   -0.000000
      7          1           0        0.000000    0.811491    0.000000
      8          1           0       -0.000000   -0.811491    0.000000
      9          1           0       -0.711469   -0.647236    0.000000
     10          1           0       -0.711469   -2.270218    0.000000
     11          1           0       -1.422937   -2.105962    0.000000
     12          1           0       -1.422937   -3.728944    0.000000
     13          1           0       -2.134406   -3.564689    0.000000
     14          1           0       -2.134406   -5.187671    0.000000
 ---------------------------------------------------------------------

 SCF Done:  E(RHF) =  -6.98614568133     A.U. after    7 cycles
 E2 =    -0.8789736094D+00 EUMP2 =    -0.78651192906992D+01

 The electronic state is 1-AG.
 Alpha  occ. eigenvalues --   -0.75429  -0.73205  -0.68439  -0.62088  -0.54468
 Alpha  occ. eigenvalues --   -0.46419  -0.14863
 Alpha virt. eigenvalues --   -0.10105   0.23644   0.28389   0.37076   0.48068
 Alpha virt. eigenvalues --    0.59467   0.68820

 Mulliken charges:
               1
     1  H   -0.057434
     2  H    0.015683
     3  H    0.031476
     4  H    0.001285
     5  H    0.008007
     6  H   -0.000776
     7  H    0.001759
     8  H    0.001759
     9  H   -0.000776
    10  H    0.008007
    11  H    0.001285
    12  H    0.031476
    13  H    0.015683
    14  H   -0.057434
 Sum of Mulliken charges =  -0.00000

 Dipole moment (field-independent basis, Debye):
    X=              0.0000    Y=              0.0000    Z=              0.0000  Tot=              0.0000
 Quadrupole moment (field-independent basis, Debye-Ang):
   XX=            -18.0988   YY=            -33.2622   ZZ=            -17.9785
   XY=             -6.8588   XZ=              0.0000   YZ=              0.0000

 Normal termination of Gaussian 09 at Wed Feb 15 12:57:01 2017.
