 Gaussian 09, Revision E.01,
 Gaussian 09:  ES64L-G09RevE.01 30-Nov-2015

 ----------------------------------------------------------------------
 #rhf/gen scf(symm,tight,novaracc,noincfock,fulldiag) stable(crhf) gues
 s=read geom=nocrowd test
 ----------------------------------------------------------------------

 hf stability analysis of h12 triangular lattice, y= 0.4707695940863088
 6 alpha= 21.000000000000000
 ----------------------------------------------------------------------
 Symbolic Z-matrix:
 Charge =  0 Multiplicity = 1

                         Standard orientation:
 ---------------------------------------------------------------------
 Center     Atomic      Atomic             Coordinates (Angstroms)
 Number     Number       Type             X           Y           Z
 ---------------------------------------------------------------------
      1          1           0        2.637008   -2.271869   -0.000000
      2          1           0        2.637008   -3.585518    0.000000
      3          1           0        1.758005   -1.295638   -0.000000
      4          1           0        1.758005   -2.609287    0.000000
      5          1           0        0.879003   -0.319407   -0.000000
      6          1           0        0.879003   -1.633056    0.000000
      7          1           0        0.000000    0.656824   -0.000000
      8          1           0       -0.000000   -0.656824    0.000000
      9          1           0       -0.879003    1.633056   -0.000000
     10          1           0       -0.879003    0.319407   -0.000000
     11          1           0       -1.758005    2.609287   -0.000000
     12          1           0       -1.758005    1.295638   -0.000000
     13          1           0       -2.637008    3.585518   -0.000000
     14          1           0       -2.637008    2.271869   -0.000000
 ---------------------------------------------------------------------

 SCF Done:  E(RHF) =  -6.64999051583     A.U. after   11 cycles
 E2 =    -0.2090642212D+00 EUMP2 =    -0.68590547369887D+01

 The electronic state is 1-AG.
 Alpha  occ. eigenvalues --   -0.80713  -0.78771  -0.68546  -0.57386  -0.41912
 Alpha  occ. eigenvalues --   -0.22278  -0.17363
 Alpha virt. eigenvalues --    0.00112   0.09495   0.14269   0.21487   0.35204
 Alpha virt. eigenvalues --    0.53403   0.68529

 Mulliken charges:
               1
     1  H    0.137591
     2  H   -0.098064
     3  H   -0.027561
     4  H    0.123811
     5  H   -0.161316
     6  H    0.011487
     7  H    0.014053
     8  H    0.014053
     9  H    0.011487
    10  H   -0.161316
    11  H    0.123811
    12  H   -0.027561
    13  H   -0.098064
    14  H    0.137591
 Sum of Mulliken charges =   0.00000

 Dipole moment (field-independent basis, Debye):
    X=              0.0000    Y=             -0.0000    Z=             -0.0000  Tot=              0.0000
 Quadrupole moment (field-independent basis, Debye-Ang):
   XX=            -16.1461   YY=            -19.0906   ZZ=            -18.1350
   XY=             -1.5750   XZ=              0.0000   YZ=             -0.0000

 Normal termination of Gaussian 09 at Wed Feb 15 12:46:43 2017.
