 Gaussian 09, Revision E.01,
 Gaussian 09:  ES64L-G09RevE.01 30-Nov-2015

 ----------------------------------------------------------------------
 #rhf/gen scf(symm,tight,novaracc,noincfock,fulldiag) stable(crhf) gues
 s=read geom=nocrowd test
 ----------------------------------------------------------------------

 hf stability analysis of h12 triangular lattice, y= 0.6006400760937612
 4 alpha= 32.000000000000000
 ----------------------------------------------------------------------
 Symbolic Z-matrix:
 Charge =  0 Multiplicity = 1

                         Standard orientation:
 ---------------------------------------------------------------------
 Center     Atomic      Atomic             Coordinates (Angstroms)
 Number     Number       Type             X           Y           Z
 ---------------------------------------------------------------------
      1          1           0        3.056230   -0.923895    0.000000
      2          1           0        3.056230   -2.057351    0.000000
      3          1           0        2.037487   -0.427021    0.000000
      4          1           0        2.037487   -1.560477    0.000000
      5          1           0        1.018743    0.069854    0.000000
      6          1           0        1.018743   -1.063602    0.000000
      7          1           0        0.000000    0.566728    0.000000
      8          1           0       -0.000000   -0.566728    0.000000
      9          1           0       -1.018743    1.063602    0.000000
     10          1           0       -1.018743   -0.069854    0.000000
     11          1           0       -2.037487    1.560477    0.000000
     12          1           0       -2.037487    0.427021    0.000000
     13          1           0       -3.056230    2.057351    0.000000
     14          1           0       -3.056230    0.923895    0.000000
 ---------------------------------------------------------------------

 SCF Done:  E(RHF) =  -6.62689100126     A.U. after   13 cycles
 E2 =    -0.1698404019D+00 EUMP2 =    -0.67967314031329D+01

 The electronic state is 1-AG.
 Alpha  occ. eigenvalues --   -0.88150  -0.82058  -0.70600  -0.54801  -0.41941
 Alpha  occ. eigenvalues --   -0.36982  -0.21301
 Alpha virt. eigenvalues --   -0.11768   0.11438   0.17495   0.36632   0.41962
 Alpha virt. eigenvalues --    0.65690   0.68340

 Mulliken charges:
               1
     1  H    0.161493
     2  H   -0.120446
     3  H   -0.214029
     4  H    0.121456
     5  H   -0.024787
     6  H    0.102083
     7  H   -0.025770
     8  H   -0.025770
     9  H    0.102083
    10  H   -0.024787
    11  H    0.121456
    12  H   -0.214029
    13  H   -0.120446
    14  H    0.161493
 Sum of Mulliken charges =   0.00000

 Dipole moment (field-independent basis, Debye):
    X=              0.0000    Y=              0.0000    Z=              0.0000  Tot=              0.0000
 Quadrupole moment (field-independent basis, Debye-Ang):
   XX=            -19.0153   YY=            -23.1661   ZZ=            -17.9576
   XY=             -1.0373   XZ=              0.0000   YZ=              0.0000

 Normal termination of Gaussian 09 at Wed Feb 15 12:48:42 2017.
