 Gaussian 09, Revision E.01,
 Gaussian 09:  ES64L-G09RevE.01 30-Nov-2015

 ----------------------------------------------------------------------
 #rhf/gen scf(symm,tight,novaracc,noincfock,fulldiag) stable(crhf) gues
 s=read geom=nocrowd test
 ----------------------------------------------------------------------

 hf stability analysis of h12 triangular lattice, y= 0.7337491795890599
 4 alpha= 43.000000000000000
 ----------------------------------------------------------------------
 Symbolic Z-matrix:
 Charge =  0 Multiplicity = 1

                         Standard orientation:
 ---------------------------------------------------------------------
 Center     Atomic      Atomic             Coordinates (Angstroms)
 Number     Number       Type             X           Y           Z
 ---------------------------------------------------------------------
      1          1           0        3.219781    0.312792   -0.000000
      2          1           0        3.219781   -0.763090    0.000000
      3          1           0        2.146521    0.387841   -0.000000
      4          1           0        2.146521   -0.688040    0.000000
      5          1           0        1.073260    0.462891   -0.000000
      6          1           0        1.073260   -0.612990    0.000000
      7          1           0        0.000000    0.537941   -0.000000
      8          1           0       -0.000000   -0.537941   -0.000000
      9          1           0       -1.073260    0.612990   -0.000000
     10          1           0       -1.073260   -0.462891   -0.000000
     11          1           0       -2.146521    0.688040   -0.000000
     12          1           0       -2.146521   -0.387841   -0.000000
     13          1           0       -3.219781    0.763090   -0.000000
     14          1           0       -3.219781   -0.312792   -0.000000
 ---------------------------------------------------------------------

 SCF Done:  E(RHF) =  -6.73363562905     A.U. after    9 cycles
 E2 =    -0.1581580407D+00 EUMP2 =    -0.68917936697099D+01

 The electronic state is 1-AG.
 Alpha  occ. eigenvalues --   -0.89935  -0.82572  -0.70306  -0.52427  -0.49642
 Alpha  occ. eigenvalues --   -0.40877  -0.26045
 Alpha virt. eigenvalues --   -0.09892   0.13866   0.17014   0.41299   0.46922
 Alpha virt. eigenvalues --    0.70396   0.97914

 Mulliken charges:
               1
     1  H    0.039853
     2  H    0.057667
     3  H   -0.051621
     4  H   -0.028201
     5  H   -0.022562
     6  H   -0.007908
     7  H    0.012772
     8  H    0.012772
     9  H   -0.007908
    10  H   -0.022562
    11  H   -0.028201
    12  H   -0.051621
    13  H    0.057667
    14  H    0.039853
 Sum of Mulliken charges =   0.00000

 Dipole moment (field-independent basis, Debye):
    X=              0.0000    Y=              0.0000    Z=             -0.0000  Tot=              0.0000
 Quadrupole moment (field-independent basis, Debye-Ang):
   XX=            -12.2804   YY=            -24.7527   ZZ=            -17.9559
   XY=             -1.4914   XZ=              0.0000   YZ=              0.0000

 Normal termination of Gaussian 09 at Wed Feb 15 12:50:48 2017.
