 Gaussian 09, Revision E.01,
 Gaussian 09:  ES64L-G09RevE.01 30-Nov-2015

 ----------------------------------------------------------------------
 #rhf/gen scf(symm,tight,novaracc,noincfock,fulldiag) stable(crhf) gues
 s=read geom=nocrowd test
 ----------------------------------------------------------------------

 hf stability analysis of h12 triangular lattice, y= 0.6837609579800398
 9 alpha= 39.000000000000000
 ----------------------------------------------------------------------
 Symbolic Z-matrix:
 Charge =  0 Multiplicity = 1

                         Standard orientation:
 ---------------------------------------------------------------------
 Center     Atomic      Atomic             Coordinates (Angstroms)
 Number     Number       Type             X           Y           Z
 ---------------------------------------------------------------------
      1          1           0        3.188292   -0.134439   -0.000000
      2          1           0        3.188292   -1.220946   -0.000000
      3          1           0        2.125528    0.091458    0.000000
      4          1           0        2.125528   -0.995048   -0.000000
      5          1           0        1.062764    0.317356    0.000000
      6          1           0        1.062764   -0.769151   -0.000000
      7          1           0        0.000000    0.543253    0.000000
      8          1           0       -0.000000   -0.543253    0.000000
      9          1           0       -1.062764    0.769151   -0.000000
     10          1           0       -1.062764   -0.317356    0.000000
     11          1           0       -2.125528    0.995048   -0.000000
     12          1           0       -2.125528   -0.091458    0.000000
     13          1           0       -3.188292    1.220946   -0.000000
     14          1           0       -3.188292    0.134439   -0.000000
 ---------------------------------------------------------------------

 SCF Done:  E(RHF) =  -6.71069986393     A.U. after   10 cycles
 E2 =    -0.1601694558D+00 EUMP2 =    -0.68708693197104D+01

 The electronic state is 1-AG.
 Alpha  occ. eigenvalues --   -0.89563  -0.82314  -0.70232  -0.52781  -0.48490
 Alpha  occ. eigenvalues --   -0.39993  -0.25227
 Alpha virt. eigenvalues --   -0.10490   0.14631   0.15733   0.41741   0.45122
 Alpha virt. eigenvalues --    0.69088   0.91002

 Mulliken charges:
               1
     1  H    0.028979
     2  H    0.064054
     3  H   -0.084801
     4  H   -0.001379
     5  H   -0.032370
     6  H    0.015011
     7  H    0.010506
     8  H    0.010506
     9  H    0.015011
    10  H   -0.032370
    11  H   -0.001379
    12  H   -0.084801
    13  H    0.064054
    14  H    0.028979
 Sum of Mulliken charges =   0.00000

 Dipole moment (field-independent basis, Debye):
    X=              0.0000    Y=             -0.0000    Z=             -0.0000  Tot=              0.0000
 Quadrupole moment (field-independent basis, Debye-Ang):
   XX=            -13.1439   YY=            -23.6444   ZZ=            -17.9651
   XY=             -4.1466   XZ=              0.0000   YZ=              0.0000

 Normal termination of Gaussian 09 at Wed Feb 15 12:50:00 2017.
