 Gaussian 09, Revision E.01,
 Gaussian 09:  ES64L-G09RevE.01 30-Nov-2015

 ----------------------------------------------------------------------
 #rhf/gen scf(symm,tight,novaracc,noincfock,fulldiag) stable(crhf) gues
 s=read geom=nocrowd test
 ----------------------------------------------------------------------

 hf stability analysis of h12 triangular lattice, y= 0.3190649348779894
 3 alpha= 10.000000000000000
 ----------------------------------------------------------------------
 Symbolic Z-matrix:
 Charge =  0 Multiplicity = 1

                         Standard orientation:
 ---------------------------------------------------------------------
 Center     Atomic      Atomic             Coordinates (Angstroms)
 Number     Number       Type             X           Y           Z
 ---------------------------------------------------------------------
      1          1           0        1.885306   -4.261124    0.000000
      2          1           0        1.885306   -6.098546    0.000000
      3          1           0        1.256870   -2.534512    0.000000
      4          1           0        1.256870   -4.371934    0.000000
      5          1           0        0.628435   -0.807901    0.000000
      6          1           0        0.628435   -2.645322    0.000000
      7          1           0        0.000000    0.918711   -0.000000
      8          1           0       -0.000000   -0.918711    0.000000
      9          1           0       -0.628435    2.645322   -0.000000
     10          1           0       -0.628435    0.807901   -0.000000
     11          1           0       -1.256870    4.371934   -0.000000
     12          1           0       -1.256870    2.534512   -0.000000
     13          1           0       -1.885306    6.098546   -0.000000
     14          1           0       -1.885306    4.261124   -0.000000
 ---------------------------------------------------------------------

 SCF Done:  E(RHF) =  -6.98295781822     A.U. after    5 cycles
 E2 =    -0.1073692290D+01 EUMP2 =    -0.80566501080411D+01

 The electronic state is 1-AG.
 Alpha  occ. eigenvalues --   -0.73980  -0.72337  -0.69146  -0.64963  -0.60237
 Alpha  occ. eigenvalues --   -0.55759  -0.17967
 Alpha virt. eigenvalues --   -0.13796   0.33687   0.37798   0.44858   0.53722
 Alpha virt. eigenvalues --    0.62789   0.70030

 Mulliken charges:
               1
     1  H    0.006098
     2  H   -0.015754
     3  H   -0.000510
     4  H    0.007695
     5  H   -0.000192
     6  H    0.002360
     7  H    0.000304
     8  H    0.000304
     9  H    0.002360
    10  H   -0.000192
    11  H    0.007695
    12  H   -0.000510
    13  H   -0.015754
    14  H    0.006098
 Sum of Mulliken charges =  -0.00000

 Dipole moment (field-independent basis, Debye):
    X=              0.0000    Y=              0.0000    Z=              0.0000  Tot=              0.0000
 Quadrupole moment (field-independent basis, Debye-Ang):
   XX=            -17.1672   YY=            -27.1660   ZZ=            -18.3318
   XY=              3.0805   XZ=             -0.0000   YZ=              0.0000

 Normal termination of Gaussian 09 at Wed Feb 15 12:44:47 2017.
