 Gaussian 09, Revision E.01,
 Gaussian 09:  ES64L-G09RevE.01 30-Nov-2015

 ----------------------------------------------------------------------
 #rhf/gen scf(symm,tight,novaracc,noincfock,fulldiag) stable(crhf) gues
 s=read geom=nocrowd test
 ----------------------------------------------------------------------

 hf stability analysis of h12 triangular lattice, y= 0.4950461160480687
 5 alpha= 23.000000000000000
 ----------------------------------------------------------------------
 Symbolic Z-matrix:
 Charge =  0 Multiplicity = 1

                         Standard orientation:
 ---------------------------------------------------------------------
 Center     Atomic      Atomic             Coordinates (Angstroms)
 Number     Number       Type             X           Y           Z
 ---------------------------------------------------------------------
      1          1           0        2.734154   -2.006855   -0.000000
      2          1           0        2.734154   -3.273829    0.000000
      3          1           0        1.822769   -1.126741   -0.000000
      4          1           0        1.822769   -2.393715    0.000000
      5          1           0        0.911385   -0.246627   -0.000000
      6          1           0        0.911385   -1.513601    0.000000
      7          1           0        0.000000    0.633487   -0.000000
      8          1           0       -0.000000   -0.633487    0.000000
      9          1           0       -0.911385    1.513601   -0.000000
     10          1           0       -0.911385    0.246627   -0.000000
     11          1           0       -1.822769    2.393715   -0.000000
     12          1           0       -1.822769    1.126741   -0.000000
     13          1           0       -2.734154    3.273829   -0.000000
     14          1           0       -2.734154    2.006855   -0.000000
 ---------------------------------------------------------------------

 SCF Done:  E(RHF) =  -6.65348909196     A.U. after   11 cycles
 E2 =    -0.1986605717D+00 EUMP2 =    -0.68521496636642D+01

 The electronic state is 1-AG.
 Alpha  occ. eigenvalues --   -0.82483  -0.79985  -0.69428  -0.57330  -0.40963
 Alpha  occ. eigenvalues --   -0.22712  -0.19764
 Alpha virt. eigenvalues --   -0.02042   0.12513   0.13643   0.25933   0.33254
 Alpha virt. eigenvalues --    0.52525   0.66883

 Mulliken charges:
               1
     1  H    0.173774
     2  H   -0.168205
     3  H   -0.035900
     4  H    0.138219
     5  H   -0.159019
     6  H    0.036962
     7  H    0.014169
     8  H    0.014169
     9  H    0.036962
    10  H   -0.159019
    11  H    0.138219
    12  H   -0.035900
    13  H   -0.168205
    14  H    0.173774
 Sum of Mulliken charges =   0.00000

 Dipole moment (field-independent basis, Debye):
    X=              0.0000    Y=              0.0000    Z=             -0.0000  Tot=              0.0000
 Quadrupole moment (field-independent basis, Debye-Ang):
   XX=            -18.2509   YY=            -24.1229   ZZ=            -18.0625
   XY=              2.4100   XZ=             -0.0000   YZ=              0.0000

 Normal termination of Gaussian 09 at Wed Feb 15 12:47:04 2017.
