 Gaussian 09, Revision E.01,
 Gaussian 09:  ES64L-G09RevE.01 30-Nov-2015

 ----------------------------------------------------------------------
 # rhf/gen scf(tight,novaracc,noincfock,fulldiag) stable(crhf) guess=mi
 x geom=nocrowd test
 ----------------------------------------------------------------------

 scf stability calculation for a triangular configuration of 10 H atoms
  (made up of 8 iscosceles triangles)
 ----------------------------------------------------------------------
 Symbolic Z-matrix:
 Charge =  0 Multiplicity = 1

                         Standard orientation:
 ---------------------------------------------------------------------
 Center     Atomic      Atomic             Coordinates (Angstroms)
 Number     Number       Type             X           Y           Z
 ---------------------------------------------------------------------
      1          1           0        0.000000    2.490000    0.463734
      2          1           0        0.000000    2.490000    0.000000
      3          1           0        0.000000    2.490000   -0.463734
      4          1           0        0.000000    0.000000    0.695601
      5          1           0        0.000000    0.000000    0.231867
      6          1           0        0.000000    0.000000   -0.231867
      7          1           0        0.000000    0.000000   -0.695601
      8          1           0       -0.000000   -2.490000    0.463734
      9          1           0       -0.000000   -2.490000    0.000000
     10          1           0       -0.000000   -2.490000   -0.463734
 ---------------------------------------------------------------------

 SCF Done:  E(RHF) =  -2.90703064606     A.U. after   15 cycles
 E2 =    -0.2727936744D+00 EUMP2 =    -0.31798243204693D+01

 The electronic state is 1-AG.
 Alpha  occ. eigenvalues --   -1.09557  -0.94102  -0.94056  -0.53238  -0.10932
 Alpha virt. eigenvalues --    0.00076   0.62671   1.59877   1.60878   2.70357

 Mulliken charges:
               1
     1  H    0.351826
     2  H   -0.709227
     3  H    0.351826
     4  H    0.341231
     5  H   -0.335656
     6  H   -0.335656
     7  H    0.341231
     8  H    0.351826
     9  H   -0.709227
    10  H    0.351826
 Sum of Mulliken charges =   0.00000

 Dipole moment (field-independent basis, Debye):
    X=              0.0000    Y=              0.0000    Z=             -0.0000  Tot=              0.0000
 Quadrupole moment (field-independent basis, Debye-Ang):
   XX=            -12.0842   YY=            -13.1426   ZZ=            -14.9416
   XY=              0.0000   XZ=              0.0000   YZ=             -0.0000

 Normal termination of Gaussian 09 at Mon Feb  6 18:03:07 2017.
