 Gaussian 09, Revision E.01,
 Gaussian 09:  ES64L-G09RevE.01 30-Nov-2015

 -------------------------
 # opt b3lyp/6-31g(d) test
 -------------------------

 -------------------------------------------------------------
 optimization of tms using dft b3ylp in the 6-31g(d) basis set
 -------------------------------------------------------------
 Symbolic Z-matrix:
 Charge =  0 Multiplicity = 1

 SCF Done:  E(RB3LYP) =  -449.183397155     A.U. after   11 cycles
 SCF Done:  E(RB3LYP) =  -449.191055677     A.U. after   10 cycles
 SCF Done:  E(RB3LYP) =  -449.191704921     A.U. after   10 cycles
 SCF Done:  E(RB3LYP) =  -449.191712354     A.U. after    9 cycles
 SCF Done:  E(RB3LYP) =  -449.191709320     A.U. after    8 cycles
 SCF Done:  E(RB3LYP) =  -449.191699717     A.U. after    7 cycles
 SCF Done:  E(RB3LYP) =  -449.191690060     A.U. after    6 cycles
 SCF Done:  E(RB3LYP) =  -449.191690797     A.U. after    6 cycles
 Optimization completed.
    -- Stationary point found.

                         Standard orientation:
 ---------------------------------------------------------------------
 Center     Atomic      Atomic             Coordinates (Angstroms)
 Number     Number       Type             X           Y           Z
 ---------------------------------------------------------------------
      1         14           0        0.000112   -0.000029   -0.000276
      2          6           0        0.062647   -1.723156    0.787856
      3          6           0        1.642519    0.352700   -0.879447
      4          6           0       -1.418351    0.069060   -1.256397
      5          1           0       -1.486989    1.056679   -1.728716
      6          1           0       -2.384799   -0.135875   -0.779733
      7          1           0       -1.282197   -0.669597   -2.055809
      8          1           0       -0.876219   -1.962124    1.302300
      9          1           0        0.233043   -2.502245    0.034702
     10          1           0        0.870591   -1.796490    1.526117
     11          1           0        1.839992   -0.382681   -1.669021
     12          1           0        1.641943    1.345211   -1.346487
     13          1           0        2.486309    0.318751   -0.179378
     14          6           0       -0.286925    1.301397    1.348174
     15          1           0        0.517916    1.290124    2.093389
     16          1           0       -0.330192    2.312782    0.925708
     17          1           0       -1.230305    1.125866    1.879673
 ---------------------------------------------------------------------

 The electronic state is 1-A.
 Alpha  occ. eigenvalues --  -66.11141 -10.15503 -10.15502 -10.15501 -10.15500
 Alpha  occ. eigenvalues --   -5.25592  -3.61463  -3.61463  -3.61463  -0.71110
 Alpha  occ. eigenvalues --   -0.66956  -0.66954  -0.66952  -0.45061  -0.40563
 Alpha  occ. eigenvalues --   -0.40559  -0.40559  -0.39078  -0.39075  -0.37380
 Alpha  occ. eigenvalues --   -0.37380  -0.37379  -0.28872  -0.28871  -0.28870
 Alpha virt. eigenvalues --    0.07523   0.10290   0.10293   0.10297   0.14036
 Alpha virt. eigenvalues --    0.14040   0.14041   0.15124   0.15126   0.20266
 Alpha virt. eigenvalues --    0.20269   0.20271   0.20609   0.20613   0.20617

 Mulliken charges:
               1
     1  Si   0.738656
     2  C   -0.654586
     3  C   -0.654605
     4  C   -0.654662
     5  H    0.156659
     6  H    0.156675
     7  H    0.156661
     8  H    0.156656
     9  H    0.156660
    10  H    0.156664
    11  H    0.156636
    12  H    0.156650
    13  H    0.156660
    14  C   -0.654597
    15  H    0.156628
    16  H    0.156613
    17  H    0.156633
 Sum of Mulliken charges =  -0.00000

 Dipole moment (field-independent basis, Debye):
    X=              0.0001    Y=              0.0001    Z=             -0.0004  Tot=              0.0004
 Quadrupole moment (field-independent basis, Debye-Ang):
   XX=            -41.5665   YY=            -41.5669   ZZ=            -41.5675
   XY=              0.0004   XZ=             -0.0003   YZ=             -0.0002

 Normal termination of Gaussian 09 at Wed Nov 30 13:33:28 2016.
