 Gaussian 09, Revision E.01,
 Gaussian 09:  ES64L-G09RevE.01 30-Nov-2015

 --------------------------------------------------
 # nmr rhf/6-311+g(2d,p) geom=check guess=read test
 --------------------------------------------------

 nmr calculation for the molecule in nmr.chk using rhf with the 6-311+g
 (2d,p) basis
 ----------------------------------------------------------------------
 Structure from the checkpoint file:  "nmr.chk"
 Charge =  0 Multiplicity = 1

                         Standard orientation:
 ---------------------------------------------------------------------
 Center     Atomic      Atomic             Coordinates (Angstroms)
 Number     Number       Type             X           Y           Z
 ---------------------------------------------------------------------
      1          6           0       -1.062898   -0.905817    0.000005
      2          6           0        0.253152   -1.373270    0.000068
      3          6           0        1.315953   -0.467562   -0.000055
      4          6           0        1.062822    0.905905    0.000008
      5          6           0       -0.253036    1.373289    0.000061
      6          6           0       -1.315993    0.467456   -0.000057
      7          1           0       -1.889837   -1.610853   -0.000066
      8          1           0        0.449947   -2.442019    0.000078
      9          1           0        2.339967   -0.831273   -0.000154
     10          1           0        1.889932    1.610729    0.000007
     11          1           0       -0.450078    2.441985    0.000018
     12          1           0       -2.339925    0.831423   -0.000063
 ---------------------------------------------------------------------

 SCF Done:  E(RHF) =  -230.763180222     A.U. after   10 cycles

      1  C    Isotropic =    57.6589   Anisotropy =   194.4098

      2  C    Isotropic =    57.6634   Anisotropy =   194.4009

      3  C    Isotropic =    57.6613   Anisotropy =   194.4087

      4  C    Isotropic =    57.6600   Anisotropy =   194.4096

      5  C    Isotropic =    57.6647   Anisotropy =   194.4011

      6  C    Isotropic =    57.6616   Anisotropy =   194.4072

      7  H    Isotropic =    24.3565   Anisotropy =     5.3255

      8  H    Isotropic =    24.3570   Anisotropy =     5.3254

      9  H    Isotropic =    24.3565   Anisotropy =     5.3253

     10  H    Isotropic =    24.3566   Anisotropy =     5.3255

     11  H    Isotropic =    24.3572   Anisotropy =     5.3255

     12  H    Isotropic =    24.3563   Anisotropy =     5.3252

 The electronic state is 1-A.
 Alpha  occ. eigenvalues --  -11.23806 -11.23749 -11.23749 -11.23626 -11.23626
 Alpha  occ. eigenvalues --  -11.23566  -1.14981  -1.01466  -1.01465  -0.82403
 Alpha  occ. eigenvalues --   -0.82401  -0.70871  -0.64372  -0.62013  -0.58819
 Alpha  occ. eigenvalues --   -0.58815  -0.50053  -0.49580  -0.49576  -0.33567
 Alpha  occ. eigenvalues --   -0.33565
 Alpha virt. eigenvalues --    0.07016   0.07906   0.07906   0.09756   0.09756
 Alpha virt. eigenvalues --    0.10877   0.10879   0.12421   0.12955   0.15226
 Alpha virt. eigenvalues --    0.15227   0.16220   0.16444   0.19585   0.19586

 Mulliken charges:
               1
     1  C   -0.100692
     2  C   -0.100534
     3  C   -0.100729
     4  C   -0.100698
     5  C   -0.100521
     6  C   -0.100747
     7  H    0.100659
     8  H    0.100644
     9  H    0.100658
    10  H    0.100657
    11  H    0.100642
    12  H    0.100661
 Sum of Mulliken charges =  -0.00000

 Dipole moment (field-independent basis, Debye):
    X=              0.0000    Y=              0.0000    Z=             -0.0002  Tot=              0.0002
 Quadrupole moment (field-independent basis, Debye-Ang):
   XX=            -31.8238   YY=            -31.8259   ZZ=            -41.3277
   XY=              0.0001   XZ=             -0.0001   YZ=              0.0001

 Normal termination of Gaussian 09 at Wed Nov 30 13:30:49 2016.
