 Gaussian 09, Revision E.01,
 Gaussian 09:  ES64L-G09RevE.01 30-Nov-2015

 --------------------------------------------------
 # nmr rhf/6-311+g(2d,p) geom=check guess=read test
 --------------------------------------------------

 nmr calculation for the molecule in nmr.chk using rhf with the 6-311+g
 (2d,p) basis
 ----------------------------------------------------------------------
 Structure from the checkpoint file:  "nmr.chk"
 Charge =  0 Multiplicity = 1

                         Standard orientation:
 ---------------------------------------------------------------------
 Center     Atomic      Atomic             Coordinates (Angstroms)
 Number     Number       Type             X           Y           Z
 ---------------------------------------------------------------------
      1         14           0        0.000112   -0.000029   -0.000276
      2          6           0        0.062647   -1.723156    0.787856
      3          6           0        1.642519    0.352700   -0.879447
      4          6           0       -1.418351    0.069060   -1.256397
      5          1           0       -1.486989    1.056679   -1.728716
      6          1           0       -2.384799   -0.135875   -0.779733
      7          1           0       -1.282197   -0.669597   -2.055809
      8          1           0       -0.876219   -1.962124    1.302300
      9          1           0        0.233043   -2.502245    0.034702
     10          1           0        0.870591   -1.796490    1.526117
     11          1           0        1.839992   -0.382681   -1.669021
     12          1           0        1.641943    1.345211   -1.346487
     13          1           0        2.486309    0.318751   -0.179378
     14          6           0       -0.286925    1.301397    1.348174
     15          1           0        0.517916    1.290124    2.093389
     16          1           0       -0.330192    2.312782    0.925708
     17          1           0       -1.230305    1.125866    1.879673
 ---------------------------------------------------------------------

 SCF Done:  E(RHF) =  -447.489958616     A.U. after    9 cycles

      1  Si   Isotropic =   385.9161   Anisotropy =     0.0913

      2  C    Isotropic =   192.6078   Anisotropy =     5.4267

      3  C    Isotropic =   192.6155   Anisotropy =     5.4252

      4  C    Isotropic =   192.6112   Anisotropy =     5.4245

      5  H    Isotropic =    32.0728   Anisotropy =     9.8997

      6  H    Isotropic =    32.0733   Anisotropy =     9.8937

      7  H    Isotropic =    32.0713   Anisotropy =     9.9028

      8  H    Isotropic =    32.0736   Anisotropy =     9.8981

      9  H    Isotropic =    32.0709   Anisotropy =     9.8982

     10  H    Isotropic =    32.0733   Anisotropy =     9.8978

     11  H    Isotropic =    32.0732   Anisotropy =     9.9041

     12  H    Isotropic =    32.0714   Anisotropy =     9.9010

     13  H    Isotropic =    32.0723   Anisotropy =     9.8943

     14  C    Isotropic =   192.6039   Anisotropy =     5.4334

     15  H    Isotropic =    32.0730   Anisotropy =     9.8997

     16  H    Isotropic =    32.0729   Anisotropy =     9.8990

     17  H    Isotropic =    32.0715   Anisotropy =     9.8949

 The electronic state is 1-A.
 Alpha  occ. eigenvalues --  -68.75252 -11.19569 -11.19567 -11.19566 -11.19565
 Alpha  occ. eigenvalues --   -6.09728  -4.20442  -4.20442  -4.20442  -0.96883
 Alpha  occ. eigenvalues --   -0.91724  -0.91722  -0.91720  -0.62173  -0.56285
 Alpha  occ. eigenvalues --   -0.56281  -0.56281  -0.54511  -0.54508  -0.52503
 Alpha  occ. eigenvalues --   -0.52503  -0.52501  -0.42277  -0.42276  -0.42274
 Alpha virt. eigenvalues --    0.05068   0.07383   0.07383   0.07384   0.11609
 Alpha virt. eigenvalues --    0.11609   0.11610   0.12953   0.12954   0.14781
 Alpha virt. eigenvalues --    0.15612   0.15612   0.15613   0.18218   0.18221

 Mulliken charges:
               1
     1  Si   1.257102
     2  C   -0.688430
     3  C   -0.688251
     4  C   -0.688317
     5  H    0.124697
     6  H    0.124709
     7  H    0.124684
     8  H    0.124705
     9  H    0.124703
    10  H    0.124703
    11  H    0.124691
    12  H    0.124682
    13  H    0.124702
    14  C   -0.688479
    15  H    0.124698
    16  H    0.124707
    17  H    0.124695
 Sum of Mulliken charges =  -0.00000

 Dipole moment (field-independent basis, Debye):
    X=              0.0004    Y=             -0.0001    Z=             -0.0006  Tot=              0.0007
 Quadrupole moment (field-independent basis, Debye-Ang):
   XX=            -43.1138   YY=            -43.1133   ZZ=            -43.1125
   XY=              0.0006   XZ=             -0.0004   YZ=              0.0001

 Normal termination of Gaussian 09 at Wed Nov 30 13:36:44 2016.
