 Gaussian 09, Revision E.01,
 Gaussian 09:  ES64L-G09RevE.01 30-Nov-2015

 ----------------------------------------------------------------------
 #rhf/gen scf(symm,tight,novaracc,noincfock,fulldiag) stable(crhf) gues
 s=read geom=nocrowd test
 ----------------------------------------------------------------------

 hf stability analysis of h10 triangular lattice, y= 0.7084369783301545
 1
 ----------------------------------------------------------------------
 Symbolic Z-matrix:
 Charge =  0 Multiplicity = 1

                         Standard orientation:
 ---------------------------------------------------------------------
 Center     Atomic      Atomic             Coordinates (Angstroms)
 Number     Number       Type             X           Y           Z
 ---------------------------------------------------------------------
      1          1           0        1.069328    1.469472   -0.000000
      2          1           0        0.000000    1.619756   -0.000000
      3          1           0        1.069328    0.389634   -0.000000
      4          1           0        0.000000    0.539919   -0.000000
      5          1           0       -1.069328    1.770040    0.000000
      6          1           0       -1.069328    0.690203    0.000000
      7          1           0       -1.069328   -0.389634    0.000000
      8          1           0       -0.000000   -0.539919   -0.000000
      9          1           0        1.069328   -0.690203   -0.000000
     10          1           0        1.069328   -1.770040   -0.000000
     11          1           0       -0.000000   -1.619756   -0.000000
     12          1           0       -1.069328   -1.469472   -0.000000
 ---------------------------------------------------------------------

 SCF Done:  E(RHF) =  -5.84043482141     A.U. after    8 cycles
 E2 =    -0.1386883084D+00 EUMP2 =    -0.59791231297643D+01

 The electronic state is 1-AG.
 Alpha  occ. eigenvalues --   -0.93489  -0.75553  -0.65804  -0.48383  -0.42510
 Alpha  occ. eigenvalues --   -0.26119
 Alpha virt. eigenvalues --    0.03831   0.18795   0.21637   0.47027   0.60739
 Alpha virt. eigenvalues --    0.96852

 Mulliken charges:
               1
     1  H    0.009784
     2  H   -0.057762
     3  H   -0.005601
     4  H   -0.051791
     5  H    0.123201
     6  H   -0.017832
     7  H   -0.005601
     8  H   -0.051791
     9  H   -0.017832
    10  H    0.123201
    11  H   -0.057762
    12  H    0.009784
 Sum of Mulliken charges =  -0.00000

 Dipole moment (field-independent basis, Debye):
    X=             -0.0000    Y=              0.0000    Z=              0.0000  Tot=              0.0000
 Quadrupole moment (field-independent basis, Debye-Ang):
   XX=            -19.4247   YY=            -14.4823   ZZ=            -15.1965
   XY=             -2.4136   XZ=              0.0000   YZ=              0.0000

 Normal termination of Gaussian 09 at Fri Feb 10 14:38:52 2017.
