 Gaussian 09, Revision E.01,
 Gaussian 09:  ES64L-G09RevE.01 30-Nov-2015

 ----------------------------------------------------------------------
 #rhf/gen scf(symm,tight,novaracc,noincfock,fulldiag) stable(crhf) gues
 s=read geom=nocrowd test
 ----------------------------------------------------------------------

 ----------------------------------------------------------------------
 hf stability analysis of h10 triangular lattice, y= 1.0205721581109972
 ----------------------------------------------------------------------
 Symbolic Z-matrix:
 Charge =  0 Multiplicity = 1

                         Standard orientation:
 ---------------------------------------------------------------------
 Center     Atomic      Atomic             Coordinates (Angstroms)
 Number     Number       Type             X           Y           Z
 ---------------------------------------------------------------------
      1          1           0        0.989566    2.368663   -0.000000
      2          1           0        0.000000    1.750313   -0.000000
      3          1           0        0.989566    1.201787   -0.000000
      4          1           0        0.000000    0.583438   -0.000000
      5          1           0       -0.989566    1.131963   -0.000000
      6          1           0       -0.989566   -0.034912    0.000000
      7          1           0       -0.989566   -1.201787    0.000000
      8          1           0       -0.000000   -0.583438    0.000000
      9          1           0        0.989566    0.034912    0.000000
     10          1           0        0.989566   -1.131963    0.000000
     11          1           0       -0.000000   -1.750313    0.000000
     12          1           0       -0.989566   -2.368663    0.000000
 ---------------------------------------------------------------------

 SCF Done:  E(RHF) =  -5.52247867584     A.U. after   11 cycles
 E2 =    -0.1778316627D+00 EUMP2 =    -0.57003103385112D+01

 The electronic state is 1-AG.
 Alpha  occ. eigenvalues --   -0.89221  -0.75250  -0.56446  -0.54308  -0.31732
 Alpha  occ. eigenvalues --   -0.10873
 Alpha virt. eigenvalues --   -0.09653   0.20903   0.22346   0.44284   0.56223
 Alpha virt. eigenvalues --    0.63452

 Mulliken charges:
               1
     1  H    0.277229
     2  H   -0.068400
     3  H   -0.008319
     4  H   -0.018883
     5  H   -0.178673
     6  H   -0.002955
     7  H   -0.008319
     8  H   -0.018883
     9  H   -0.002955
    10  H   -0.178673
    11  H   -0.068400
    12  H    0.277229
 Sum of Mulliken charges =  -0.00000

 Dipole moment (field-independent basis, Debye):
    X=             -0.0000    Y=              0.0000    Z=             -0.0000  Tot=              0.0000
 Quadrupole moment (field-independent basis, Debye-Ang):
   XX=            -20.5374   YY=             -4.9359   ZZ=            -15.1758
   XY=              9.5189   XZ=             -0.0000   YZ=             -0.0000

 Normal termination of Gaussian 09 at Fri Feb 10 14:39:42 2017.
