 Gaussian 09, Revision E.01,
 Gaussian 09:  ES64L-G09RevE.01 30-Nov-2015

 ----------------------------------------------------------------------
 #rhf/gen scf(symm,tight,novaracc,noincfock,fulldiag) stable(crhf) gues
 s=read geom=nocrowd test
 ----------------------------------------------------------------------

 ----------------------------------------------------------------------
 hf stability analysis of h10 triangular lattice, y= 1.5813852119866876
 ----------------------------------------------------------------------
 Symbolic Z-matrix:
 Charge =  0 Multiplicity = 1

                         Standard orientation:
 ---------------------------------------------------------------------
 Center     Atomic      Atomic             Coordinates (Angstroms)
 Number     Number       Type             X           Y           Z
 ---------------------------------------------------------------------
      1          1           0        0.711469    3.893200   -0.000000
      2          1           0        0.000000    2.434473   -0.000000
      3          1           0        0.711469    2.270218   -0.000000
      4          1           0        0.000000    0.811491   -0.000000
      5          1           0       -0.711469    0.975747    0.000000
      6          1           0       -0.711469   -0.647236    0.000000
      7          1           0       -0.711469   -2.270218   -0.000000
      8          1           0       -0.000000   -0.811491    0.000000
      9          1           0        0.711469    0.647236    0.000000
     10          1           0        0.711469   -0.975747    0.000000
     11          1           0       -0.000000   -2.434473    0.000000
     12          1           0       -0.711469   -3.893200    0.000000
 ---------------------------------------------------------------------

 SCF Done:  E(RHF) =  -5.40765764724     A.U. after    9 cycles
 E2 =    -0.6641457805D+00 EUMP2 =    -0.60718034277371D+01

 The electronic state is 1-AG.
 Alpha  occ. eigenvalues --   -0.88100  -0.78287  -0.62736  -0.57973  -0.22997
 Alpha  occ. eigenvalues --   -0.15541
 Alpha virt. eigenvalues --   -0.14613  -0.08020   0.44655   0.47648   0.72313
 Alpha virt. eigenvalues --    0.91997

 Mulliken charges:
               1
     1  H   -0.062182
     2  H    0.013779
     3  H   -0.028021
     4  H   -0.227010
     5  H    0.089602
     6  H    0.213833
     7  H   -0.028021
     8  H   -0.227010
     9  H    0.213833
    10  H    0.089602
    11  H    0.013779
    12  H   -0.062182
 Sum of Mulliken charges =   0.00000

 Dipole moment (field-independent basis, Debye):
    X=             -0.0000    Y=              0.0000    Z=              0.0000  Tot=              0.0000
 Quadrupole moment (field-independent basis, Debye-Ang):
   XX=            -14.2310   YY=            -31.2562   ZZ=            -14.8688
   XY=             -2.3651   XZ=              0.0000   YZ=              0.0000

 Normal termination of Gaussian 09 at Fri Feb 10 14:40:18 2017.
