 Gaussian 09, Revision E.01,
 Gaussian 09:  ES64L-G09RevE.01 30-Nov-2015

 ----------------------------------------------------------------------
 #rhf/gen scf(symm,tight,novaracc,noincfock,fulldiag) stable(crhf) gues
 s=read geom=nocrowd test
 ----------------------------------------------------------------------

 hf stability analysis of h10 triangular lattice, y= 0.3650915174764740
 0
 ----------------------------------------------------------------------
 Symbolic Z-matrix:
 Charge =  0 Multiplicity = 1

                         Standard orientation:
 ---------------------------------------------------------------------
 Center     Atomic      Atomic             Coordinates (Angstroms)
 Number     Number       Type             X           Y           Z
 ---------------------------------------------------------------------
      1          1           0        0.711468    0.975746    0.000000
      2          1           0        0.000000    2.434473    0.000000
      3          1           0        0.711468   -0.647236    0.000000
      4          1           0        0.000000    0.811491    0.000000
      5          1           0       -0.711468    3.893200    0.000000
      6          1           0       -0.711468    2.270218    0.000000
      7          1           0       -0.711468    0.647236    0.000000
      8          1           0        0.000000   -0.811491    0.000000
      9          1           0        0.711468   -2.270218    0.000000
     10          1           0        0.711468   -3.893200    0.000000
     11          1           0        0.000000   -2.434473    0.000000
     12          1           0       -0.711468   -0.975746    0.000000
 ---------------------------------------------------------------------

 SCF Done:  E(RHF) =  -5.40765743824     A.U. after    9 cycles
 E2 =    -0.6641457298D+00 EUMP2 =    -0.60718031680174D+01

 The electronic state is 1-AG.
 Alpha  occ. eigenvalues --   -0.88100  -0.78287  -0.62736  -0.57973  -0.22997
 Alpha  occ. eigenvalues --   -0.15541
 Alpha virt. eigenvalues --   -0.14613  -0.08020   0.44655   0.47648   0.72313
 Alpha virt. eigenvalues --    0.91997

 Mulliken charges:
               1
     1  H    0.089602
     2  H    0.013779
     3  H    0.213833
     4  H   -0.227011
     5  H   -0.062182
     6  H   -0.028021
     7  H    0.213833
     8  H   -0.227011
     9  H   -0.028021
    10  H   -0.062182
    11  H    0.013779
    12  H    0.089602
 Sum of Mulliken charges =  -0.00000

 Dipole moment (field-independent basis, Debye):
    X=              0.0000    Y=              0.0000    Z=             -0.0000  Tot=              0.0000
 Quadrupole moment (field-independent basis, Debye-Ang):
   XX=            -14.2310   YY=            -31.2562   ZZ=            -14.8688
   XY=              2.3651   XZ=             -0.0000   YZ=              0.0000

 Normal termination of Gaussian 09 at Fri Feb 10 14:37:45 2017.
