 Gaussian 09, Revision E.01,
 Gaussian 09:  ES64L-G09RevE.01 30-Nov-2015

 ----------------------------------------------------------------------
 #rhf/gen scf(symm,tight,novaracc,noincfock,fulldiag) stable(crhf) gues
 s=read geom=nocrowd test
 ----------------------------------------------------------------------

 ----------------------------------------------------------------------
 hf stability analysis of h10 triangular lattice, y= 2.1684423371644423
 ----------------------------------------------------------------------
 Symbolic Z-matrix:
 Charge =  0 Multiplicity = 1

                         Standard orientation:
 ---------------------------------------------------------------------
 Center     Atomic      Atomic             Coordinates (Angstroms)
 Number     Number       Type             X           Y           Z
 ---------------------------------------------------------------------
      1          1           0        0.528533    5.396922   -0.000000
      2          1           0        0.000000    3.277090    0.000000
      3          1           0        0.528533    3.212195   -0.000000
      4          1           0        0.000000    1.092363    0.000000
      5          1           0       -0.528533    1.157259    0.000000
      6          1           0       -0.528533   -1.027468    0.000000
      7          1           0       -0.528533   -3.212195    0.000000
      8          1           0       -0.000000   -1.092363    0.000000
      9          1           0        0.528533    1.027468   -0.000000
     10          1           0        0.528533   -1.157259    0.000000
     11          1           0       -0.000000   -3.277090    0.000000
     12          1           0       -0.528533   -5.396922    0.000000
 ---------------------------------------------------------------------

 SCF Done:  E(RHF) =  -4.78676657754     A.U. after    8 cycles
 E2 =    -0.1007503347D+01 EUMP2 =    -0.57942699247013D+01

 The electronic state is 1-AG.
 Alpha  occ. eigenvalues --   -0.89362  -0.87816  -0.69927  -0.69834  -0.20231
 Alpha  occ. eigenvalues --   -0.15444
 Alpha virt. eigenvalues --   -0.15338  -0.01874   0.58836   0.59064   1.28905
 Alpha virt. eigenvalues --    1.40734

 Mulliken charges:
               1
     1  H    0.000122
     2  H   -0.002937
     3  H   -0.006579
     4  H   -0.485342
     5  H    0.244277
     6  H    0.250459
     7  H   -0.006579
     8  H   -0.485342
     9  H    0.250459
    10  H    0.244277
    11  H   -0.002937
    12  H    0.000122
 Sum of Mulliken charges =   0.00000

 Dipole moment (field-independent basis, Debye):
    X=              0.0000    Y=              0.0000    Z=              0.0000  Tot=              0.0000
 Quadrupole moment (field-independent basis, Debye-Ang):
   XX=            -15.5533   YY=            -19.6681   ZZ=            -15.1867
   XY=             -0.0967   XZ=              0.0000   YZ=              0.0000

 Normal termination of Gaussian 09 at Fri Feb 10 14:40:32 2017.
