 Gaussian 09, Revision E.01,
 Gaussian 09:  ES64L-G09RevE.01 30-Nov-2015

 ----------------------------------------------------------------------
 #rhf/gen scf(symm,tight,novaracc,noincfock,fulldiag) stable(crhf) gues
 s=read geom=nocrowd test
 ----------------------------------------------------------------------

 ----------------------------------------------------------------------
 hf stability analysis of h10 triangular lattice, y= 1.4678899319530556
 ----------------------------------------------------------------------
 Symbolic Z-matrix:
 Charge =  0 Multiplicity = 1

                         Standard orientation:
 ---------------------------------------------------------------------
 Center     Atomic      Atomic             Coordinates (Angstroms)
 Number     Number       Type             X           Y           Z
 ---------------------------------------------------------------------
      1          1           0        0.759836    3.595581    0.000000
      2          1           0        0.000000    2.279507    0.000000
      3          1           0        0.759836    2.075910    0.000000
      4          1           0        0.000000    0.759836    0.000000
      5          1           0       -0.759836    0.963433   -0.000000
      6          1           0       -0.759836   -0.556238   -0.000000
      7          1           0       -0.759836   -2.075910   -0.000000
      8          1           0       -0.000000   -0.759836    0.000000
      9          1           0        0.759836    0.556238    0.000000
     10          1           0        0.759836   -0.963433    0.000000
     11          1           0       -0.000000   -2.279507    0.000000
     12          1           0       -0.759836   -3.595581   -0.000000
 ---------------------------------------------------------------------

 SCF Done:  E(RHF) =  -5.39868468237     A.U. after   10 cycles
 E2 =    -0.6272984097D+00 EUMP2 =    -0.60259830920911D+01

 The electronic state is 1-AG.
 Alpha  occ. eigenvalues --   -0.90015  -0.78106  -0.61224  -0.53878  -0.25695
 Alpha  occ. eigenvalues --   -0.13087
 Alpha virt. eigenvalues --   -0.18970  -0.04059   0.40884   0.45344   0.60066
 Alpha virt. eigenvalues --    0.80663

 Mulliken charges:
               1
     1  H   -0.109719
     2  H    0.041942
     3  H   -0.044506
     4  H   -0.200663
     5  H    0.043558
     6  H    0.269387
     7  H   -0.044506
     8  H   -0.200663
     9  H    0.269387
    10  H    0.043558
    11  H    0.041942
    12  H   -0.109719
 Sum of Mulliken charges =   0.00000

 Dipole moment (field-independent basis, Debye):
    X=              0.0000    Y=             -0.0000    Z=              0.0000  Tot=              0.0000
 Quadrupole moment (field-independent basis, Debye-Ang):
   XX=            -14.2263   YY=            -35.5282   ZZ=            -14.8109
   XY=             -3.7069   XZ=              0.0000   YZ=             -0.0000

 Normal termination of Gaussian 09 at Fri Feb 10 14:40:14 2017.
