 Gaussian 09, Revision E.01,
 Gaussian 09:  ES64L-G09RevE.01 30-Nov-2015

 ----------------------------------------------------------------------
 #rhf/gen scf(symm,tight,novaracc,noincfock,fulldiag) stable(crhf) gues
 s=read geom=nocrowd test
 ----------------------------------------------------------------------

 hf stability analysis of h10 triangular lattice, y= 0.5773502789032680
 7
 ----------------------------------------------------------------------
 Symbolic Z-matrix:
 Charge =  0 Multiplicity = 1

                         Standard orientation:
 ---------------------------------------------------------------------
 Center     Atomic      Atomic             Coordinates (Angstroms)
 Number     Number       Type             X           Y           Z
 ---------------------------------------------------------------------
      1          1           0        1.000000    1.154701   -0.000000
      2          1           0        0.000000    1.732051    0.000000
      3          1           0        1.000000    0.000000   -0.000000
      4          1           0        0.000000    0.577350    0.000000
      5          1           0       -1.000000    2.309401    0.000000
      6          1           0       -1.000000    1.154701    0.000000
      7          1           0       -1.000000    0.000000   -0.000000
      8          1           0       -0.000000   -0.577350   -0.000000
      9          1           0        1.000000   -1.154701    0.000000
     10          1           0        1.000000   -2.309401    0.000000
     11          1           0       -0.000000   -1.732051   -0.000000
     12          1           0       -1.000000   -1.154701   -0.000000
 ---------------------------------------------------------------------

 SCF Done:  E(RHF) =  -5.56910296415     A.U. after   11 cycles
 E2 =    -0.1576278591D+00 EUMP2 =    -0.57267308232495D+01

 The electronic state is 1-AG.
 Alpha  occ. eigenvalues --   -0.89663  -0.75351  -0.57534  -0.53968  -0.32819
 Alpha  occ. eigenvalues --   -0.12847
 Alpha virt. eigenvalues --   -0.08545   0.21923   0.23049   0.42484   0.59903
 Alpha virt. eigenvalues --    0.64059

 Mulliken charges:
               1
     1  H   -0.161679
     2  H   -0.064267
     3  H    0.001987
     4  H   -0.028140
     5  H    0.267508
     6  H   -0.015408
     7  H    0.001987
     8  H   -0.028140
     9  H   -0.015408
    10  H    0.267508
    11  H   -0.064267
    12  H   -0.161679
 Sum of Mulliken charges =   0.00000

 Dipole moment (field-independent basis, Debye):
    X=              0.0000    Y=              0.0000    Z=              0.0000  Tot=              0.0000
 Quadrupole moment (field-independent basis, Debye-Ang):
   XX=            -20.4112   YY=             -6.1085   ZZ=            -15.1808
   XY=             -8.9719   XZ=             -0.0000   YZ=              0.0000

 Normal termination of Gaussian 09 at Fri Feb 10 14:38:25 2017.
