 Gaussian 09, Revision E.01,
 Gaussian 09:  ES64L-G09RevE.01 30-Nov-2015

 ----------------------------------------------------------------------
 #rhf/gen scf(symm,tight,novaracc,noincfock,fulldiag) stable(crhf) gues
 s=read geom=nocrowd test
 ----------------------------------------------------------------------

 ----------------------------------------------------------------------
 hf stability analysis of h10 triangular lattice, y= 2.0268354180156947
 ----------------------------------------------------------------------
 Symbolic Z-matrix:
 Charge =  0 Multiplicity = 1

                         Standard orientation:
 ---------------------------------------------------------------------
 Center     Atomic      Atomic             Coordinates (Angstroms)
 Number     Number       Type             X           Y           Z
 ---------------------------------------------------------------------
      1          1           0        0.564162    5.037598    0.000000
      2          1           0        0.000000    3.070131   -0.000000
      3          1           0        0.564162    2.990844    0.000000
      4          1           0        0.000000    1.023377   -0.000000
      5          1           0       -0.564162    1.102665   -0.000000
      6          1           0       -0.564162   -0.944089   -0.000000
      7          1           0       -0.564162   -2.990844    0.000000
      8          1           0       -0.000000   -1.023377   -0.000000
      9          1           0        0.564162    0.944089   -0.000000
     10          1           0        0.564162   -1.102665   -0.000000
     11          1           0       -0.000000   -3.070131   -0.000000
     12          1           0       -0.564162   -5.037598   -0.000000
 ---------------------------------------------------------------------

 SCF Done:  E(RHF) =  -5.01252559009     A.U. after    8 cycles
 E2 =    -0.9362903280D+00 EUMP2 =    -0.59488159181008D+01

 The electronic state is 1-AG.
 Alpha  occ. eigenvalues --   -0.88058  -0.84914  -0.68456  -0.68143  -0.19849
 Alpha  occ. eigenvalues --   -0.16865
 Alpha virt. eigenvalues --   -0.14592  -0.04027   0.55786   0.56223   1.16057
 Alpha virt. eigenvalues --    1.29706

 Mulliken charges:
               1
     1  H   -0.002680
     2  H   -0.003211
     3  H   -0.009301
     4  H   -0.405324
     5  H    0.202515
     6  H    0.218002
     7  H   -0.009301
     8  H   -0.405324
     9  H    0.218002
    10  H    0.202515
    11  H   -0.003211
    12  H   -0.002680
 Sum of Mulliken charges =   0.00000

 Dipole moment (field-independent basis, Debye):
    X=              0.0000    Y=              0.0000    Z=             -0.0000  Tot=              0.0000
 Quadrupole moment (field-independent basis, Debye-Ang):
   XX=            -15.2637   YY=            -21.1294   ZZ=            -15.1290
   XY=             -0.2677   XZ=             -0.0000   YZ=             -0.0000

 Normal termination of Gaussian 09 at Fri Feb 10 14:40:30 2017.
