 Gaussian 09, Revision E.01,
 Gaussian 09:  ES64L-G09RevE.01 30-Nov-2015

 ----------------------------------------------------------------------
 #rhf/gen scf(symm,tight,novaracc,noincfock,fulldiag) stable(crhf) gues
 s=read geom=nocrowd test
 ----------------------------------------------------------------------

 hf stability analysis of h10 triangular lattice, y= 0.6358183901871248
 3
 ----------------------------------------------------------------------
 Symbolic Z-matrix:
 Charge =  0 Multiplicity = 1

                         Standard orientation:
 ---------------------------------------------------------------------
 Center     Atomic      Atomic             Coordinates (Angstroms)
 Number     Number       Type             X           Y           Z
 ---------------------------------------------------------------------
      1          1           0        1.041664    1.283639    0.000000
      2          1           0        0.000000    1.662773    0.000000
      3          1           0        1.041664    0.175123    0.000000
      4          1           0        0.000000    0.554258    0.000000
      5          1           0       -1.041664    2.041908    0.000000
      6          1           0       -1.041664    0.933392   -0.000000
      7          1           0       -1.041664   -0.175123    0.000000
      8          1           0       -0.000000   -0.554258    0.000000
      9          1           0        1.041664   -0.933392    0.000000
     10          1           0        1.041664   -2.041908    0.000000
     11          1           0       -0.000000   -1.662773    0.000000
     12          1           0       -1.041664   -1.283639    0.000000
 ---------------------------------------------------------------------

 SCF Done:  E(RHF) =  -5.74077390542     A.U. after    9 cycles
 E2 =    -0.1436696668D+00 EUMP2 =    -0.58844435722224D+01

 The electronic state is 1-AG.
 Alpha  occ. eigenvalues --   -0.91919  -0.75678  -0.62288  -0.51822  -0.37577
 Alpha  occ. eigenvalues --   -0.20836
 Alpha virt. eigenvalues --   -0.03018   0.20070   0.32047   0.34123   0.64871
 Alpha virt. eigenvalues --    0.79138

 Mulliken charges:
               1
     1  H   -0.080186
     2  H   -0.058749
     3  H    0.002279
     4  H   -0.044546
     5  H    0.204209
     6  H   -0.023007
     7  H    0.002279
     8  H   -0.044546
     9  H   -0.023007
    10  H    0.204209
    11  H   -0.058749
    12  H   -0.080186
 Sum of Mulliken charges =   0.00000

 Dipole moment (field-independent basis, Debye):
    X=              0.0000    Y=              0.0000    Z=              0.0000  Tot=              0.0000
 Quadrupole moment (field-independent basis, Debye-Ang):
   XX=            -19.8374   YY=            -11.2205   ZZ=            -15.1922
   XY=             -6.0065   XZ=              0.0000   YZ=             -0.0000

 Normal termination of Gaussian 09 at Fri Feb 10 14:38:37 2017.
