 Gaussian 09, Revision E.01,
 Gaussian 09:  ES64L-G09RevE.01 30-Nov-2015

 ----------------------------------------------------------------------
 #rhf/gen scf(symm,tight,novaracc,noincfock,fulldiag) stable(crhf) gues
 s=read geom=nocrowd test
 ----------------------------------------------------------------------

 hf stability analysis of h10 triangular lattice, y= 0.6960275979088506
 0
 ----------------------------------------------------------------------
 Symbolic Z-matrix:
 Charge =  0 Multiplicity = 1

                         Standard orientation:
 ---------------------------------------------------------------------
 Center     Atomic      Atomic             Coordinates (Angstroms)
 Number     Number       Type             X           Y           Z
 ---------------------------------------------------------------------
      1          1           0        1.066376    1.436209    0.000000
      2          1           0       -0.000000    1.624240   -0.000000
      3          1           0        1.066376    0.353382    0.000000
      4          1           0       -0.000000    0.541413   -0.000000
      5          1           0       -1.066376    1.812271   -0.000000
      6          1           0       -1.066376    0.729444   -0.000000
      7          1           0       -1.066376   -0.353382    0.000000
      8          1           0       -0.000000   -0.541413   -0.000000
      9          1           0        1.066376   -0.729444   -0.000000
     10          1           0        1.066376   -1.812271   -0.000000
     11          1           0       -0.000000   -1.624240   -0.000000
     12          1           0       -1.066376   -1.436209    0.000000
 ---------------------------------------------------------------------

 SCF Done:  E(RHF) =  -5.83034326795     A.U. after    8 cycles
 E2 =    -0.1391671556D+00 EUMP2 =    -0.59695104235369D+01

 The electronic state is 1-AG.
 Alpha  occ. eigenvalues --   -0.93321  -0.75591  -0.65405  -0.49015  -0.41725
 Alpha  occ. eigenvalues --   -0.25558
 Alpha virt. eigenvalues --    0.02754   0.18936   0.23092   0.44982   0.61814
 Alpha virt. eigenvalues --    0.94698

 Mulliken charges:
               1
     1  H   -0.004855
     2  H   -0.057831
     3  H   -0.004096
     4  H   -0.051046
     5  H    0.136943
     6  H   -0.019116
     7  H   -0.004096
     8  H   -0.051046
     9  H   -0.019116
    10  H    0.136943
    11  H   -0.057831
    12  H   -0.004855
 Sum of Mulliken charges =  -0.00000

 Dipole moment (field-independent basis, Debye):
    X=              0.0000    Y=             -0.0000    Z=             -0.0000  Tot=              0.0000
 Quadrupole moment (field-independent basis, Debye-Ang):
   XX=            -19.4698   YY=            -14.1413   ZZ=            -15.1962
   XY=             -3.0152   XZ=             -0.0000   YZ=             -0.0000

 Normal termination of Gaussian 09 at Fri Feb 10 14:38:49 2017.
