 Gaussian 09, Revision E.01,
 Gaussian 09:  ES64L-G09RevE.01 30-Nov-2015

 ----------------------------------------------------------------------
 #rhf/gen scf(symm,tight,novaracc,noincfock,fulldiag) stable(crhf) gues
 s=read geom=nocrowd test
 ----------------------------------------------------------------------

 ----------------------------------------------------------------------
 hf stability analysis of h10 triangular lattice, y= 1.1662555983306084
 ----------------------------------------------------------------------
 Symbolic Z-matrix:
 Charge =  0 Multiplicity = 1

                         Standard orientation:
 ---------------------------------------------------------------------
 Center     Atomic      Atomic             Coordinates (Angstroms)
 Number     Number       Type             X           Y           Z
 ---------------------------------------------------------------------
      1          1           0        0.911385    2.780575    0.000000
      2          1           0        0.000000    1.900461    0.000000
      3          1           0        0.911385    1.513601    0.000000
      4          1           0        0.000000    0.633487    0.000000
      5          1           0       -0.911385    1.020347    0.000000
      6          1           0       -0.911385   -0.246627    0.000000
      7          1           0       -0.911385   -1.513601    0.000000
      8          1           0       -0.000000   -0.633487    0.000000
      9          1           0        0.911385    0.246627    0.000000
     10          1           0        0.911385   -1.020347    0.000000
     11          1           0       -0.000000   -1.900461    0.000000
     12          1           0       -0.911385   -2.780575    0.000000
 ---------------------------------------------------------------------

 SCF Done:  E(RHF) =  -5.40458391501     A.U. after   12 cycles
 E2 =    -0.3462904492D+00 EUMP2 =    -0.57508743641975D+01

 The electronic state is 1-AG.
 Alpha  occ. eigenvalues --   -0.96256  -0.77305  -0.57168  -0.54777  -0.32290
 Alpha  occ. eigenvalues --   -0.07926
 Alpha virt. eigenvalues --   -0.17642   0.18247   0.23445   0.27717   0.52210
 Alpha virt. eigenvalues --    0.52224

 Mulliken charges:
               1
     1  H   -0.034552
     2  H    0.036502
     3  H   -0.100842
     4  H    0.122425
     5  H   -0.108309
     6  H    0.084775
     7  H   -0.100842
     8  H    0.122425
     9  H    0.084775
    10  H   -0.108309
    11  H    0.036502
    12  H   -0.034552
 Sum of Mulliken charges =   0.00000

 Dipole moment (field-independent basis, Debye):
    X=              0.0000    Y=              0.0000    Z=             -0.0000  Tot=              0.0000
 Quadrupole moment (field-independent basis, Debye-Ang):
   XX=            -19.1001   YY=            -23.6176   ZZ=            -15.0636
   XY=             -1.2802   XZ=             -0.0000   YZ=              0.0000

 Normal termination of Gaussian 09 at Fri Feb 10 14:39:55 2017.
