 Gaussian 09, Revision E.01,
 Gaussian 09:  ES64L-G09RevE.01 30-Nov-2015

 ----------------------------------------------------------------------
 #rhf/gen scf(symm,tight,novaracc,noincfock,fulldiag) stable(crhf) gues
 s=read geom=nocrowd test
 ----------------------------------------------------------------------

 ----------------------------------------------------------------------
 hf stability analysis of h10 triangular lattice, y= 1.3330047374615932
 ----------------------------------------------------------------------
 Symbolic Z-matrix:
 Charge =  0 Multiplicity = 1

                         Standard orientation:
 ---------------------------------------------------------------------
 Center     Atomic      Atomic             Coordinates (Angstroms)
 Number     Number       Type             X           Y           Z
 ---------------------------------------------------------------------
      1          1           0        0.823842    3.236328   -0.000000
      2          1           0        0.000000    2.102406    0.000000
      3          1           0        0.823842    1.834724   -0.000000
      4          1           0        0.000000    0.700802    0.000000
      5          1           0       -0.823842    0.968485    0.000000
      6          1           0       -0.823842   -0.433119    0.000000
      7          1           0       -0.823842   -1.834724   -0.000000
      8          1           0       -0.000000   -0.700802    0.000000
      9          1           0        0.823842    0.433119    0.000000
     10          1           0        0.823842   -0.968485    0.000000
     11          1           0       -0.000000   -2.102406    0.000000
     12          1           0       -0.823842   -3.236328   -0.000000
 ---------------------------------------------------------------------

 SCF Done:  E(RHF) =  -5.36521819008     A.U. after   12 cycles
 E2 =    -0.7676817911D+00 EUMP2 =    -0.61328999811304D+01

 The electronic state is 1-AG.
 Alpha  occ. eigenvalues --   -0.93068  -0.77490  -0.58397  -0.51325  -0.28317
 Alpha  occ. eigenvalues --   -0.13340
 Alpha virt. eigenvalues --   -0.22882   0.01234   0.32977   0.39102   0.49222
 Alpha virt. eigenvalues --    0.68474

 Mulliken charges:
               1
     1  H   -0.076020
     2  H    0.133927
     3  H   -0.091133
     4  H   -0.017476
     5  H   -0.175546
     6  H    0.226249
     7  H   -0.091133
     8  H   -0.017476
     9  H    0.226249
    10  H   -0.175546
    11  H    0.133927
    12  H   -0.076020
 Sum of Mulliken charges =   0.00000

 Dipole moment (field-independent basis, Debye):
    X=              0.0000    Y=              0.0000    Z=              0.0000  Tot=              0.0000
 Quadrupole moment (field-independent basis, Debye-Ang):
   XX=            -18.3080   YY=            -25.7579   ZZ=            -15.0837
   XY=             -1.5098   XZ=             -0.0000   YZ=             -0.0000

 Normal termination of Gaussian 09 at Fri Feb 10 14:40:07 2017.
