 Gaussian 09, Revision E.01,
 Gaussian 09:  ES64L-G09RevE.01 30-Nov-2015

 ----------------------------------------------------------------------
 #rhf/gen scf(symm,tight,novaracc,noincfock,fulldiag) stable(crhf) gues
 s=read geom=nocrowd test
 ----------------------------------------------------------------------

 hf stability analysis of h10 triangular lattice, y= 0.3794068973118231
 4
 ----------------------------------------------------------------------
 Symbolic Z-matrix:
 Charge =  0 Multiplicity = 1

                         Standard orientation:
 ---------------------------------------------------------------------
 Center     Atomic      Atomic             Coordinates (Angstroms)
 Number     Number       Type             X           Y           Z
 ---------------------------------------------------------------------
      1          1           0        0.736274    0.967725    0.000000
      2          1           0        0.000000    2.352455   -0.000000
      3          1           0        0.736274   -0.600578    0.000000
      4          1           0        0.000000    0.784152   -0.000000
      5          1           0       -0.736274    3.737184   -0.000000
      6          1           0       -0.736274    2.168881   -0.000000
      7          1           0       -0.736274    0.600578    0.000000
      8          1           0       -0.000000   -0.784152    0.000000
      9          1           0        0.736274   -2.168881   -0.000000
     10          1           0        0.736274   -3.737184    0.000000
     11          1           0       -0.000000   -2.352455    0.000000
     12          1           0       -0.736274   -0.967725    0.000000
 ---------------------------------------------------------------------

 SCF Done:  E(RHF) =  -5.40949882190     A.U. after    9 cycles
 E2 =    -0.6243851816D+00 EUMP2 =    -0.60338840034613D+01

 The electronic state is 1-AG.
 Alpha  occ. eigenvalues --   -0.88967  -0.78106  -0.61935  -0.55866  -0.24333
 Alpha  occ. eigenvalues --   -0.14318
 Alpha virt. eigenvalues --   -0.16797  -0.06116   0.42770   0.46507   0.65893
 Alpha virt. eigenvalues --    0.86150

 Mulliken charges:
               1
     1  H    0.070237
     2  H    0.024814
     3  H    0.236959
     4  H   -0.212556
     5  H   -0.084935
     6  H   -0.034517
     7  H    0.236959
     8  H   -0.212556
     9  H   -0.034517
    10  H   -0.084935
    11  H    0.024814
    12  H    0.070237
 Sum of Mulliken charges =  -0.00000

 Dipole moment (field-independent basis, Debye):
    X=              0.0000    Y=             -0.0000    Z=              0.0000  Tot=              0.0000
 Quadrupole moment (field-independent basis, Debye-Ang):
   XX=            -14.1697   YY=            -33.5278   ZZ=            -14.8344
   XY=              3.0325   XZ=             -0.0000   YZ=              0.0000

 Normal termination of Gaussian 09 at Fri Feb 10 14:37:47 2017.
