 Gaussian 09, Revision E.01,
 Gaussian 09:  ES64L-G09RevE.01 30-Nov-2015

 ----------------------------------------------------------------------
 #rhf/gen scf(symm,tight,novaracc,noincfock,fulldiag) stable(crhf) gues
 s=read geom=nocrowd test
 ----------------------------------------------------------------------

 ----------------------------------------------------------------------
 hf stability analysis of h10 triangular lattice, y= 1.9092530122354845
 ----------------------------------------------------------------------
 Symbolic Z-matrix:
 Charge =  0 Multiplicity = 1

                         Standard orientation:
 ---------------------------------------------------------------------
 Center     Atomic      Atomic             Coordinates (Angstroms)
 Number     Number       Type             X           Y           Z
 ---------------------------------------------------------------------
      1          1           0        0.597346    4.738020    0.000000
      2          1           0        0.000000    2.899578    0.000000
      3          1           0        0.597346    2.804968    0.000000
      4          1           0        0.000000    0.966526    0.000000
      5          1           0       -0.597346    1.061136    0.000000
      6          1           0       -0.597346   -0.871916   -0.000000
      7          1           0       -0.597346   -2.804968    0.000000
      8          1           0       -0.000000   -0.966526    0.000000
      9          1           0        0.597346    0.871916   -0.000000
     10          1           0        0.597346   -1.061136    0.000000
     11          1           0       -0.000000   -2.899578    0.000000
     12          1           0       -0.597346   -4.738020    0.000000
 ---------------------------------------------------------------------

 SCF Done:  E(RHF) =  -5.17018851481     A.U. after    8 cycles
 E2 =    -0.8738888338D+00 EUMP2 =    -0.60440773485696D+01

 The electronic state is 1-AG.
 Alpha  occ. eigenvalues --   -0.87305  -0.82575  -0.67085  -0.66339  -0.19310
 Alpha  occ. eigenvalues --   -0.18110
 Alpha virt. eigenvalues --   -0.13681  -0.06112   0.53139   0.53881   1.05101
 Alpha virt. eigenvalues --    1.20378

 Mulliken charges:
               1
     1  H   -0.007814
     2  H   -0.002780
     3  H   -0.012342
     4  H   -0.346573
     5  H    0.170613
     6  H    0.198895
     7  H   -0.012342
     8  H   -0.346573
     9  H    0.198895
    10  H    0.170613
    11  H   -0.002780
    12  H   -0.007814
 Sum of Mulliken charges =   0.00000

 Dipole moment (field-independent basis, Debye):
    X=              0.0000    Y=             -0.0000    Z=             -0.0000  Tot=              0.0000
 Quadrupole moment (field-independent basis, Debye-Ang):
   XX=            -14.9938   YY=            -22.7985   ZZ=            -15.0696
   XY=             -0.5108   XZ=              0.0000   YZ=              0.0000

 Normal termination of Gaussian 09 at Fri Feb 10 14:40:28 2017.
