 Gaussian 09, Revision E.01,
 Gaussian 09:  ES64L-G09RevE.01 30-Nov-2015

 ----------------------------------------------------------------------
 #uhf/gen scf(tight,novaracc,noincfock,fulldiag) stable(crhf) guess=rea
 d geom=nocrowd test
 ----------------------------------------------------------------------

 hf stability analysis of h10 triangular lattice, y= 1.1954046164231349
  alpha= 68.000000000000000
 ----------------------------------------------------------------------
 Symbolic Z-matrix:
 Charge =  0 Multiplicity = 1

                         Standard orientation:
 ---------------------------------------------------------------------
 Center     Atomic      Atomic             Coordinates (Angstroms)
 Number     Number       Type             X           Y           Z
 ---------------------------------------------------------------------
      1          1           0        1.791226    2.499511    0.000000
      2          1           0        1.791226    1.210226    0.000000
      3          1           0        0.895613    1.572077    0.000000
      4          1           0        0.895613    0.282792    0.000000
      5          1           0        0.000000    0.644643    0.000000
      6          1           0       -0.000000   -0.644643   -0.000000
      7          1           0       -0.895613   -0.282792   -0.000000
      8          1           0       -0.895613   -1.572077   -0.000000
      9          1           0       -1.791226   -1.210226   -0.000000
     10          1           0       -1.791226   -2.499511   -0.000000
 ---------------------------------------------------------------------

 SCF Done:  E(UHF) =  -4.83468915633     A.U. after   15 cycles
 E2 =    -0.7287373464D-01 EUMP2 =    -0.49075628909782D+01

 Unable to determine electronic state:  partially filled degenerate orbitals.
 Alpha  occ. eigenvalues --   -0.82512  -0.70576  -0.56909  -0.36588  -0.27904
 Alpha virt. eigenvalues --    0.08534   0.16606   0.22462   0.38633   0.61292
  Beta  occ. eigenvalues --   -0.82512  -0.70576  -0.56909  -0.36588  -0.27904
  Beta virt. eigenvalues --    0.08534   0.16606   0.22462   0.38633   0.61292

 Mulliken charges and spin densities:
               1          2
     1  H    0.003040   0.521666
     2  H    0.061135  -0.467709
     3  H    0.040968  -0.244061
     4  H   -0.099917  -0.221652
     5  H   -0.005225  -0.326147
     6  H   -0.005225   0.326147
     7  H   -0.099917   0.221652
     8  H    0.040968   0.244061
     9  H    0.061135   0.467709
    10  H    0.003040  -0.521666
 Sum of Mulliken charges =   0.00000  -0.00000

 Dipole moment (field-independent basis, Debye):
    X=             -0.0000    Y=              0.0000    Z=             -0.0000  Tot=              0.0000
 Quadrupole moment (field-independent basis, Debye-Ang):
   XX=            -13.0675   YY=            -13.3112   ZZ=            -13.0131
   XY=              1.5013   XZ=              0.0000   YZ=              0.0000

 Normal termination of Gaussian 09 at Wed Feb 22 15:24:24 2017.
