 Gaussian 09, Revision E.01,
 Gaussian 09:  ES64L-G09RevE.01 30-Nov-2015

 ----------------------------------------------------------------------
 #uhf/gen scf(tight,novaracc,noincfock,fulldiag) stable(crhf) guess=rea
 d geom=nocrowd test
 ----------------------------------------------------------------------

 hf stability analysis of h10 triangular lattice, y= 1.5217180473945009
  alpha= 76.000000000000000
 ----------------------------------------------------------------------
 Symbolic Z-matrix:
 Charge =  0 Multiplicity = 1

                         Standard orientation:
 ---------------------------------------------------------------------
 Center     Atomic      Atomic             Coordinates (Angstroms)
 Number     Number       Type             X           Y           Z
 ---------------------------------------------------------------------
      1          1           0        1.472548    3.553611    0.000000
      2          1           0        1.472548    1.985308    0.000000
      3          1           0        0.736274    2.168881    0.000000
      4          1           0        0.736274    0.600578    0.000000
      5          1           0        0.000000    0.784152    0.000000
      6          1           0       -0.000000   -0.784152    0.000000
      7          1           0       -0.736274   -0.600578    0.000000
      8          1           0       -0.736274   -2.168881    0.000000
      9          1           0       -1.472548   -1.985308    0.000000
     10          1           0       -1.472548   -3.553611    0.000000
 ---------------------------------------------------------------------

 SCF Done:  E(UHF) =  -5.14944424536     A.U. after   10 cycles
 E2 =    -0.4914914181D-01 EUMP2 =    -0.51985933871713D+01

 Unable to determine electronic state:  partially filled degenerate orbitals.
 Alpha  occ. eigenvalues --   -0.75269  -0.69801  -0.60689  -0.49254  -0.39651
 Alpha virt. eigenvalues --    0.18759   0.22627   0.32866   0.48748   0.64731
  Beta  occ. eigenvalues --   -0.75269  -0.69801  -0.60689  -0.49254  -0.39651
  Beta virt. eigenvalues --    0.18759   0.22627   0.32866   0.48748   0.64731

 Mulliken charges and spin densities:
               1          2
     1  H   -0.020083  -0.978896
     2  H   -0.006176  -0.022959
     3  H    0.020074   0.008162
     4  H    0.002633   0.011060
     5  H    0.003553  -0.016085
     6  H    0.003553   0.016085
     7  H    0.002633  -0.011060
     8  H    0.020074  -0.008162
     9  H   -0.006176   0.022959
    10  H   -0.020083   0.978896
 Sum of Mulliken charges =  -0.00000   0.00000

 Dipole moment (field-independent basis, Debye):
    X=             -0.0000    Y=              0.0000    Z=             -0.0000  Tot=              0.0000
 Quadrupole moment (field-independent basis, Debye-Ang):
   XX=            -12.5910   YY=            -19.5569   ZZ=            -12.7853
   XY=             -3.5758   XZ=             -0.0000   YZ=             -0.0000

 Normal termination of Gaussian 09 at Wed Feb 22 15:25:47 2017.
