 Gaussian 09, Revision E.01,
 Gaussian 09:  ES64L-G09RevE.01 30-Nov-2015

 ----------------------------------------------------------------------
 #uhf/gen scf(tight,novaracc,noincfock,fulldiag) stable(crhf) guess=rea
 d geom=nocrowd test
 ----------------------------------------------------------------------

 hf stability analysis of h10 triangular lattice, y= 0.4584084631436424
 2 alpha= 20.000000000000000
 ----------------------------------------------------------------------
 Symbolic Z-matrix:
 Charge =  0 Multiplicity = 1

                         Standard orientation:
 ---------------------------------------------------------------------
 Center     Atomic      Atomic             Coordinates (Angstroms)
 Number     Number       Type             X           Y           Z
 ---------------------------------------------------------------------
      1          1           0        1.723052   -1.383305    0.000000
      2          1           0        1.723052   -2.723602    0.000000
      3          1           0        0.861526   -0.356578    0.000000
      4          1           0        0.861526   -1.696875    0.000000
      5          1           0        0.000000    0.670148   -0.000000
      6          1           0       -0.000000   -0.670148   -0.000000
      7          1           0       -0.861526    1.696875    0.000000
      8          1           0       -0.861526    0.356578    0.000000
      9          1           0       -1.723052    2.723602    0.000000
     10          1           0       -1.723052    1.383305    0.000000
 ---------------------------------------------------------------------

 SCF Done:  E(UHF) =  -4.86917378957     A.U. after   14 cycles
 E2 =    -0.5173869179D-01 EUMP2 =    -0.49209124813530D+01

 Unable to determine electronic state:  partially filled degenerate orbitals.
 Alpha  occ. eigenvalues --   -0.80880  -0.72368  -0.58714  -0.41092  -0.28116
 Alpha virt. eigenvalues --    0.08612   0.21649   0.25017   0.39879   0.59132
  Beta  occ. eigenvalues --   -0.80880  -0.72368  -0.58714  -0.41092  -0.28116
  Beta virt. eigenvalues --    0.08612   0.21649   0.25017   0.39879   0.59132

 Mulliken charges and spin densities:
               1          2
     1  H   -0.063753   0.457198
     2  H   -0.097470   0.793537
     3  H    0.071338  -0.268154
     4  H    0.133533  -0.316755
     5  H   -0.043648  -0.335641
     6  H   -0.043648   0.335641
     7  H    0.133533   0.316755
     8  H    0.071338   0.268154
     9  H   -0.097470  -0.793537
    10  H   -0.063753  -0.457198
 Sum of Mulliken charges =   0.00000  -0.00000

 Dipole moment (field-independent basis, Debye):
    X=              0.0000    Y=             -0.0000    Z=             -0.0000  Tot=              0.0000
 Quadrupole moment (field-independent basis, Debye-Ang):
   XX=            -16.5391   YY=            -21.3849   ZZ=            -12.6300
   XY=              6.7270   XZ=              0.0000   YZ=             -0.0000

 Normal termination of Gaussian 09 at Wed Feb 22 15:14:58 2017.
