 Gaussian 09, Revision E.01,
 Gaussian 09:  ES64L-G09RevE.01 30-Nov-2015

 ----------------------------------------------------------------------
 #uhf/gen scf(tight,novaracc,noincfock,fulldiag) stable(crhf) guess=rea
 d geom=nocrowd test
 ----------------------------------------------------------------------

 hf stability analysis of h10 triangular lattice, y= 1.5507537964299845
  alpha= 76.500000000000000
 ----------------------------------------------------------------------
 Symbolic Z-matrix:
 Charge =  0 Multiplicity = 1

                         Standard orientation:
 ---------------------------------------------------------------------
 Center     Atomic      Atomic             Coordinates (Angstroms)
 Number     Number       Type             X           Y           Z
 ---------------------------------------------------------------------
      1          1           0        1.448065    3.639397    0.000000
      2          1           0        1.448065    2.044578    0.000000
      3          1           0        0.724033    2.218403    0.000000
      4          1           0        0.724033    0.623585    0.000000
      5          1           0       -0.000000    0.797409    0.000000
      6          1           0       -0.000000   -0.797409    0.000000
      7          1           0       -0.724033   -0.623585    0.000000
      8          1           0       -0.724033   -2.218403    0.000000
      9          1           0       -1.448065   -2.044578    0.000000
     10          1           0       -1.448065   -3.639397    0.000000
 ---------------------------------------------------------------------

 SCF Done:  E(UHF) =  -5.16516086330     A.U. after   10 cycles
 E2 =    -0.4768686440D-01 EUMP2 =    -0.52128477277012D+01

 Unable to determine electronic state:  partially filled degenerate orbitals.
 Alpha  occ. eigenvalues --   -0.74975  -0.69748  -0.61025  -0.50102  -0.40794
 Alpha virt. eigenvalues --    0.18331   0.23948   0.34006   0.49516   0.65110
  Beta  occ. eigenvalues --   -0.74975  -0.69748  -0.61025  -0.50102  -0.40794
  Beta virt. eigenvalues --    0.18331   0.23948   0.34006   0.49516   0.65110

 Mulliken charges and spin densities:
               1          2
     1  H   -0.015341  -0.983904
     2  H   -0.005450  -0.017026
     3  H    0.015862   0.005959
     4  H    0.001752   0.008112
     5  H    0.003178  -0.012188
     6  H    0.003178   0.012188
     7  H    0.001752  -0.008112
     8  H    0.015862  -0.005959
     9  H   -0.005450   0.017026
    10  H   -0.015341   0.983904
 Sum of Mulliken charges =  -0.00000  -0.00000

 Dipole moment (field-independent basis, Debye):
    X=             -0.0000    Y=             -0.0000    Z=             -0.0000  Tot=              0.0000
 Quadrupole moment (field-independent basis, Debye-Ang):
   XX=            -12.4590   YY=            -19.1890   ZZ=            -12.8187
   XY=             -3.2391   XZ=              0.0000   YZ=              0.0000

 Normal termination of Gaussian 09 at Wed Feb 22 15:25:52 2017.
