 Gaussian 09, Revision E.01,
 Gaussian 09:  ES64L-G09RevE.01 30-Nov-2015

 ----------------------------------------------------------------------
 #uhf/gen scf(tight,novaracc,noincfock,fulldiag) stable(crhf) guess=rea
 d geom=nocrowd test
 ----------------------------------------------------------------------

 hf stability analysis of h10 triangular lattice, y= 0.6625913996779515
 5 alpha= 37.250000000000000
 ----------------------------------------------------------------------
 Symbolic Z-matrix:
 Charge =  0 Multiplicity = 1

                         Standard orientation:
 ---------------------------------------------------------------------
 Center     Atomic      Atomic             Coordinates (Angstroms)
 Number     Number       Type             X           Y           Z
 ---------------------------------------------------------------------
      1          1           0        2.109696   -0.037740    0.000000
      2          1           0        2.109696   -1.132401    0.000000
      3          1           0        1.054848    0.254795   -0.000000
      4          1           0        1.054848   -0.839865    0.000000
      5          1           0        0.000000    0.547330   -0.000000
      6          1           0       -0.000000   -0.547330   -0.000000
      7          1           0       -1.054848    0.839865    0.000000
      8          1           0       -1.054848   -0.254795   -0.000000
      9          1           0       -2.109696    1.132401   -0.000000
     10          1           0       -2.109696    0.037740   -0.000000
 ---------------------------------------------------------------------

 SCF Done:  E(UHF) =  -4.94294270173     A.U. after   12 cycles
 E2 =    -0.5135978347D-01 EUMP2 =    -0.49943024852041D+01

 Unable to determine electronic state:  partially filled degenerate orbitals.
 Alpha  occ. eigenvalues --   -0.86619  -0.74686  -0.56060  -0.43339  -0.37741
 Alpha virt. eigenvalues --    0.05798   0.21475   0.33777   0.54164   0.80908
  Beta  occ. eigenvalues --   -0.86619  -0.74686  -0.56060  -0.43339  -0.37741
  Beta virt. eigenvalues --    0.05798   0.21475   0.33777   0.54164   0.80908

 Mulliken charges and spin densities:
               1          2
     1  H   -0.001262   0.552266
     2  H    0.048731  -0.599017
     3  H   -0.041306  -0.523110
     4  H    0.002329   0.522418
     5  H   -0.008493   0.353579
     6  H   -0.008493  -0.353579
     7  H    0.002329  -0.522418
     8  H   -0.041306   0.523110
     9  H    0.048731   0.599017
    10  H   -0.001262  -0.552266
 Sum of Mulliken charges =  -0.00000   0.00000

 Dipole moment (field-independent basis, Debye):
    X=              0.0000    Y=             -0.0000    Z=              0.0000  Tot=              0.0000
 Quadrupole moment (field-independent basis, Debye-Ang):
   XX=            -13.4885   YY=            -14.7006   ZZ=            -12.8176
   XY=             -1.6424   XZ=              0.0000   YZ=              0.0000

 Normal termination of Gaussian 09 at Wed Feb 22 15:18:22 2017.
