 Gaussian 09, Revision E.01,
 Gaussian 09:  ES64L-G09RevE.01 30-Nov-2015

 ----------------------------------------------------------------------
 #uhf/gen scf(tight,novaracc,noincfock,fulldiag) stable(crhf) guess=rea
 d geom=nocrowd test
 ----------------------------------------------------------------------

 hf stability analysis of h10 triangular lattice, y= 0.4458672966047664
 3 alpha= 19.000000000000000
 ----------------------------------------------------------------------
 Symbolic Z-matrix:
 Charge =  0 Multiplicity = 1

                         Standard orientation:
 ---------------------------------------------------------------------
 Center     Atomic      Atomic             Coordinates (Angstroms)
 Number     Number       Type             X           Y           Z
 ---------------------------------------------------------------------
      1          1           0        1.686303   -1.473617    0.000000
      2          1           0        1.686303   -2.843122    0.000000
      3          1           0        0.843152   -0.394432    0.000000
      4          1           0        0.843152   -1.763937    0.000000
      5          1           0       -0.000000    0.684753    0.000000
      6          1           0       -0.000000   -0.684753   -0.000000
      7          1           0       -0.843152    1.763937    0.000000
      8          1           0       -0.843152    0.394432   -0.000000
      9          1           0       -1.686303    2.843122    0.000000
     10          1           0       -1.686303    1.473617    0.000000
 ---------------------------------------------------------------------

 SCF Done:  E(UHF) =  -4.91280987790     A.U. after   15 cycles
 E2 =    -0.5520544668D-01 EUMP2 =    -0.49680153245877D+01

 Unable to determine electronic state:  partially filled degenerate orbitals.
 Alpha  occ. eigenvalues --   -0.79668  -0.71671  -0.58802  -0.42369  -0.28999
 Alpha virt. eigenvalues --    0.10276   0.23250   0.24255   0.41389   0.59931
  Beta  occ. eigenvalues --   -0.79668  -0.71671  -0.58802  -0.42369  -0.28999
  Beta virt. eigenvalues --    0.10276   0.23250   0.24255   0.41389   0.59931

 Mulliken charges and spin densities:
               1          2
     1  H   -0.046985   0.342293
     2  H   -0.092140   0.860652
     3  H    0.052164  -0.212253
     4  H    0.109591  -0.244930
     5  H   -0.022631  -0.250822
     6  H   -0.022631   0.250822
     7  H    0.109591   0.244930
     8  H    0.052164   0.212253
     9  H   -0.092140  -0.860652
    10  H   -0.046985  -0.342293
 Sum of Mulliken charges =   0.00000   0.00000

 Dipole moment (field-independent basis, Debye):
    X=             -0.0000    Y=              0.0000    Z=             -0.0000  Tot=              0.0000
 Quadrupole moment (field-independent basis, Debye-Ang):
   XX=            -15.7533   YY=            -22.1269   ZZ=            -12.5950
   XY=              7.0319   XZ=              0.0000   YZ=             -0.0000

 Normal termination of Gaussian 09 at Wed Feb 22 15:10:52 2017.
