 Gaussian 09, Revision E.01,
 Gaussian 09:  ES64L-G09RevE.01 30-Nov-2015

 ----------------------------------------------------------------------
 #uhf/gen scf(tight,novaracc,noincfock,fulldiag) stable(crhf) guess=rea
 d geom=nocrowd test
 ----------------------------------------------------------------------

 hf stability analysis of h10 triangular lattice, y= 0.4201353311163031
 9 alpha= 17.000000000000000
 ----------------------------------------------------------------------
 Symbolic Z-matrix:
 Charge =  0 Multiplicity = 1

                         Standard orientation:
 ---------------------------------------------------------------------
 Center     Atomic      Atomic             Coordinates (Angstroms)
 Number     Number       Type             X           Y           Z
 ---------------------------------------------------------------------
      1          1           0        1.607110   -1.664143    0.000000
      2          1           0        1.607110   -3.101133    0.000000
      3          1           0        0.803555   -0.472824    0.000000
      4          1           0        0.803555   -1.909814    0.000000
      5          1           0       -0.000000    0.718495    0.000000
      6          1           0       -0.000000   -0.718495    0.000000
      7          1           0       -0.803555    1.909814   -0.000000
      8          1           0       -0.803555    0.472824   -0.000000
      9          1           0       -1.607110    3.101133   -0.000000
     10          1           0       -1.607110    1.664143   -0.000000
 ---------------------------------------------------------------------

 SCF Done:  E(UHF) =  -5.01614076629     A.U. after   13 cycles
 E2 =    -0.5711156564D-01 EUMP2 =    -0.50732523319331D+01

 Unable to determine electronic state:  partially filled degenerate orbitals.
 Alpha  occ. eigenvalues --   -0.77502  -0.70541  -0.59192  -0.44880  -0.32526
 Alpha virt. eigenvalues --    0.14575   0.22261   0.26722   0.44336   0.61992
  Beta  occ. eigenvalues --   -0.77502  -0.70541  -0.59192  -0.44880  -0.32526
  Beta virt. eigenvalues --    0.14575   0.22261   0.26722   0.44336   0.61992

 Mulliken charges and spin densities:
               1          2
     1  H   -0.018172   0.119581
     2  H   -0.061550   0.930710
     3  H    0.018291  -0.069466
     4  H    0.060492  -0.070713
     5  H    0.000939  -0.084910
     6  H    0.000939   0.084910
     7  H    0.060492   0.070713
     8  H    0.018291   0.069466
     9  H   -0.061550  -0.930710
    10  H   -0.018172  -0.119581
 Sum of Mulliken charges =  -0.00000   0.00000

 Dipole moment (field-independent basis, Debye):
    X=              0.0000    Y=             -0.0000    Z=              0.0000  Tot=              0.0000
 Quadrupole moment (field-independent basis, Debye-Ang):
   XX=            -14.0448   YY=            -21.7042   ZZ=            -12.6264
   XY=              5.9321   XZ=             -0.0000   YZ=              0.0000

 Normal termination of Gaussian 09 at Wed Feb 22 15:10:47 2017.
