 Gaussian 09, Revision E.01,
 Gaussian 09:  ES64L-G09RevE.01 30-Nov-2015

 ----------------------------------------------------------------------
 #uhf/gen scf(tight,novaracc,noincfock,fulldiag) stable(crhf) guess=rea
 d geom=nocrowd test
 ----------------------------------------------------------------------

 hf stability analysis of h10 triangular lattice, y= 0.4980454386758799
 1 alpha= 23.250000000000000
 ----------------------------------------------------------------------
 Symbolic Z-matrix:
 Charge =  0 Multiplicity = 1

                         Standard orientation:
 ---------------------------------------------------------------------
 Center     Atomic      Atomic             Coordinates (Angstroms)
 Number     Number       Type             X           Y           Z
 ---------------------------------------------------------------------
      1          1           0        1.830399   -1.106137    0.000000
      2          1           0        1.830399   -2.367830    0.000000
      3          1           0        0.915200   -0.237646    0.000000
      4          1           0        0.915200   -1.499338    0.000000
      5          1           0        0.000000    0.630846   -0.000000
      6          1           0       -0.000000   -0.630846   -0.000000
      7          1           0       -0.915200    1.499338    0.000000
      8          1           0       -0.915200    0.237646    0.000000
      9          1           0       -1.830399    2.367830    0.000000
     10          1           0       -1.830399    1.106137    0.000000
 ---------------------------------------------------------------------

 SCF Done:  E(UHF) =  -4.85163040544     A.U. after   14 cycles
 E2 =    -0.7411890522D-01 EUMP2 =    -0.49257493106531D+01

 Unable to determine electronic state:  partially filled degenerate orbitals.
 Alpha  occ. eigenvalues --   -0.83133  -0.71157  -0.56681  -0.35622  -0.29782
 Alpha virt. eigenvalues --    0.08611   0.16318   0.24198   0.39539   0.60325
  Beta  occ. eigenvalues --   -0.83133  -0.71157  -0.56681  -0.35622  -0.29782
  Beta virt. eigenvalues --    0.08611   0.16318   0.24198   0.39539   0.60325

 Mulliken charges and spin densities:
               1          2
     1  H    0.074045   0.450806
     2  H   -0.014571  -0.493585
     3  H   -0.110569   0.210818
     4  H    0.049147   0.235272
     5  H    0.001947  -0.307085
     6  H    0.001947   0.307085
     7  H    0.049147  -0.235272
     8  H   -0.110569  -0.210818
     9  H   -0.014571   0.493585
    10  H    0.074045  -0.450806
 Sum of Mulliken charges =   0.00000   0.00000

 Dipole moment (field-independent basis, Debye):
    X=             -0.0000    Y=             -0.0000    Z=              0.0000  Tot=              0.0000
 Quadrupole moment (field-independent basis, Debye-Ang):
   XX=            -13.2678   YY=            -14.1261   ZZ=            -13.0017
   XY=             -0.9025   XZ=             -0.0000   YZ=             -0.0000

 Normal termination of Gaussian 09 at Wed Feb 22 15:15:36 2017.
