 Gaussian 09, Revision E.01,
 Gaussian 09:  ES64L-G09RevE.01 30-Nov-2015

 ----------------------------------------------------------------------
 #uhf/gen scf(tight,novaracc,noincfock,fulldiag) stable(crhf) guess=rea
 d geom=nocrowd test
 ----------------------------------------------------------------------

 hf stability analysis of h10 triangular lattice, y= 0.7466864790071482
 4 alpha= 44.000000000000000
 ----------------------------------------------------------------------
 Symbolic Z-matrix:
 Charge =  0 Multiplicity = 1

                         Standard orientation:
 ---------------------------------------------------------------------
 Center     Atomic      Atomic             Coordinates (Angstroms)
 Number     Number       Type             X           Y           Z
 ---------------------------------------------------------------------
      1          1           0        2.148485    0.462422   -0.000000
      2          1           0        2.148485   -0.612475   -0.000000
      3          1           0        1.074243    0.499935   -0.000000
      4          1           0        1.074243   -0.574962   -0.000000
      5          1           0       -0.000000    0.537449    0.000000
      6          1           0       -0.000000   -0.537449    0.000000
      7          1           0       -1.074243    0.574962    0.000000
      8          1           0       -1.074243   -0.499935    0.000000
      9          1           0       -2.148485    0.612475    0.000000
     10          1           0       -2.148485   -0.462422    0.000000
 ---------------------------------------------------------------------

 SCF Done:  E(UHF) =  -4.96182672380     A.U. after   10 cycles
 E2 =    -0.4893552736D-01 EUMP2 =    -0.50107622511533D+01

 Unable to determine electronic state:  partially filled degenerate orbitals.
 Alpha  occ. eigenvalues --   -0.87358  -0.74990  -0.55773  -0.45630  -0.39039
 Alpha virt. eigenvalues --    0.07145   0.19868   0.37730   0.52733   0.91499
  Beta  occ. eigenvalues --   -0.87358  -0.74990  -0.55773  -0.45630  -0.39039
  Beta virt. eigenvalues --    0.07145   0.19868   0.37730   0.52733   0.91499

 Mulliken charges and spin densities:
               1          2
     1  H    0.024007   0.593397
     2  H    0.032932  -0.599003
     3  H   -0.029839  -0.556845
     4  H   -0.025567   0.556222
     5  H   -0.001532   0.407541
     6  H   -0.001532  -0.407541
     7  H   -0.025567  -0.556222
     8  H   -0.029839   0.556845
     9  H    0.032932   0.599003
    10  H    0.024007  -0.593397
 Sum of Mulliken charges =   0.00000   0.00000

 Dipole moment (field-independent basis, Debye):
    X=              0.0000    Y=             -0.0000    Z=              0.0000  Tot=              0.0000
 Quadrupole moment (field-independent basis, Debye-Ang):
   XX=            -12.9583   YY=            -15.5608   ZZ=            -12.7905
   XY=             -0.2563   XZ=              0.0000   YZ=              0.0000

 Normal termination of Gaussian 09 at Wed Feb 22 15:19:40 2017.
