 Gaussian 09, Revision E.01,
 Gaussian 09:  ES64L-G09RevE.01 30-Nov-2015

 ----------------------------------------------------------------------
 #uhf/gen scf(tight,novaracc,noincfock,fulldiag) stable(crhf) guess=rea
 d geom=nocrowd test
 ----------------------------------------------------------------------

 hf stability analysis of h10 triangular lattice, y= 0.4707695940863088
 6 alpha= 21.000000000000000
 ----------------------------------------------------------------------
 Symbolic Z-matrix:
 Charge =  0 Multiplicity = 1

                         Standard orientation:
 ---------------------------------------------------------------------
 Center     Atomic      Atomic             Coordinates (Angstroms)
 Number     Number       Type             X           Y           Z
 ---------------------------------------------------------------------
      1          1           0        1.758005   -1.295638    0.000000
      2          1           0        1.758005   -2.609287    0.000000
      3          1           0        0.879003   -0.319407    0.000000
      4          1           0        0.879003   -1.633056    0.000000
      5          1           0        0.000000    0.656824    0.000000
      6          1           0       -0.000000   -0.656824    0.000000
      7          1           0       -0.879003    1.633056   -0.000000
      8          1           0       -0.879003    0.319407   -0.000000
      9          1           0       -1.758005    2.609287   -0.000000
     10          1           0       -1.758005    1.295638   -0.000000
 ---------------------------------------------------------------------

 SCF Done:  E(UHF) =  -4.83783890252     A.U. after   15 cycles
 E2 =    -0.5478293882D-01 EUMP2 =    -0.48926218413368D+01

 Unable to determine electronic state:  partially filled degenerate orbitals.
 Alpha  occ. eigenvalues --   -0.81892  -0.72857  -0.58234  -0.39282  -0.27467
 Alpha virt. eigenvalues --    0.07235   0.19637   0.24854   0.38396   0.58556
  Beta  occ. eigenvalues --   -0.81892  -0.72857  -0.58234  -0.39282  -0.27467
  Beta virt. eigenvalues --    0.07235   0.19637   0.24854   0.38396   0.58556

 Mulliken charges and spin densities:
               1          2
     1  H   -0.073531   0.500563
     2  H   -0.090282   0.665245
     3  H    0.086843  -0.230921
     4  H    0.154223  -0.291731
     5  H   -0.077252  -0.358076
     6  H   -0.077252   0.358076
     7  H    0.154223   0.291731
     8  H    0.086843   0.230921
     9  H   -0.090282  -0.665245
    10  H   -0.073531  -0.500563
 Sum of Mulliken charges =   0.00000  -0.00000

 Dipole moment (field-independent basis, Debye):
    X=              0.0000    Y=             -0.0000    Z=              0.0000  Tot=              0.0000
 Quadrupole moment (field-independent basis, Debye-Ang):
   XX=            -16.8888   YY=            -19.7073   ZZ=            -12.7373
   XY=              5.4513   XZ=             -0.0000   YZ=              0.0000

 Normal termination of Gaussian 09 at Wed Feb 22 15:10:58 2017.
