 Gaussian 09, Revision E.01,
 Gaussian 09:  ES64L-G09RevE.01 30-Nov-2015

 ----------------------------------------------------------------------
 #uhf/gen scf(tight,novaracc,noincfock,fulldiag) stable(crhf) guess=rea
 d geom=nocrowd test
 ----------------------------------------------------------------------

 hf stability analysis of h10 triangular lattice, y= 0.4799368795303601
 3 alpha= 21.750000000000000
 ----------------------------------------------------------------------
 Symbolic Z-matrix:
 Charge =  0 Multiplicity = 1

                         Standard orientation:
 ---------------------------------------------------------------------
 Center     Atomic      Atomic             Coordinates (Angstroms)
 Number     Number       Type             X           Y           Z
 ---------------------------------------------------------------------
      1          1           0        1.783080   -1.231386   -0.000000
      2          1           0        1.783080   -2.526562   -0.000000
      3          1           0        0.891540   -0.291899   -0.000000
      4          1           0        0.891540   -1.587075   -0.000000
      5          1           0        0.000000    0.647588    0.000000
      6          1           0       -0.000000   -0.647588    0.000000
      7          1           0       -0.891540    1.587075   -0.000000
      8          1           0       -0.891540    0.291899    0.000000
      9          1           0       -1.783080    2.526562   -0.000000
     10          1           0       -1.783080    1.231386   -0.000000
 ---------------------------------------------------------------------

 SCF Done:  E(UHF) =  -4.82808762067     A.U. after   16 cycles
 E2 =    -0.7115888796D-01 EUMP2 =    -0.48992465086329D+01

 Unable to determine electronic state:  partially filled degenerate orbitals.
 Alpha  occ. eigenvalues --   -0.82233  -0.72504  -0.57029  -0.36664  -0.27190
 Alpha virt. eigenvalues --    0.06680   0.17238   0.22827   0.37798   0.58816
  Beta  occ. eigenvalues --   -0.82233  -0.72504  -0.57029  -0.36664  -0.27190
  Beta virt. eigenvalues --    0.06680   0.17238   0.22827   0.37798   0.58816

 Mulliken charges and spin densities:
               1          2
     1  H   -0.049033   0.437009
     2  H   -0.058834   0.411700
     3  H    0.061818  -0.054906
     4  H    0.153411  -0.122520
     5  H   -0.107362  -0.295324
     6  H   -0.107362   0.295324
     7  H    0.153411   0.122520
     8  H    0.061818   0.054906
     9  H   -0.058834  -0.411700
    10  H   -0.049033  -0.437009
 Sum of Mulliken charges =  -0.00000  -0.00000

 Dipole moment (field-independent basis, Debye):
    X=              0.0000    Y=             -0.0000    Z=             -0.0000  Tot=              0.0000
 Quadrupole moment (field-independent basis, Debye-Ang):
   XX=            -15.9541   YY=            -16.6269   ZZ=            -12.9303
   XY=              2.5504   XZ=              0.0000   YZ=             -0.0000

 Normal termination of Gaussian 09 at Wed Feb 22 15:15:18 2017.
