 Gaussian 09, Revision E.01,
 Gaussian 09:  ES64L-G09RevE.01 30-Nov-2015

 ----------------------------------------------------------------------
 #uhf/gen scf(tight,novaracc,noincfock,fulldiag) stable(crhf) guess=rea
 d geom=nocrowd test
 ----------------------------------------------------------------------

 hf stability analysis of h10 triangular lattice, y= 0.6960275979088506
 0 alpha= 40.000000000000000
 ----------------------------------------------------------------------
 Symbolic Z-matrix:
 Charge =  0 Multiplicity = 1

                         Standard orientation:
 ---------------------------------------------------------------------
 Center     Atomic      Atomic             Coordinates (Angstroms)
 Number     Number       Type             X           Y           Z
 ---------------------------------------------------------------------
      1          1           0        2.132752    0.165352    0.000000
      2          1           0        2.132752   -0.917475    0.000000
      3          1           0        1.066376    0.353382    0.000000
      4          1           0        1.066376   -0.729444    0.000000
      5          1           0       -0.000000    0.541413    0.000000
      6          1           0       -0.000000   -0.541413    0.000000
      7          1           0       -1.066376    0.729444    0.000000
      8          1           0       -1.066376   -0.353382    0.000000
      9          1           0       -2.132752    0.917475    0.000000
     10          1           0       -2.132752   -0.165352    0.000000
 ---------------------------------------------------------------------

 SCF Done:  E(UHF) =  -4.95418659271     A.U. after   11 cycles
 E2 =    -0.4971983219D-01 EUMP2 =    -0.50039064248986D+01

 Unable to determine electronic state:  partially filled degenerate orbitals.
 Alpha  occ. eigenvalues --   -0.87055  -0.74864  -0.55909  -0.44719  -0.38495
 Alpha virt. eigenvalues --    0.06526   0.20642   0.35989   0.53417   0.86975
  Beta  occ. eigenvalues --   -0.87055  -0.74864  -0.55909  -0.44719  -0.38495
  Beta virt. eigenvalues --    0.06526   0.20642   0.35989   0.53417   0.86975

 Mulliken charges and spin densities:
               1          2
     1  H    0.006613   0.574532
     2  H    0.046443  -0.603352
     3  H   -0.036413  -0.545674
     4  H   -0.012414   0.543432
     5  H   -0.004229   0.387636
     6  H   -0.004229  -0.387636
     7  H   -0.012414  -0.543432
     8  H   -0.036413   0.545674
     9  H    0.046443   0.603352
    10  H    0.006613  -0.574532
 Sum of Mulliken charges =  -0.00000   0.00000

 Dipole moment (field-independent basis, Debye):
    X=             -0.0000    Y=             -0.0000    Z=              0.0000  Tot=              0.0000
 Quadrupole moment (field-independent basis, Debye-Ang):
   XX=            -13.1842   YY=            -15.1838   ZZ=            -12.8006
   XY=             -1.1938   XZ=              0.0000   YZ=              0.0000

 Normal termination of Gaussian 09 at Wed Feb 22 15:18:53 2017.
