 Gaussian 09, Revision E.01,
 Gaussian 09:  ES64L-G09RevE.01 30-Nov-2015

 ----------------------------------------------------------------------
 #uhf/gen scf(tight,novaracc,noincfock,fulldiag) stable(crhf) guess=rea
 d geom=nocrowd test
 ----------------------------------------------------------------------

 hf stability analysis of h10 triangular lattice, y= 0.7434330289905593
 0 alpha= 43.750000000000000
 ----------------------------------------------------------------------
 Symbolic Z-matrix:
 Charge =  0 Multiplicity = 1

                         Standard orientation:
 ---------------------------------------------------------------------
 Center     Atomic      Atomic             Coordinates (Angstroms)
 Number     Number       Type             X           Y           Z
 ---------------------------------------------------------------------
      1          1           0        2.148117    0.443752   -0.000000
      2          1           0        2.148117   -0.631330   -0.000000
      3          1           0        1.074058    0.490646   -0.000000
      4          1           0        1.074058   -0.584435   -0.000000
      5          1           0       -0.000000    0.537541   -0.000000
      6          1           0       -0.000000   -0.537541   -0.000000
      7          1           0       -1.074058    0.584435    0.000000
      8          1           0       -1.074058   -0.490646    0.000000
      9          1           0       -2.148117    0.631330    0.000000
     10          1           0       -2.148117   -0.443752    0.000000
 ---------------------------------------------------------------------

 SCF Done:  E(UHF) =  -4.96164860742     A.U. after   10 cycles
 E2 =    -0.4895108000D-01 EUMP2 =    -0.50105996874202D+01

 Unable to determine electronic state:  partially filled degenerate orbitals.
 Alpha  occ. eigenvalues --   -0.87351  -0.74987  -0.55777  -0.45609  -0.39026
 Alpha virt. eigenvalues --    0.07129   0.19888   0.37687   0.52751   0.91390
  Beta  occ. eigenvalues --   -0.87351  -0.74987  -0.55777  -0.45609  -0.39026
  Beta virt. eigenvalues --    0.07129   0.19888   0.37687   0.52751   0.91390

 Mulliken charges and spin densities:
               1          2
     1  H    0.022859   0.592541
     2  H    0.033989  -0.599552
     3  H   -0.030305  -0.556665
     4  H   -0.024950   0.555890
     5  H   -0.001593   0.407104
     6  H   -0.001593  -0.407104
     7  H   -0.024950  -0.555890
     8  H   -0.030305   0.556665
     9  H    0.033989   0.599552
    10  H    0.022859  -0.592541
 Sum of Mulliken charges =   0.00000  -0.00000

 Dipole moment (field-independent basis, Debye):
    X=             -0.0000    Y=             -0.0000    Z=              0.0000  Tot=              0.0000
 Quadrupole moment (field-independent basis, Debye-Ang):
   XX=            -12.9637   YY=            -15.5516   ZZ=            -12.7907
   XY=             -0.3199   XZ=              0.0000   YZ=              0.0000

 Normal termination of Gaussian 09 at Wed Feb 22 15:19:37 2017.
