 Gaussian 09, Revision E.01,
 Gaussian 09:  ES64L-G09RevE.01 30-Nov-2015

 ----------------------------------------------------------------------
 #uhf/gen scf(tight,novaracc,noincfock,fulldiag) stable(crhf) guess=rea
 d geom=nocrowd test
 ----------------------------------------------------------------------

 hf stability analysis of h10 triangular lattice, y= 1.2344594529595776
  alpha= 69.250000000000000
 ----------------------------------------------------------------------
 Symbolic Z-matrix:
 Charge =  0 Multiplicity = 1

                         Standard orientation:
 ---------------------------------------------------------------------
 Center     Atomic      Atomic             Coordinates (Angstroms)
 Number     Number       Type             X           Y           Z
 ---------------------------------------------------------------------
      1          1           0        1.749432    2.637416   -0.000000
      2          1           0        1.749432    1.317329   -0.000000
      3          1           0        0.874716    1.648730   -0.000000
      4          1           0        0.874716    0.328643   -0.000000
      5          1           0        0.000000    0.660043    0.000000
      6          1           0       -0.000000   -0.660043    0.000000
      7          1           0       -0.874716   -0.328643   -0.000000
      8          1           0       -0.874716   -1.648730   -0.000000
      9          1           0       -1.749432   -1.317329   -0.000000
     10          1           0       -1.749432   -2.637416   -0.000000
 ---------------------------------------------------------------------

 SCF Done:  E(UHF) =  -4.81265229976     A.U. after   16 cycles
 E2 =    -0.7318360026D-01 EUMP2 =    -0.48858359000108D+01

 Unable to determine electronic state:  partially filled degenerate orbitals.
 Alpha  occ. eigenvalues --   -0.81874  -0.69985  -0.57109  -0.37486  -0.25825
 Alpha virt. eigenvalues --    0.07728   0.16803   0.20729   0.38560   0.62188
  Beta  occ. eigenvalues --   -0.81874  -0.69985  -0.57109  -0.37486  -0.25825
  Beta virt. eigenvalues --    0.07728   0.16803   0.20729   0.38560   0.62188

 Mulliken charges and spin densities:
               1          2
     1  H    0.017486   0.517340
     2  H    0.045647  -0.489642
     3  H    0.038690  -0.248254
     4  H   -0.088126  -0.217809
     5  H   -0.013696  -0.336028
     6  H   -0.013696   0.336028
     7  H   -0.088126   0.217809
     8  H    0.038690   0.248254
     9  H    0.045647   0.489642
    10  H    0.017486  -0.517340
 Sum of Mulliken charges =  -0.00000   0.00000

 Dipole moment (field-independent basis, Debye):
    X=              0.0000    Y=              0.0000    Z=             -0.0000  Tot=              0.0000
 Quadrupole moment (field-independent basis, Debye-Ang):
   XX=            -13.0096   YY=            -12.4252   ZZ=            -13.0270
   XY=              1.9848   XZ=             -0.0000   YZ=             -0.0000

 Normal termination of Gaussian 09 at Wed Feb 22 15:24:39 2017.
