 Gaussian 09, Revision E.01,
 Gaussian 09:  ES64L-G09RevE.01 30-Nov-2015

 ----------------------------------------------------------------------
 #uhf/gen scf(tight,novaracc,noincfock,fulldiag) stable(crhf) guess=rea
 d geom=nocrowd test
 ----------------------------------------------------------------------

 hf stability analysis of h10 triangular lattice, y= 0.4890258879954954
 6 alpha= 22.500000000000000
 ----------------------------------------------------------------------
 Symbolic Z-matrix:
 Charge =  0 Multiplicity = 1

                         Standard orientation:
 ---------------------------------------------------------------------
 Center     Atomic      Atomic             Coordinates (Angstroms)
 Number     Number       Type             X           Y           Z
 ---------------------------------------------------------------------
      1          1           0        1.807204   -1.168261    0.000000
      2          1           0        1.807204   -2.446147    0.000000
      3          1           0        0.903602   -0.264659    0.000000
      4          1           0        0.903602   -1.542545    0.000000
      5          1           0        0.000000    0.638943    0.000000
      6          1           0       -0.000000   -0.638943   -0.000000
      7          1           0       -0.903602    1.542545    0.000000
      8          1           0       -0.903602    0.264659    0.000000
      9          1           0       -1.807204    2.446147    0.000000
     10          1           0       -1.807204    1.168261    0.000000
 ---------------------------------------------------------------------

 SCF Done:  E(UHF) =  -4.84203721329     A.U. after  114 cycles
 E2 =    -0.7330211853D-01 EUMP2 =    -0.49153393318249D+01

 Unable to determine electronic state:  partially filled degenerate orbitals.
 Alpha  occ. eigenvalues --   -0.82763  -0.70815  -0.56817  -0.36197  -0.28677
 Alpha virt. eigenvalues --    0.08656   0.16430   0.23212   0.38883   0.60906
  Beta  occ. eigenvalues --   -0.82763  -0.70815  -0.56817  -0.36197  -0.28677
  Beta virt. eigenvalues --    0.08656   0.16430   0.23212   0.38883   0.60906

 Mulliken charges and spin densities:
               1          2
     1  H    0.066463   0.460630
     2  H   -0.003915  -0.511951
     3  H   -0.104147   0.218255
     4  H    0.044008   0.240292
     5  H   -0.002409  -0.319305
     6  H   -0.002409   0.319305
     7  H    0.044008  -0.240292
     8  H   -0.104147  -0.218255
     9  H   -0.003915   0.511951
    10  H    0.066463  -0.460630
 Sum of Mulliken charges =   0.00000   0.00000

 Dipole moment (field-independent basis, Debye):
    X=              0.0000    Y=             -0.0000    Z=              0.0000  Tot=              0.0000
 Quadrupole moment (field-independent basis, Debye-Ang):
   XX=            -13.1373   YY=            -13.6559   ZZ=            -13.0085
   XY=             -1.2641   XZ=             -0.0000   YZ=             -0.0000

 Normal termination of Gaussian 09 at Wed Feb 22 15:15:27 2017.
