 Gaussian 09, Revision E.01,
 Gaussian 09:  ES64L-G09RevE.01 30-Nov-2015

 ----------------------------------------------------------------------
 #uhf/gen scf(tight,novaracc,noincfock,fulldiag) stable(crhf) guess=rea
 d geom=nocrowd test
 ----------------------------------------------------------------------

 hf stability analysis of h10 triangular lattice, y= 0.9659128830031019
 6 alpha= 58.250000000000000
 ----------------------------------------------------------------------
 Symbolic Z-matrix:
 Charge =  0 Multiplicity = 1

                         Standard orientation:
 ---------------------------------------------------------------------
 Center     Atomic      Atomic             Coordinates (Angstroms)
 Number     Number       Type             X           Y           Z
 ---------------------------------------------------------------------
      1          1           0        2.033107    1.581619   -0.000000
      2          1           0        2.033107    0.445721   -0.000000
      3          1           0        1.016554    1.074784   -0.000000
      4          1           0        1.016554   -0.061114   -0.000000
      5          1           0        0.000000    0.567949    0.000000
      6          1           0       -0.000000   -0.567949    0.000000
      7          1           0       -1.016554    0.061114   -0.000000
      8          1           0       -1.016554   -1.074784   -0.000000
      9          1           0       -2.033107   -0.445721   -0.000000
     10          1           0       -2.033107   -1.581619   -0.000000
 ---------------------------------------------------------------------

 SCF Done:  E(UHF) =  -4.90725027369     A.U. after   14 cycles
 E2 =    -0.6213256080D-01 EUMP2 =    -0.49693828344956D+01

 Unable to determine electronic state:  partially filled degenerate orbitals.
 Alpha  occ. eigenvalues --   -0.85282  -0.74141  -0.56252  -0.38415  -0.35600
 Alpha virt. eigenvalues --    0.04330   0.21633   0.28878   0.55347   0.64526
  Beta  occ. eigenvalues --   -0.85282  -0.74141  -0.56252  -0.38415  -0.35600
  Beta virt. eigenvalues --    0.04330   0.21633   0.28878   0.55347   0.64526

 Mulliken charges and spin densities:
               1          2
     1  H    0.019602   0.559463
     2  H    0.013147  -0.466289
     3  H    0.053184  -0.424898
     4  H   -0.066569   0.382508
     5  H   -0.019364   0.188096
     6  H   -0.019364  -0.188096
     7  H   -0.066569  -0.382508
     8  H    0.053184   0.424898
     9  H    0.013147   0.466289
    10  H    0.019602  -0.559463
 Sum of Mulliken charges =  -0.00000   0.00000

 Dipole moment (field-independent basis, Debye):
    X=             -0.0000    Y=             -0.0000    Z=             -0.0000  Tot=              0.0000
 Quadrupole moment (field-independent basis, Debye-Ang):
   XX=            -14.1663   YY=            -13.8669   ZZ=            -12.8918
   XY=              1.5443   XZ=              0.0000   YZ=             -0.0000

 Normal termination of Gaussian 09 at Wed Feb 22 15:22:29 2017.
