 Gaussian 09, Revision E.01,
 Gaussian 09:  ES64L-G09RevE.01 30-Nov-2015

 ------------------------
 #T ccsd/sto-3g scan test
 ------------------------

 T4 model (P4 with one H2 twisted oop) SEP calculation with RHF in the
 sto-3g basis
 ----------------------------------------------------------------------
 Symbolic Z-matrix:
 Charge =  0 Multiplicity = 1

 SCF Done:  E(RHF) =  -1.59207429623     A.U. after    5 cycles
 E2 =    -0.7156145299D-01 EUMP2 =    -0.16636357492203D+01

 Unable to determine electronic state:  an orbital has unidentified symmetry.
 Alpha  occ. eigenvalues --   -0.43339  -0.11648
 Alpha virt. eigenvalues --    0.01220   0.32118

 Mulliken charges:
               1
     1  H   -0.405680
     2  H    0.405680
     3  H   -0.405680
     4  H    0.405680
 Sum of Mulliken charges =  -0.00000

 Dipole moment (field-independent basis, Debye):
    X=              0.0000    Y=             -0.0000    Z=             -0.0000  Tot=              0.0000
 Variable Step   Value
 -------- ---- -----------
     1       1    0.087266
 ---------------------------------------------------------------------------------------------------
                            Z-MATRIX (ANGSTROMS AND DEGREES)
   CD    Cent   Atom    N1       Length/X        N2       Alpha/Y        N3        Beta/Z          J
 ---------------------------------------------------------------------------------------------------
      1      1  H
      2      2  H        1   1.600000(     1)
      3      3  H        2   1.600000(     2)      1   90.000(     4)

 SCF Done:  E(RHF) =  -1.68119395108     A.U. after   17 cycles
 E2 =    -0.1236751227D+00 EUMP2 =    -0.18048690737821D+01
 SCF Done:  E(RHF) =  -1.68285026013     A.U. after    4 cycles
 E2 =    -0.1232111530D+00 EUMP2 =    -0.18060614131031D+01
 SCF Done:  E(RHF) =  -1.68556033091     A.U. after    5 cycles
 E2 =    -0.1223653498D+00 EUMP2 =    -0.18079256807040D+01
 SCF Done:  E(RHF) =  -1.68923110965     A.U. after    5 cycles
 E2 =    -0.1210831861D+00 EUMP2 =    -0.18103142957172D+01
 SCF Done:  E(RHF) =  -1.69371273467     A.U. after    5 cycles
 E2 =    -0.1193647395D+00 EUMP2 =    -0.18130774741294D+01
 SCF Done:  E(RHF) =  -1.69880315238     A.U. after    5 cycles
 E2 =    -0.1172845996D+00 EUMP2 =    -0.18160877519646D+01
 SCF Done:  E(RHF) =  -1.70426853518     A.U. after    5 cycles
 E2 =    -0.1149768948D+00 EUMP2 =    -0.18192454299347D+01
 SCF Done:  E(RHF) =  -1.70987227854     A.U. after    5 cycles
 E2 =    -0.1125983215D+00 EUMP2 =    -0.18224706000747D+01
 SCF Done:  E(RHF) =  -1.71540239246     A.U. after    5 cycles
 E2 =    -0.1102909388D+00 EUMP2 =    -0.18256933312516D+01
 SCF Done:  E(RHF) =  -1.72068995890     A.U. after    5 cycles
 E2 =    -0.1081594123D+00 EUMP2 =    -0.18288493712054D+01
 SCF Done:  E(RHF) =  -1.72561642443     A.U. after    5 cycles
 E2 =    -0.1062651358D+00 EUMP2 =    -0.18318815601858D+01
 SCF Done:  E(RHF) =  -1.73011151481     A.U. after    5 cycles
 E2 =    -0.1046319293D+00 EUMP2 =    -0.18347434441331D+01
 SCF Done:  E(RHF) =  -1.73414532997     A.U. after    5 cycles
 E2 =    -0.1032565763D+00 EUMP2 =    -0.18374019062655D+01
 SCF Done:  E(RHF) =  -1.73771814080     A.U. after    5 cycles
 E2 =    -0.1021194239D+00 EUMP2 =    -0.18398375646606D+01
 SCF Done:  E(RHF) =  -1.74085045468     A.U. after    5 cycles
 E2 =    -0.1011927821D+00 EUMP2 =    -0.18420432368099D+01
 SCF Done:  E(RHF) =  -1.74357475891     A.U. after    5 cycles
 E2 =    -0.1004466212D+00 EUMP2 =    -0.18440213801267D+01
 SCF Done:  E(RHF) =  -1.74592939596     A.U. after    5 cycles
 E2 =    -0.9985194609D-01 EUMP2 =    -0.18457813420507D+01

                         Standard orientation:
 ---------------------------------------------------------------------
 Center     Atomic      Atomic             Coordinates (Angstroms)
 Number     Number       Type             X           Y           Z
 ---------------------------------------------------------------------
      1          1           0        0.000000    1.385641   -0.565685
      2          1           0        0.653197    0.461880    0.565685
      3          1           0       -0.653197   -0.461880    0.565685
      4          1           0       -0.000000   -1.385641   -0.565685
 ---------------------------------------------------------------------

 SCF Done:  E(RHF) =  -1.74795442056     A.U. after    5 cycles
 E2 =    -0.9938249978D-01 EUMP2 =    -0.18473369203421D+01
 Normal termination of Gaussian 09 at Mon Dec  5 12:45:23 2016.
