 Gaussian 09, Revision E.01,
 Gaussian 09:  ES64L-G09RevE.01 30-Nov-2015

 ----------------------------------------------------------------------
 #rhf/gen scf(symm,tight,novaracc,noincfock,fulldiag) stable(crhf) gues
 s=read geom=nocrowd test
 ----------------------------------------------------------------------

 ----------------------------------------------------------------------
 hf stability analysis of h10 triangular lattice, y= 2.3437412473608381
 ----------------------------------------------------------------------
 Symbolic Z-matrix:
 Charge =  0 Multiplicity = 1

                         Standard orientation:
 ---------------------------------------------------------------------
 Center     Atomic      Atomic             Coordinates (Angstroms)
 Number     Number       Type             X           Y           Z
 ---------------------------------------------------------------------
      1          1           0        0.979951    5.788631    0.000000
      2          1           0        0.979951    3.431980    0.000000
      3          1           0        0.489975    3.483478    0.000000
      4          1           0        0.489975    1.126827    0.000000
      5          1           0       -0.000000    1.178326    0.000000
      6          1           0       -0.000000   -1.178326    0.000000
      7          1           0       -0.489975   -1.126827    0.000000
      8          1           0       -0.489975   -3.483478    0.000000
      9          1           0       -0.979951   -3.431980    0.000000
     10          1           0       -0.979951   -5.788631    0.000000
 ---------------------------------------------------------------------

 SCF Done:  E(RHF) =  -4.49526874251     A.U. after    5 cycles
 E2 =    -0.9742841034D+00 EUMP2 =    -0.54695528459041D+01

 The electronic state is 1-AG.
 Alpha  occ. eigenvalues --   -0.73653  -0.72382  -0.70605  -0.68980  -0.20485
 Alpha virt. eigenvalues --   -0.15979   0.53743   0.58652   0.65445   0.71605

 Mulliken charges:
               1
     1  H    0.001132
     2  H    0.000033
     3  H   -0.001179
     4  H   -0.000117
     5  H    0.000132
     6  H    0.000132
     7  H   -0.000117
     8  H   -0.001179
     9  H    0.000033
    10  H    0.001132
 Sum of Mulliken charges =  -0.00000

 Dipole moment (field-independent basis, Debye):
    X=              0.0000    Y=             -0.0000    Z=              0.0000  Tot=              0.0000
 Quadrupole moment (field-independent basis, Debye-Ang):
   XX=            -12.6538   YY=            -15.1000   ZZ=            -13.4597
   XY=             -0.3775   XZ=              0.0000   YZ=             -0.0000

 Normal termination of Gaussian 09 at Mon Feb 13 14:33:43 2017.
