 Gaussian 09, Revision E.01,
 Gaussian 09:  ES64L-G09RevE.01 30-Nov-2015

 ----------------------------------------------------------------------
 #rhf/gen scf(symm,tight,novaracc,noincfock,fulldiag) stable(crhf) gues
 s=read geom=nocrowd test
 ----------------------------------------------------------------------

 hf stability analysis of h10 triangular lattice, y= 0.9612250668035587
 9
 ----------------------------------------------------------------------
 Symbolic Z-matrix:
 Charge =  0 Multiplicity = 1

                         Standard orientation:
 ---------------------------------------------------------------------
 Center     Atomic      Atomic             Coordinates (Angstroms)
 Number     Number       Type             X           Y           Z
 ---------------------------------------------------------------------
      1          1           0        2.037487    1.560477    0.000000
      2          1           0        2.037487    0.427021    0.000000
      3          1           0        1.018743    1.063602    0.000000
      4          1           0        1.018743   -0.069854    0.000000
      5          1           0       -0.000000    0.566728    0.000000
      6          1           0       -0.000000   -0.566728   -0.000000
      7          1           0       -1.018743    0.069854    0.000000
      8          1           0       -1.018743   -1.063602    0.000000
      9          1           0       -2.037487   -0.427021    0.000000
     10          1           0       -2.037487   -1.560477    0.000000
 ---------------------------------------------------------------------

 SCF Done:  E(RHF) =  -4.86759851069     A.U. after    9 cycles
 E2 =    -0.1125005397D+00 EUMP2 =    -0.49800990503887D+01

 The electronic state is 1-AG.
 Alpha  occ. eigenvalues --   -0.84871  -0.74056  -0.54977  -0.35795  -0.30410
 Alpha virt. eigenvalues --   -0.01056   0.23153   0.24584   0.54950   0.64898

 Mulliken charges:
               1
     1  H   -0.096962
     2  H    0.144006
     3  H    0.100065
     4  H   -0.117838
     5  H   -0.029271
     6  H   -0.029271
     7  H   -0.117838
     8  H    0.100065
     9  H    0.144006
    10  H   -0.096962
 Sum of Mulliken charges =   0.00000

 Dipole moment (field-independent basis, Debye):
    X=             -0.0000    Y=             -0.0000    Z=              0.0000  Tot=              0.0000
 Quadrupole moment (field-independent basis, Debye-Ang):
   XX=            -14.1411   YY=            -15.4076   ZZ=            -12.9460
   XY=             -1.5266   XZ=              0.0000   YZ=              0.0000

 Normal termination of Gaussian 09 at Mon Feb 13 14:33:08 2017.
