 Gaussian 09, Revision E.01,
 Gaussian 09:  ES64L-G09RevE.01 30-Nov-2015

 ----------------------------------------------------------------------
 #rhf/gen scf(symm,tight,novaracc,noincfock,fulldiag) stable(crhf) gues
 s=read geom=nocrowd test
 ----------------------------------------------------------------------

 ----------------------------------------------------------------------
 hf stability analysis of h10 triangular lattice, y= 1.5813852119866876
 ----------------------------------------------------------------------
 Symbolic Z-matrix:
 Charge =  0 Multiplicity = 1

                         Standard orientation:
 ---------------------------------------------------------------------
 Center     Atomic      Atomic             Coordinates (Angstroms)
 Number     Number       Type             X           Y           Z
 ---------------------------------------------------------------------
      1          1           0        1.422937    3.728944    0.000000
      2          1           0        1.422937    2.105962    0.000000
      3          1           0        0.711469    2.270218    0.000000
      4          1           0        0.711469    0.647236    0.000000
      5          1           0       -0.000000    0.811491    0.000000
      6          1           0       -0.000000   -0.811491    0.000000
      7          1           0       -0.711469   -0.647236   -0.000000
      8          1           0       -0.711469   -2.270218   -0.000000
      9          1           0       -1.422937   -2.105962   -0.000000
     10          1           0       -1.422937   -3.728944   -0.000000
 ---------------------------------------------------------------------

 SCF Done:  E(RHF) =  -4.89792643660     A.U. after    8 cycles
 E2 =    -0.6225478548D+00 EUMP2 =    -0.55204742914451D+01

 The electronic state is 1-AG.
 Alpha  occ. eigenvalues --   -0.75267  -0.70033  -0.61167  -0.50481  -0.15944
 Alpha virt. eigenvalues --   -0.09655   0.24554   0.34360   0.49488   0.64658

 Mulliken charges:
               1
     1  H   -0.047887
     2  H    0.012826
     3  H    0.030730
     4  H    0.000985
     5  H    0.003346
     6  H    0.003346
     7  H    0.000985
     8  H    0.030730
     9  H    0.012826
    10  H   -0.047887
 Sum of Mulliken charges =  -0.00000

 Dipole moment (field-independent basis, Debye):
    X=              0.0000    Y=              0.0000    Z=              0.0000  Tot=              0.0000
 Quadrupole moment (field-independent basis, Debye-Ang):
   XX=            -12.6625   YY=            -21.8197   ZZ=            -12.9030
   XY=             -3.8893   XZ=              0.0000   YZ=             -0.0000

 Normal termination of Gaussian 09 at Mon Feb 13 14:33:33 2017.
