 Gaussian 09, Revision E.01,
 Gaussian 09:  ES64L-G09RevE.01 30-Nov-2015

 ----------------------------------------------------------------------
 #rhf/gen scf(symm,tight,novaracc,noincfock,fulldiag) stable(crhf) gues
 s=read geom=nocrowd test
 ----------------------------------------------------------------------

 ----------------------------------------------------------------------
 hf stability analysis of h10 triangular lattice, y= 1.0000000336490449
 ----------------------------------------------------------------------
 Symbolic Z-matrix:
 Charge =  0 Multiplicity = 1

                         Standard orientation:
 ---------------------------------------------------------------------
 Center     Atomic      Atomic             Coordinates (Angstroms)
 Number     Number       Type             X           Y           Z
 ---------------------------------------------------------------------
      1          1           0        2.000000    1.732051    0.000000
      2          1           0        2.000000    0.577350    0.000000
      3          1           0        1.000000    1.154701    0.000000
      4          1           0        1.000000    0.000000    0.000000
      5          1           0        0.000000    0.577350    0.000000
      6          1           0       -0.000000   -0.577350    0.000000
      7          1           0       -1.000000    0.000000    0.000000
      8          1           0       -1.000000   -1.154701    0.000000
      9          1           0       -2.000000   -0.577350    0.000000
     10          1           0       -2.000000   -1.732051    0.000000
 ---------------------------------------------------------------------

 SCF Done:  E(RHF) =  -4.86778860828     A.U. after    9 cycles
 E2 =    -0.1131275946D+00 EUMP2 =    -0.49809162028467D+01

 The electronic state is 1-AG.
 Alpha  occ. eigenvalues --   -0.84190  -0.74021  -0.55120  -0.33972  -0.30835
 Alpha virt. eigenvalues --   -0.00119   0.21977   0.23797   0.56008   0.58262

 Mulliken charges:
               1
     1  H   -0.090928
     2  H    0.145706
     3  H    0.107888
     4  H   -0.120960
     5  H   -0.041706
     6  H   -0.041706
     7  H   -0.120960
     8  H    0.107888
     9  H    0.145706
    10  H   -0.090928
 Sum of Mulliken charges =  -0.00000

 Dipole moment (field-independent basis, Debye):
    X=              0.0000    Y=             -0.0000    Z=              0.0000  Tot=              0.0000
 Quadrupole moment (field-independent basis, Debye-Ang):
   XX=            -13.5824   YY=            -15.4822   ZZ=            -12.9883
   XY=             -1.0164   XZ=             -0.0000   YZ=             -0.0000

 Normal termination of Gaussian 09 at Mon Feb 13 14:33:10 2017.
