 Gaussian 09, Revision E.01,
 Gaussian 09:  ES64L-G09RevE.01 30-Nov-2015

 ----------------------------------------------------------------------
 #rhf/gen scf(symm,tight,novaracc,noincfock,fulldiag) stable(crhf) gues
 s=read geom=nocrowd test
 ----------------------------------------------------------------------

 hf stability analysis of h10 triangular lattice, y= 0.7732164846609803
 6
 ----------------------------------------------------------------------
 Symbolic Z-matrix:
 Charge =  0 Multiplicity = 1

                         Standard orientation:
 ---------------------------------------------------------------------
 Center     Atomic      Atomic             Coordinates (Angstroms)
 Number     Number       Type             X           Y           Z
 ---------------------------------------------------------------------
      1          1           0        2.148485    0.612475    0.000000
      2          1           0        2.148485   -0.462422   -0.000000
      3          1           0        1.074243    0.574962    0.000000
      4          1           0        1.074243   -0.499935   -0.000000
      5          1           0       -0.000000    0.537449    0.000000
      6          1           0       -0.000000   -0.537449    0.000000
      7          1           0       -1.074243    0.499935   -0.000000
      8          1           0       -1.074243   -0.574962    0.000000
      9          1           0       -2.148485    0.462422   -0.000000
     10          1           0       -2.148485   -0.612475    0.000000
 ---------------------------------------------------------------------

 SCF Done:  E(RHF) =  -4.83959478176     A.U. after    9 cycles
 E2 =    -0.1163751638D+00 EUMP2 =    -0.49559699455309D+01

 The electronic state is 1-AG.
 Alpha  occ. eigenvalues --   -0.86373  -0.73540  -0.54344  -0.40875  -0.28502
 Alpha virt. eigenvalues --   -0.03326   0.20732   0.34007   0.51746   0.92135

 Mulliken charges:
               1
     1  H    0.002795
     2  H    0.031400
     3  H   -0.014606
     4  H   -0.037437
     5  H    0.017847
     6  H    0.017847
     7  H   -0.037437
     8  H   -0.014606
     9  H    0.031400
    10  H    0.002795
 Sum of Mulliken charges =   0.00000

 Dipole moment (field-independent basis, Debye):
    X=              0.0000    Y=              0.0000    Z=              0.0000  Tot=              0.0000
 Quadrupole moment (field-independent basis, Debye-Ang):
   XX=            -16.1462   YY=            -13.3728   ZZ=            -12.7951
   XY=             -0.2840   XZ=             -0.0000   YZ=             -0.0000

 Normal termination of Gaussian 09 at Mon Feb 13 14:32:51 2017.
