 Gaussian 09, Revision E.01,
 Gaussian 09:  ES64L-G09RevE.01 30-Nov-2015

 ----------------------------------------------------------------------
 #rhf/gen scf(symm,tight,novaracc,noincfock,fulldiag) stable(crhf) gues
 s=read geom=nocrowd test
 ----------------------------------------------------------------------

 hf stability analysis of h10 triangular lattice, y= 0.3794068973118231
 4
 ----------------------------------------------------------------------
 Symbolic Z-matrix:
 Charge =  0 Multiplicity = 1

                         Standard orientation:
 ---------------------------------------------------------------------
 Center     Atomic      Atomic             Coordinates (Angstroms)
 Number     Number       Type             X           Y           Z
 ---------------------------------------------------------------------
      1          1           0        1.472548   -1.985307    0.000000
      2          1           0        1.472548   -3.553611    0.000000
      3          1           0        0.736274   -0.600578    0.000000
      4          1           0        0.736274   -2.168881    0.000000
      5          1           0       -0.000000    0.784152   -0.000000
      6          1           0       -0.000000   -0.784152   -0.000000
      7          1           0       -0.736274    2.168881    0.000000
      8          1           0       -0.736274    0.600578    0.000000
      9          1           0       -1.472548    3.553611    0.000000
     10          1           0       -1.472548    1.985307    0.000000
 ---------------------------------------------------------------------

 SCF Done:  E(RHF) =  -4.87110086522     A.U. after    9 cycles
 E2 =    -0.5964798783D+00 EUMP2 =    -0.54675807435420D+01

 The electronic state is 1-AG.
 Alpha  occ. eigenvalues --   -0.75878  -0.70134  -0.60342  -0.48331  -0.14676
 Alpha virt. eigenvalues --   -0.08356   0.21676   0.31959   0.47862   0.63834

 Mulliken charges:
               1
     1  H    0.013217
     2  H   -0.061505
     3  H    0.003286
     4  H    0.042587
     5  H    0.002415
     6  H    0.002415
     7  H    0.042587
     8  H    0.003286
     9  H   -0.061505
    10  H    0.013217
 Sum of Mulliken charges =  -0.00000

 Dipole moment (field-independent basis, Debye):
    X=             -0.0000    Y=              0.0000    Z=             -0.0000  Tot=              0.0000
 Quadrupole moment (field-independent basis, Debye-Ang):
   XX=            -12.9520   YY=            -22.5968   ZZ=            -12.8357
   XY=              4.6297   XZ=              0.0000   YZ=             -0.0000

 Normal termination of Gaussian 09 at Mon Feb 13 14:32:11 2017.
