 Gaussian 09, Revision E.01,
 Gaussian 09:  ES64L-G09RevE.01 30-Nov-2015

 ----------------------------------------------------------------------
 #rhf/gen scf(symm,tight,novaracc,noincfock,fulldiag) stable(crhf) gues
 s=read geom=nocrowd test
 ----------------------------------------------------------------------

 ----------------------------------------------------------------------
 hf stability analysis of h10 triangular lattice, y= 1.2948927059181552
 ----------------------------------------------------------------------
 Symbolic Z-matrix:
 Charge =  0 Multiplicity = 1

                         Standard orientation:
 ---------------------------------------------------------------------
 Center     Atomic      Atomic             Coordinates (Angstroms)
 Number     Number       Type             X           Y           Z
 ---------------------------------------------------------------------
      1          1           0        1.686303    2.843122   -0.000000
      2          1           0        1.686303    1.473617   -0.000000
      3          1           0        0.843152    1.763938   -0.000000
      4          1           0        0.843152    0.394432   -0.000000
      5          1           0        0.000000    0.684753    0.000000
      6          1           0       -0.000000   -0.684753    0.000000
      7          1           0       -0.843152   -0.394432   -0.000000
      8          1           0       -0.843152   -1.763938   -0.000000
      9          1           0       -1.686303   -1.473617   -0.000000
     10          1           0       -1.686303   -2.843122   -0.000000
 ---------------------------------------------------------------------

 SCF Done:  E(RHF) =  -4.70802478095     A.U. after   12 cycles
 E2 =    -0.1443530701D+00 EUMP2 =    -0.48523778510589D+01

 The electronic state is 1-AG.
 Alpha  occ. eigenvalues --   -0.76623  -0.71197  -0.55089  -0.35441  -0.13934
 Alpha virt. eigenvalues --   -0.00931   0.13451   0.17899   0.41108   0.64719

 Mulliken charges:
               1
     1  H    0.077336
     2  H   -0.029027
     3  H    0.153346
     4  H    0.000016
     5  H   -0.201670
     6  H   -0.201670
     7  H    0.000016
     8  H    0.153346
     9  H   -0.029027
    10  H    0.077336
 Sum of Mulliken charges =  -0.00000

 Dipole moment (field-independent basis, Debye):
    X=              0.0000    Y=              0.0000    Z=             -0.0000  Tot=              0.0000
 Quadrupole moment (field-independent basis, Debye-Ang):
   XX=            -12.1349   YY=             -5.8025   ZZ=            -13.1478
   XY=              5.0471   XZ=              0.0000   YZ=              0.0000

 Normal termination of Gaussian 09 at Mon Feb 13 14:33:25 2017.
