 Gaussian 09, Revision E.01,
 Gaussian 09:  ES64L-G09RevE.01 30-Nov-2015

 ----------------------------------------------------------------------
 #rhf/gen scf(symm,tight,novaracc,noincfock,fulldiag) stable(crhf) gues
 s=read geom=nocrowd test
 ----------------------------------------------------------------------

 hf stability analysis of h10 triangular lattice, y= 0.5070038553873883
 5
 ----------------------------------------------------------------------
 Symbolic Z-matrix:
 Charge =  0 Multiplicity = 1

                         Standard orientation:
 ---------------------------------------------------------------------
 Center     Atomic      Atomic             Coordinates (Angstroms)
 Number     Number       Type             X           Y           Z
 ---------------------------------------------------------------------
      1          1           0        1.852684   -1.044906    0.000000
      2          1           0        1.852684   -2.291423    0.000000
      3          1           0        0.926342   -0.210824    0.000000
      4          1           0        0.926342   -1.457340    0.000000
      5          1           0       -0.000000    0.623258    0.000000
      6          1           0       -0.000000   -0.623258   -0.000000
      7          1           0       -0.926342    1.457340    0.000000
      8          1           0       -0.926342    0.210824    0.000000
      9          1           0       -1.852684    2.291423    0.000000
     10          1           0       -1.852684    1.044906    0.000000
 ---------------------------------------------------------------------

 SCF Done:  E(RHF) =  -4.82604855235     A.U. after    9 cycles
 E2 =    -0.1212373482D+00 EUMP2 =    -0.49472859005794D+01

 The electronic state is 1-AG.
 Alpha  occ. eigenvalues --   -0.80958  -0.73199  -0.55331  -0.33028  -0.25151
 Alpha virt. eigenvalues --    0.02884   0.14797   0.23321   0.41808   0.60214

 Mulliken charges:
               1
     1  H    0.113213
     2  H   -0.024596
     3  H   -0.113226
     4  H    0.112128
     5  H   -0.087520
     6  H   -0.087520
     7  H    0.112128
     8  H   -0.113226
     9  H   -0.024596
    10  H    0.113213
 Sum of Mulliken charges =  -0.00000

 Dipole moment (field-independent basis, Debye):
    X=             -0.0000    Y=              0.0000    Z=              0.0000  Tot=              0.0000
 Quadrupole moment (field-independent basis, Debye-Ang):
   XX=            -12.0178   YY=            -12.9731   ZZ=            -13.1235
   XY=             -2.1244   XZ=             -0.0000   YZ=              0.0000

 Normal termination of Gaussian 09 at Mon Feb 13 14:31:57 2017.
