 Gaussian 09, Revision E.01,
 Gaussian 09:  ES64L-G09RevE.01 30-Nov-2015

 ----------------------------------------------------------------------
 #rhf/gen scf(symm,tight,novaracc,noincfock,fulldiag) stable(crhf) gues
 s=read geom=nocrowd test
 ----------------------------------------------------------------------

 ----------------------------------------------------------------------
 hf stability analysis of h10 triangular lattice, y= 1.3742008147382716
 ----------------------------------------------------------------------
 Symbolic Z-matrix:
 Charge =  0 Multiplicity = 1

                         Standard orientation:
 ---------------------------------------------------------------------
 Center     Atomic      Atomic             Coordinates (Angstroms)
 Number     Number       Type             X           Y           Z
 ---------------------------------------------------------------------
      1          1           0        1.607110    3.101133    0.000000
      2          1           0        1.607110    1.664143    0.000000
      3          1           0        0.803555    1.909814    0.000000
      4          1           0        0.803555    0.472824    0.000000
      5          1           0        0.000000    0.718495    0.000000
      6          1           0       -0.000000   -0.718495   -0.000000
      7          1           0       -0.803555   -0.472824   -0.000000
      8          1           0       -0.803555   -1.909814   -0.000000
      9          1           0       -1.607110   -1.664143   -0.000000
     10          1           0       -1.607110   -3.101133   -0.000000
 ---------------------------------------------------------------------

 SCF Done:  E(RHF) =  -4.74517878739     A.U. after   11 cycles
 E2 =    -0.4724025766D+00 EUMP2 =    -0.52175813639684D+01

 The electronic state is 1-AG.
 Alpha  occ. eigenvalues --   -0.77260  -0.70495  -0.58010  -0.42213  -0.10771
 Alpha virt. eigenvalues --   -0.04507   0.14584   0.25767   0.43705   0.61956

 Mulliken charges:
               1
     1  H   -0.076093
     2  H   -0.023208
     3  H    0.112235
     4  H    0.039391
     5  H   -0.052324
     6  H   -0.052324
     7  H    0.039391
     8  H    0.112235
     9  H   -0.023208
    10  H   -0.076093
 Sum of Mulliken charges =  -0.00000

 Dipole moment (field-independent basis, Debye):
    X=             -0.0000    Y=             -0.0000    Z=              0.0000  Tot=              0.0000
 Quadrupole moment (field-independent basis, Debye-Ang):
   XX=            -14.1501   YY=            -21.2303   ZZ=            -12.7007
   XY=             -5.4160   XZ=             -0.0000   YZ=             -0.0000

 Normal termination of Gaussian 09 at Mon Feb 13 14:33:28 2017.
