 Gaussian 09, Revision E.01,
 Gaussian 09:  ES64L-G09RevE.01 30-Nov-2015

 ----------------------------------------------------------------------
 #rhf/gen scf(symm,tight,novaracc,noincfock,fulldiag) stable(crhf) gues
 s=read geom=nocrowd test
 ----------------------------------------------------------------------

 hf stability analysis of h10 triangular lattice, y= 0.3350007865764852
 4
 ----------------------------------------------------------------------
 Symbolic Z-matrix:
 Charge =  0 Multiplicity = 1

                         Standard orientation:
 ---------------------------------------------------------------------
 Center     Atomic      Atomic             Coordinates (Angstroms)
 Number     Number       Type             X           Y           Z
 ---------------------------------------------------------------------
      1          1           0        1.315383   -2.377845   -0.000000
      2          1           0        1.315383   -4.133532   -0.000000
      3          1           0        0.657692   -0.750001   -0.000000
      4          1           0        0.657692   -2.505687   -0.000000
      5          1           0        0.000000    0.877843    0.000000
      6          1           0       -0.000000   -0.877843    0.000000
      7          1           0       -0.657692    2.505687    0.000000
      8          1           0       -0.657692    0.750001    0.000000
      9          1           0       -1.315383    4.133532    0.000000
     10          1           0       -1.315383    2.377845    0.000000
 ---------------------------------------------------------------------

 SCF Done:  E(RHF) =  -4.91299438227     A.U. after    7 cycles
 E2 =    -0.6894017005D+00 EUMP2 =    -0.56023960828027D+01

 The electronic state is 1-AG.
 Alpha  occ. eigenvalues --   -0.74189  -0.70022  -0.63131  -0.55226  -0.18036
 Alpha virt. eigenvalues --   -0.12029   0.31003   0.39758   0.53068   0.66261

 Mulliken charges:
               1
     1  H    0.008491
     2  H   -0.023893
     3  H   -0.000461
     4  H    0.013509
     5  H    0.002355
     6  H    0.002355
     7  H    0.013509
     8  H   -0.000461
     9  H   -0.023893
    10  H    0.008491
 Sum of Mulliken charges =   0.00000

 Dipole moment (field-independent basis, Debye):
    X=              0.0000    Y=              0.0000    Z=             -0.0000  Tot=              0.0000
 Quadrupole moment (field-independent basis, Debye-Ang):
   XX=            -12.3341   YY=            -19.8389   ZZ=            -13.0505
   XY=              2.4949   XZ=             -0.0000   YZ=             -0.0000

 Normal termination of Gaussian 09 at Mon Feb 13 14:32:15 2017.
