 Gaussian 09, Revision E.01,
 Gaussian 09:  ES64L-G09RevE.01 30-Nov-2015

 ----------------------------------------------------------------------
 #uhf/gen scf(tight,novaracc,noincfock,fulldiag, ) stable(crhf) guess=r
 ead geom=nocrowd test
 ----------------------------------------------------------------------

 hf stability analysis of h10 triangular lattice, y= 2.5066432657105051
  alpha= 84.750000000000000
 ----------------------------------------------------------------------
 Symbolic Z-matrix:
 Charge =  0 Multiplicity = 3

                         Standard orientation:
 ---------------------------------------------------------------------
 Center     Atomic      Atomic             Coordinates (Angstroms)
 Number     Number       Type             X           Y           Z
 ---------------------------------------------------------------------
      1          1           0        0.917448    6.208706   -0.000000
      2          1           0        0.917448    3.691503   -0.000000
      3          1           0        0.458724    3.733654   -0.000000
      4          1           0        0.458724    1.216451   -0.000000
      5          1           0        0.000000    1.258602   -0.000000
      6          1           0       -0.000000   -1.258602    0.000000
      7          1           0       -0.458724   -1.216451    0.000000
      8          1           0       -0.458724   -3.733654    0.000000
      9          1           0       -0.917448   -3.691503    0.000000
     10          1           0       -0.917448   -6.208706    0.000000
 ---------------------------------------------------------------------

 SCF Done:  E(UHF) =  -4.60821854065     A.U. after    6 cycles
 E2 =    -0.2616137857D-01 EUMP2 =    -0.46343799192175D+01

 The electronic state is 3-BU.
 Alpha  occ. eigenvalues --   -0.74111  -0.73317  -0.72182  -0.71127  -0.49845
 Alpha  occ. eigenvalues --   -0.49844
 Alpha virt. eigenvalues --    0.58596   0.62692   0.68253   0.73202
  Beta  occ. eigenvalues --   -0.74045  -0.73140  -0.71993  -0.71048
  Beta virt. eigenvalues --    0.12989   0.12990   0.58614   0.62738   0.68300
  Beta virt. eigenvalues --    0.73221

 Mulliken charges and spin densities:
               1          2
     1  H    0.002258   1.002257
     2  H   -0.000687  -0.001124
     3  H   -0.001569  -0.001133
     4  H   -0.000051  -0.000004
     5  H    0.000049   0.000003
     6  H    0.000049   0.000003
     7  H   -0.000051  -0.000004
     8  H   -0.001569  -0.001133
     9  H   -0.000687  -0.001124
    10  H    0.002258   1.002257
 Sum of Mulliken charges =  -0.00000   2.00000

 Dipole moment (field-independent basis, Debye):
    X=              0.0000    Y=             -0.0000    Z=              0.0000  Tot=              0.0000
 Quadrupole moment (field-independent basis, Debye-Ang):
   XX=            -12.7731   YY=            -14.4303   ZZ=            -13.5074
   XY=             -0.2158   XZ=              0.0000   YZ=              0.0000

 Normal termination of Gaussian 09 at Thu Feb 23 12:29:51 2017.
