 Gaussian 09, Revision E.01,
 Gaussian 09:  ES64L-G09RevE.01 30-Nov-2015

 ----------------------------------------------------------------------
 #uhf/gen scf(tight,novaracc,noincfock,fulldiag, ) stable(crhf) guess=r
 ead geom=nocrowd test
 ----------------------------------------------------------------------

 hf stability analysis of h10 triangular lattice, y= 0.7115635020464597
 9 alpha= 41.250000000000000
 ----------------------------------------------------------------------
 Symbolic Z-matrix:
 Charge =  0 Multiplicity = 3

                         Standard orientation:
 ---------------------------------------------------------------------
 Center     Atomic      Atomic             Coordinates (Angstroms)
 Number     Number       Type             X           Y           Z
 ---------------------------------------------------------------------
      1          1           0        2.139927    0.257871   -0.000000
      2          1           0        2.139927   -0.821325   -0.000000
      3          1           0        1.069964    0.398735   -0.000000
      4          1           0        1.069964   -0.680461   -0.000000
      5          1           0       -0.000000    0.539598    0.000000
      6          1           0       -0.000000   -0.539598    0.000000
      7          1           0       -1.069964    0.680461   -0.000000
      8          1           0       -1.069964   -0.398735   -0.000000
      9          1           0       -2.139927    0.821325   -0.000000
     10          1           0       -2.139927   -0.257871   -0.000000
 ---------------------------------------------------------------------

 SCF Done:  E(UHF) =  -4.92316813503     A.U. after   12 cycles
 E2 =    -0.7238591172D-01 EUMP2 =    -0.49955540467498D+01

 The electronic state is 3-BU.
 Alpha  occ. eigenvalues --   -0.90334  -0.81525  -0.57889  -0.48568  -0.36786
 Alpha  occ. eigenvalues --   -0.34872
 Alpha virt. eigenvalues --    0.14837   0.29976   0.44553   0.85632
  Beta  occ. eigenvalues --   -0.84385  -0.66529  -0.49232  -0.40427
  Beta virt. eigenvalues --    0.02888   0.04529   0.23285   0.39893   0.59310
  Beta virt. eigenvalues --    0.92155

 Mulliken charges and spin densities:
               1          2
     1  H    0.026443   0.242461
     2  H    0.023480   0.349163
     3  H   -0.023433   0.367637
     4  H   -0.018360   0.333831
     5  H   -0.008130  -0.293093
     6  H   -0.008130  -0.293093
     7  H   -0.018360   0.333831
     8  H   -0.023433   0.367637
     9  H    0.023480   0.349163
    10  H    0.026443   0.242461
 Sum of Mulliken charges =  -0.00000   2.00000

 Dipole moment (field-independent basis, Debye):
    X=             -0.0000    Y=              0.0000    Z=             -0.0000  Tot=              0.0000
 Quadrupole moment (field-independent basis, Debye-Ang):
   XX=            -13.2885   YY=            -15.3201   ZZ=            -12.8586
   XY=             -0.3231   XZ=             -0.0000   YZ=             -0.0000

 Normal termination of Gaussian 09 at Thu Feb 23 12:22:44 2017.
