 Gaussian 09, Revision E.01,
 Gaussian 09:  ES64L-G09RevE.01 30-Nov-2015

 ----------------------------------------------------------------------
 #uhf/gen scf(tight,novaracc,noincfock,fulldiag, ) stable(crhf) guess=r
 ead geom=nocrowd test
 ----------------------------------------------------------------------

 hf stability analysis of h10 triangular lattice, y= 1.1954046164231349
  alpha= 68.000000000000000
 ----------------------------------------------------------------------
 Symbolic Z-matrix:
 Charge =  0 Multiplicity = 3

                         Standard orientation:
 ---------------------------------------------------------------------
 Center     Atomic      Atomic             Coordinates (Angstroms)
 Number     Number       Type             X           Y           Z
 ---------------------------------------------------------------------
      1          1           0        1.791226    2.499511    0.000000
      2          1           0        1.791226    1.210226    0.000000
      3          1           0        0.895613    1.572077    0.000000
      4          1           0        0.895613    0.282792    0.000000
      5          1           0        0.000000    0.644643    0.000000
      6          1           0       -0.000000   -0.644643   -0.000000
      7          1           0       -0.895613   -0.282792   -0.000000
      8          1           0       -0.895613   -1.572077   -0.000000
      9          1           0       -1.791226   -1.210226   -0.000000
     10          1           0       -1.791226   -2.499511   -0.000000
 ---------------------------------------------------------------------

 SCF Done:  E(UHF) =  -4.87005557483     A.U. after   13 cycles
 E2 =    -0.4366047632D-01 EUMP2 =    -0.49137160511554D+01

 The electronic state is 3-BU.
 Alpha  occ. eigenvalues --   -0.84370  -0.75281  -0.62538  -0.44230  -0.33014
 Alpha  occ. eigenvalues --   -0.31013
 Alpha virt. eigenvalues --    0.17259   0.17728   0.34510   0.56943
  Beta  occ. eigenvalues --   -0.80638  -0.71587  -0.53187  -0.35495
  Beta virt. eigenvalues --    0.07700   0.16642   0.21566   0.28736   0.43496
  Beta virt. eigenvalues --    0.59690

 Mulliken charges and spin densities:
               1          2
     1  H   -0.091953   0.718983
     2  H    0.006568   0.465049
     3  H    0.119221  -0.295215
     4  H   -0.015375  -0.478976
     5  H   -0.018461   0.590159
     6  H   -0.018461   0.590159
     7  H   -0.015375  -0.478976
     8  H    0.119221  -0.295215
     9  H    0.006568   0.465049
    10  H   -0.091953   0.718983
 Sum of Mulliken charges =  -0.00000   2.00000

 Dipole moment (field-independent basis, Debye):
    X=              0.0000    Y=             -0.0000    Z=              0.0000  Tot=              0.0000
 Quadrupole moment (field-independent basis, Debye-Ang):
   XX=            -15.7517   YY=            -18.8400   ZZ=            -12.8036
   XY=             -3.5968   XZ=             -0.0000   YZ=             -0.0000

 Normal termination of Gaussian 09 at Thu Feb 23 12:27:11 2017.
