 Gaussian 09, Revision E.01,
 Gaussian 09:  ES64L-G09RevE.01 30-Nov-2015

 ----------------------------------------------------------------------
 #uhf/gen scf(tight,novaracc,noincfock,fulldiag, ) stable(crhf) guess=r
 ead geom=nocrowd test
 ----------------------------------------------------------------------

 hf stability analysis of h10 triangular lattice, y= 0.7466864790071482
 4 alpha= 44.000000000000000
 ----------------------------------------------------------------------
 Symbolic Z-matrix:
 Charge =  0 Multiplicity = 3

                         Standard orientation:
 ---------------------------------------------------------------------
 Center     Atomic      Atomic             Coordinates (Angstroms)
 Number     Number       Type             X           Y           Z
 ---------------------------------------------------------------------
      1          1           0        2.148485    0.462422   -0.000000
      2          1           0        2.148485   -0.612475   -0.000000
      3          1           0        1.074243    0.499935   -0.000000
      4          1           0        1.074243   -0.574962   -0.000000
      5          1           0       -0.000000    0.537449    0.000000
      6          1           0       -0.000000   -0.537449    0.000000
      7          1           0       -1.074243    0.574962    0.000000
      8          1           0       -1.074243   -0.499935    0.000000
      9          1           0       -2.148485    0.612475    0.000000
     10          1           0       -2.148485   -0.462422    0.000000
 ---------------------------------------------------------------------

 SCF Done:  E(UHF) =  -4.92487113180     A.U. after   12 cycles
 E2 =    -0.7203039453D-01 EUMP2 =    -0.49969015263258D+01

 The electronic state is 3-BU.
 Alpha  occ. eigenvalues --   -0.90492  -0.81648  -0.57735  -0.48899  -0.37199
 Alpha  occ. eigenvalues --   -0.34689
 Alpha virt. eigenvalues --    0.14602   0.31294   0.43752   0.88210
  Beta  occ. eigenvalues --   -0.84541  -0.66428  -0.49272  -0.40872
  Beta virt. eigenvalues --    0.02761   0.04941   0.22867   0.40559   0.59353
  Beta virt. eigenvalues --    0.94677

 Mulliken charges and spin densities:
               1          2
     1  H    0.026009   0.276499
     2  H    0.024852   0.306692
     3  H   -0.025336   0.367576
     4  H   -0.023913   0.358315
     5  H   -0.001612  -0.309082
     6  H   -0.001612  -0.309082
     7  H   -0.023913   0.358315
     8  H   -0.025336   0.367576
     9  H    0.024852   0.306692
    10  H    0.026009   0.276499
 Sum of Mulliken charges =   0.00000   2.00000

 Dipole moment (field-independent basis, Debye):
    X=              0.0000    Y=             -0.0000    Z=              0.0000  Tot=              0.0000
 Quadrupole moment (field-independent basis, Debye-Ang):
   XX=            -13.3573   YY=            -15.3197   ZZ=            -12.8499
   XY=             -0.0789   XZ=              0.0000   YZ=              0.0000

 Normal termination of Gaussian 09 at Thu Feb 23 12:23:11 2017.
