 Gaussian 09, Revision E.01,
 Gaussian 09:  ES64L-G09RevE.01 30-Nov-2015

 ----------------------------------------------------------------------
 #uhf/gen scf(tight,novaracc,noincfock,fulldiag, ) stable(crhf) guess=r
 ead geom=nocrowd test
 ----------------------------------------------------------------------

 hf stability analysis of h10 triangular lattice, y= 0.4266589340790049
 6 alpha= 17.500000000000000
 ----------------------------------------------------------------------
 Symbolic Z-matrix:
 Charge =  0 Multiplicity = 3

                         Standard orientation:
 ---------------------------------------------------------------------
 Center     Atomic      Atomic             Coordinates (Angstroms)
 Number     Number       Type             X           Y           Z
 ---------------------------------------------------------------------
      1          1           0        1.627647   -1.615092    0.000000
      2          1           0        1.627647   -3.033951    0.000000
      3          1           0        0.813824   -0.452832    0.000000
      4          1           0        0.813824   -1.871690    0.000000
      5          1           0       -0.000000    0.709429    0.000000
      6          1           0       -0.000000   -0.709429   -0.000000
      7          1           0       -0.813824    1.871690    0.000000
      8          1           0       -0.813824    0.452832    0.000000
      9          1           0       -1.627647    3.033951    0.000000
     10          1           0       -1.627647    1.615092    0.000000
 ---------------------------------------------------------------------

 SCF Done:  E(UHF) =  -4.99263604410     A.U. after   14 cycles
 E2 =    -0.5213825377D-01 EUMP2 =    -0.50447742978738D+01

 The electronic state is 3-BU.
 Alpha  occ. eigenvalues --   -0.78808  -0.72379  -0.62425  -0.49053  -0.36740
 Alpha  occ. eigenvalues --   -0.30068
 Alpha virt. eigenvalues --    0.14598   0.25262   0.41616   0.60981
  Beta  occ. eigenvalues --   -0.77266  -0.69217  -0.55008  -0.38826
  Beta virt. eigenvalues --    0.14313   0.21014   0.23692   0.25935   0.45564
  Beta virt. eigenvalues --    0.62195

 Mulliken charges and spin densities:
               1          2
     1  H   -0.026386   0.224825
     2  H   -0.064228   0.916620
     3  H    0.032382  -0.286873
     4  H    0.073626  -0.161408
     5  H   -0.015394   0.306837
     6  H   -0.015394   0.306837
     7  H    0.073626  -0.161408
     8  H    0.032382  -0.286873
     9  H   -0.064228   0.916620
    10  H   -0.026386   0.224825
 Sum of Mulliken charges =   0.00000   2.00000

 Dipole moment (field-independent basis, Debye):
    X=             -0.0000    Y=              0.0000    Z=             -0.0000  Tot=              0.0000
 Quadrupole moment (field-independent basis, Debye-Ang):
   XX=            -14.3660   YY=            -21.3627   ZZ=            -12.6348
   XY=              5.7648   XZ=              0.0000   YZ=             -0.0000

 Normal termination of Gaussian 09 at Thu Feb 23 12:18:45 2017.
