 Gaussian 09, Revision E.01,
 Gaussian 09:  ES64L-G09RevE.01 30-Nov-2015

 ----------------------------------------------------------------------
 #uhf/gen scf(tight,novaracc,noincfock,fulldiag, ) stable(crhf) guess=r
 ead geom=nocrowd test
 ----------------------------------------------------------------------

 hf stability analysis of h10 triangular lattice, y= 1.5507537964299845
  alpha= 76.500000000000000
 ----------------------------------------------------------------------
 Symbolic Z-matrix:
 Charge =  0 Multiplicity = 3

                         Standard orientation:
 ---------------------------------------------------------------------
 Center     Atomic      Atomic             Coordinates (Angstroms)
 Number     Number       Type             X           Y           Z
 ---------------------------------------------------------------------
      1          1           0        1.448065    3.639397    0.000000
      2          1           0        1.448065    2.044578    0.000000
      3          1           0        0.724033    2.218403    0.000000
      4          1           0        0.724033    0.623585    0.000000
      5          1           0       -0.000000    0.797409    0.000000
      6          1           0       -0.000000   -0.797409    0.000000
      7          1           0       -0.724033   -0.623585    0.000000
      8          1           0       -0.724033   -2.218403    0.000000
      9          1           0       -1.448065   -2.044578    0.000000
     10          1           0       -1.448065   -3.639397    0.000000
 ---------------------------------------------------------------------

 SCF Done:  E(UHF) =  -5.16513569261     A.U. after   10 cycles
 E2 =    -0.4768778480D-01 EUMP2 =    -0.52128234774151D+01

 The electronic state is 3-BU.
 Alpha  occ. eigenvalues --   -0.75361  -0.70917  -0.63078  -0.52882  -0.42774
 Alpha  occ. eigenvalues --   -0.39559
 Alpha virt. eigenvalues --    0.23699   0.33600   0.49071   0.64857
  Beta  occ. eigenvalues --   -0.74449  -0.68379  -0.58669  -0.47210
  Beta virt. eigenvalues --    0.18123   0.18540   0.24213   0.34415   0.49963
  Beta virt. eigenvalues --    0.65359

 Mulliken charges and spin densities:
               1          2
     1  H   -0.015266   0.983994
     2  H   -0.005492   0.017426
     3  H    0.015865  -0.006265
     4  H    0.001765  -0.008262
     5  H    0.003128   0.013106
     6  H    0.003128   0.013106
     7  H    0.001765  -0.008262
     8  H    0.015865  -0.006265
     9  H   -0.005492   0.017426
    10  H   -0.015266   0.983994
 Sum of Mulliken charges =  -0.00000   2.00000

 Dipole moment (field-independent basis, Debye):
    X=             -0.0000    Y=              0.0000    Z=             -0.0000  Tot=              0.0000
 Quadrupole moment (field-independent basis, Debye-Ang):
   XX=            -12.4580   YY=            -19.1814   ZZ=            -12.8185
   XY=             -3.2362   XZ=              0.0000   YZ=              0.0000

 Normal termination of Gaussian 09 at Thu Feb 23 12:28:35 2017.
