 Gaussian 09, Revision E.01,
 Gaussian 09:  ES64L-G09RevE.01 30-Nov-2015

 ----------------------------------------------------------------------
 #uhf/gen scf(tight,novaracc,noincfock,fulldiag, ) stable(crhf) guess=r
 ead geom=nocrowd test
 ----------------------------------------------------------------------

 hf stability analysis of h10 triangular lattice, y= 2.1684423371644423
  alpha= 83.000000000000000
 ----------------------------------------------------------------------
 Symbolic Z-matrix:
 Charge =  0 Multiplicity = 3

                         Standard orientation:
 ---------------------------------------------------------------------
 Center     Atomic      Atomic             Coordinates (Angstroms)
 Number     Number       Type             X           Y           Z
 ---------------------------------------------------------------------
      1          1           0        1.057067    5.332026    0.000000
      2          1           0        1.057067    3.147299    0.000000
      3          1           0        0.528533    3.212195    0.000000
      4          1           0        0.528533    1.027468    0.000000
      5          1           0        0.000000    1.092363    0.000000
      6          1           0       -0.000000   -1.092363    0.000000
      7          1           0       -0.528533   -1.027468    0.000000
      8          1           0       -0.528533   -3.212195    0.000000
      9          1           0       -1.057067   -3.147299    0.000000
     10          1           0       -1.057067   -5.332026    0.000000
 ---------------------------------------------------------------------

 SCF Done:  E(UHF) =  -4.95693989233     A.U. after    6 cycles
 E2 =    -0.3013316752D-01 EUMP2 =    -0.49870730598442D+01

 The electronic state is 3-BU.
 Alpha  occ. eigenvalues --   -0.73372  -0.71682  -0.69023  -0.66207  -0.49360
 Alpha  occ. eigenvalues --   -0.49342
 Alpha virt. eigenvalues --    0.48128   0.54010   0.62356   0.70116
  Beta  occ. eigenvalues --   -0.73204  -0.71216  -0.68469  -0.65936
  Beta virt. eigenvalues --    0.13650   0.13658   0.48176   0.54129   0.62476
  Beta virt. eigenvalues --    0.70165

 Mulliken charges and spin densities:
               1          2
     1  H    0.004088   1.004082
     2  H   -0.001355  -0.001998
     3  H   -0.002761  -0.002117
     4  H   -0.000156  -0.000037
     5  H    0.000184   0.000071
     6  H    0.000184   0.000071
     7  H   -0.000156  -0.000037
     8  H   -0.002761  -0.002117
     9  H   -0.001355  -0.001998
    10  H    0.004088   1.004082
 Sum of Mulliken charges =   0.00000   2.00000

 Dipole moment (field-independent basis, Debye):
    X=              0.0000    Y=              0.0000    Z=              0.0000  Tot=              0.0000
 Quadrupole moment (field-independent basis, Debye-Ang):
   XX=            -12.4709   YY=            -15.1880   ZZ=            -13.3673
   XY=             -0.5104   XZ=              0.0000   YZ=              0.0000

 Normal termination of Gaussian 09 at Thu Feb 23 12:29:35 2017.
