 Gaussian 09, Revision E.01,
 Gaussian 09:  ES64L-G09RevE.01 30-Nov-2015

 ----------------------------------------------------------------------
 #uhf/gen scf(tight,novaracc,noincfock,fulldiag, ) stable(crhf) guess=r
 ead geom=nocrowd test
 ----------------------------------------------------------------------

 hf stability analysis of h10 triangular lattice, y= 0.6625913996779515
 5 alpha= 37.250000000000000
 ----------------------------------------------------------------------
 Symbolic Z-matrix:
 Charge =  0 Multiplicity = 3

                         Standard orientation:
 ---------------------------------------------------------------------
 Center     Atomic      Atomic             Coordinates (Angstroms)
 Number     Number       Type             X           Y           Z
 ---------------------------------------------------------------------
      1          1           0        2.109696   -0.037740    0.000000
      2          1           0        2.109696   -1.132401    0.000000
      3          1           0        1.054848    0.254795   -0.000000
      4          1           0        1.054848   -0.839865    0.000000
      5          1           0        0.000000    0.547330   -0.000000
      6          1           0       -0.000000   -0.547330   -0.000000
      7          1           0       -1.054848    0.839865    0.000000
      8          1           0       -1.054848   -0.254795   -0.000000
      9          1           0       -2.109696    1.132401   -0.000000
     10          1           0       -2.109696    0.037740   -0.000000
 ---------------------------------------------------------------------

 SCF Done:  E(UHF) =  -4.91547226268     A.U. after   12 cycles
 E2 =    -0.7364872316D-01 EUMP2 =    -0.49891209858415D+01

 The electronic state is 3-BU.
 Alpha  occ. eigenvalues --   -0.89759  -0.81081  -0.58359  -0.47353  -0.35424
 Alpha  occ. eigenvalues --   -0.35402
 Alpha virt. eigenvalues --    0.15541   0.26224   0.46597   0.77367
  Beta  occ. eigenvalues --   -0.83853  -0.66819  -0.49096  -0.38881
  Beta virt. eigenvalues --    0.03199   0.03433   0.24697   0.37488   0.59340
  Beta virt. eigenvalues --    0.83976

 Mulliken charges and spin densities:
               1          2
     1  H    0.022906   0.221049
     2  H    0.024539   0.403949
     3  H   -0.015134   0.338741
     4  H   -0.005292   0.275354
     5  H   -0.027019  -0.239092
     6  H   -0.027019  -0.239092
     7  H   -0.005292   0.275354
     8  H   -0.015134   0.338741
     9  H    0.024539   0.403949
    10  H    0.022906   0.221049
 Sum of Mulliken charges =   0.00000   2.00000

 Dipole moment (field-independent basis, Debye):
    X=              0.0000    Y=              0.0000    Z=              0.0000  Tot=              0.0000
 Quadrupole moment (field-independent basis, Debye-Ang):
   XX=            -13.0861   YY=            -15.2444   ZZ=            -12.8881
   XY=             -0.8347   XZ=              0.0000   YZ=              0.0000

 Normal termination of Gaussian 09 at Thu Feb 23 12:22:05 2017.
