 Gaussian 09, Revision E.01,
 Gaussian 09:  ES64L-G09RevE.01 30-Nov-2015

 ----------------------------------------------------------------------
 #uhf/gen scf(tight,novaracc,noincfock,fulldiag, ) stable(crhf) guess=r
 ead geom=nocrowd test
 ----------------------------------------------------------------------

 hf stability analysis of h10 triangular lattice, y= 0.7434330289905593
 0 alpha= 43.750000000000000
 ----------------------------------------------------------------------
 Symbolic Z-matrix:
 Charge =  0 Multiplicity = 3

                         Standard orientation:
 ---------------------------------------------------------------------
 Center     Atomic      Atomic             Coordinates (Angstroms)
 Number     Number       Type             X           Y           Z
 ---------------------------------------------------------------------
      1          1           0        2.148117    0.443752   -0.000000
      2          1           0        2.148117   -0.631330   -0.000000
      3          1           0        1.074058    0.490646   -0.000000
      4          1           0        1.074058   -0.584435   -0.000000
      5          1           0       -0.000000    0.537541   -0.000000
      6          1           0       -0.000000   -0.537541   -0.000000
      7          1           0       -1.074058    0.584435    0.000000
      8          1           0       -1.074058   -0.490646    0.000000
      9          1           0       -2.148117    0.631330    0.000000
     10          1           0       -2.148117   -0.443752    0.000000
 ---------------------------------------------------------------------

 SCF Done:  E(UHF) =  -4.92480239727     A.U. after   12 cycles
 E2 =    -0.7204566135D-01 EUMP2 =    -0.49968480586186D+01

 The electronic state is 3-BU.
 Alpha  occ. eigenvalues --   -0.90485  -0.81643  -0.57742  -0.48885  -0.37181
 Alpha  occ. eigenvalues --   -0.34698
 Alpha virt. eigenvalues --    0.14613   0.31233   0.43790   0.88097
  Beta  occ. eigenvalues --   -0.84534  -0.66433  -0.49270  -0.40853
  Beta virt. eigenvalues --    0.02767   0.04923   0.22885   0.40530   0.59351
  Beta virt. eigenvalues --    0.94567

 Mulliken charges and spin densities:
               1          2
     1  H    0.026121   0.272952
     2  H    0.024696   0.310594
     3  H   -0.025343   0.368199
     4  H   -0.023569   0.356637
     5  H   -0.001906  -0.308382
     6  H   -0.001906  -0.308382
     7  H   -0.023569   0.356637
     8  H   -0.025343   0.368199
     9  H    0.024696   0.310594
    10  H    0.026121   0.272952
 Sum of Mulliken charges =   0.00000   2.00000

 Dipole moment (field-independent basis, Debye):
    X=             -0.0000    Y=             -0.0000    Z=              0.0000  Tot=              0.0000
 Quadrupole moment (field-independent basis, Debye-Ang):
   XX=            -13.3542   YY=            -15.3200   ZZ=            -12.8503
   XY=             -0.0990   XZ=              0.0000   YZ=              0.0000

 Normal termination of Gaussian 09 at Thu Feb 23 12:23:09 2017.
