 Gaussian 09, Revision E.01,
 Gaussian 09:  ES64L-G09RevE.01 30-Nov-2015

 ----------------------------------------------------------------------
 #uhf/gen scf(tight,novaracc,noincfock,fulldiag, ) stable(crhf) guess=r
 ead geom=nocrowd test
 ----------------------------------------------------------------------

 hf stability analysis of h10 triangular lattice, y= 1.0475506882612993
  alpha= 62.250000000000000
 ----------------------------------------------------------------------
 Symbolic Z-matrix:
 Charge =  0 Multiplicity = 3

                         Standard orientation:
 ---------------------------------------------------------------------
 Center     Atomic      Atomic             Coordinates (Angstroms)
 Number     Number       Type             X           Y           Z
 ---------------------------------------------------------------------
      1          1           0        1.951019    1.932743    0.000000
      2          1           0        1.951019    0.749054    0.000000
      3          1           0        0.975510    1.262294    0.000000
      4          1           0        0.975510    0.078604    0.000000
      5          1           0        0.000000    0.591845    0.000000
      6          1           0       -0.000000   -0.591845   -0.000000
      7          1           0       -0.975510   -0.078604   -0.000000
      8          1           0       -0.975510   -1.262294   -0.000000
      9          1           0       -1.951019   -0.749054   -0.000000
     10          1           0       -1.951019   -1.932743   -0.000000
 ---------------------------------------------------------------------

 SCF Done:  E(UHF) =  -4.85890978599     A.U. after   15 cycles
 E2 =    -0.6683405160D-01 EUMP2 =    -0.49257438375915D+01

 The electronic state is 3-BU.
 Alpha  occ. eigenvalues --   -0.88260  -0.78257  -0.61160  -0.41332  -0.37584
 Alpha  occ. eigenvalues --   -0.29957
 Alpha virt. eigenvalues --    0.15995   0.17466   0.45067   0.52308
  Beta  occ. eigenvalues --   -0.82021  -0.69917  -0.50314  -0.33201
  Beta virt. eigenvalues --    0.01080   0.09028   0.25044   0.31307   0.52993
  Beta virt. eigenvalues --    0.58893

 Mulliken charges and spin densities:
               1          2
     1  H   -0.074654   0.416816
     2  H    0.067295   0.459825
     3  H    0.092478  -0.056272
     4  H   -0.125710  -0.207025
     5  H    0.040591   0.386656
     6  H    0.040591   0.386656
     7  H   -0.125710  -0.207025
     8  H    0.092478  -0.056272
     9  H    0.067295   0.459825
    10  H   -0.074654   0.416816
 Sum of Mulliken charges =   0.00000   2.00000

 Dipole moment (field-independent basis, Debye):
    X=              0.0000    Y=             -0.0000    Z=             -0.0000  Tot=              0.0000
 Quadrupole moment (field-independent basis, Debye-Ang):
   XX=            -14.9480   YY=            -16.5301   ZZ=            -12.9344
   XY=             -0.7905   XZ=             -0.0000   YZ=             -0.0000

 Normal termination of Gaussian 09 at Thu Feb 23 12:26:14 2017.
