 Gaussian 09, Revision E.01,
 Gaussian 09:  ES64L-G09RevE.01 30-Nov-2015

 ----------------------------------------------------------------------
 #uhf/gen scf(tight,novaracc,noincfock,fulldiag, ) stable(crhf) guess=r
 ead geom=nocrowd test
 ----------------------------------------------------------------------

 hf stability analysis of h10 triangular lattice, y= 0.3066389812720254
 9 alpha= 9.2500000000000000
 ----------------------------------------------------------------------
 Symbolic Z-matrix:
 Charge =  0 Multiplicity = 3

                         Standard orientation:
 ---------------------------------------------------------------------
 Center     Atomic      Atomic             Coordinates (Angstroms)
 Number     Number       Type             X           Y           Z
 ---------------------------------------------------------------------
      1          1           0        1.210606   -2.664300   -0.000000
      2          1           0        1.210606   -4.571941   -0.000000
      3          1           0        0.605303   -0.855240   -0.000000
      4          1           0        0.605303   -2.762880   -0.000000
      5          1           0        0.000000    0.953820    0.000000
      6          1           0       -0.000000   -0.953820    0.000000
      7          1           0       -0.605303    2.762880    0.000000
      8          1           0       -0.605303    0.855240    0.000000
      9          1           0       -1.210606    4.571941    0.000000
     10          1           0       -1.210606    2.664300    0.000000
 ---------------------------------------------------------------------

 SCF Done:  E(UHF) =  -5.15343867246     A.U. after    7 cycles
 E2 =    -0.3576314314D-01 EUMP2 =    -0.51892018156039D+01

 The electronic state is 3-BU.
 Alpha  occ. eigenvalues --   -0.73486  -0.70724  -0.66005  -0.60247  -0.47929
 Alpha  occ. eigenvalues --   -0.47679
 Alpha virt. eigenvalues --    0.37837   0.45484   0.56861   0.67936
  Beta  occ. eigenvalues --   -0.73115  -0.69661  -0.64522  -0.59235
  Beta virt. eigenvalues --    0.14882   0.14932   0.37955   0.45759   0.57141
  Beta virt. eigenvalues --    0.68061

 Mulliken charges and spin densities:
               1          2
     1  H   -0.002339  -0.001610
     2  H    0.004041   1.003995
     3  H   -0.000295  -0.000337
     4  H   -0.002062  -0.002768
     5  H    0.000655   0.000719
     6  H    0.000655   0.000719
     7  H   -0.002062  -0.002768
     8  H   -0.000295  -0.000337
     9  H    0.004041   1.003995
    10  H   -0.002339  -0.001610
 Sum of Mulliken charges =  -0.00000   2.00000

 Dipole moment (field-independent basis, Debye):
    X=              0.0000    Y=              0.0000    Z=              0.0000  Tot=              0.0000
 Quadrupole moment (field-independent basis, Debye-Ang):
   XX=            -12.1949   YY=            -16.3772   ZZ=            -13.1627
   XY=              1.1352   XZ=             -0.0000   YZ=             -0.0000

 Normal termination of Gaussian 09 at Thu Feb 23 12:17:26 2017.
