 Gaussian 09, Revision E.01,
 Gaussian 09:  ES64L-G09RevE.01 30-Nov-2015

 ----------------------------------------------------------------------
 #uhf/gen scf(tight,novaracc,noincfock,fulldiag, ) stable(crhf) guess=r
 ead geom=nocrowd test
 ----------------------------------------------------------------------

 hf stability analysis of h10 triangular lattice, y= 0.4860043606964989
 9 alpha= 22.250000000000000
 ----------------------------------------------------------------------
 Symbolic Z-matrix:
 Charge =  0 Multiplicity = 3

                         Standard orientation:
 ---------------------------------------------------------------------
 Center     Atomic      Atomic             Coordinates (Angstroms)
 Number     Number       Type             X           Y           Z
 ---------------------------------------------------------------------
      1          1           0        1.799267   -1.189186   -0.000000
      2          1           0        1.799267   -2.472709   -0.000000
      3          1           0        0.899633   -0.273712   -0.000000
      4          1           0        0.899633   -1.557235   -0.000000
      5          1           0        0.000000    0.641762    0.000000
      6          1           0       -0.000000   -0.641762    0.000000
      7          1           0       -0.899633    1.557235    0.000000
      8          1           0       -0.899633    0.273712    0.000000
      9          1           0       -1.799267    2.472709    0.000000
     10          1           0       -1.799267    1.189186    0.000000
 ---------------------------------------------------------------------

 SCF Done:  E(UHF) =  -4.86734894632     A.U. after   13 cycles
 E2 =    -0.4454107289D-01 EUMP2 =    -0.49118900192096D+01

 The electronic state is 3-BU.
 Alpha  occ. eigenvalues --   -0.84623  -0.75434  -0.62511  -0.43943  -0.33383
 Alpha  occ. eigenvalues --   -0.30764
 Alpha virt. eigenvalues --    0.16969   0.17941   0.34488   0.56689
  Beta  occ. eigenvalues --   -0.80740  -0.71602  -0.53056  -0.35267
  Beta virt. eigenvalues --    0.07332   0.16262   0.21568   0.29047   0.43488
  Beta virt. eigenvalues --    0.59607

 Mulliken charges and spin densities:
               1          2
     1  H    0.010478   0.468413
     2  H   -0.093544   0.704544
     3  H   -0.021929  -0.469839
     4  H    0.120280  -0.290706
     5  H   -0.015285   0.587588
     6  H   -0.015285   0.587588
     7  H    0.120280  -0.290706
     8  H   -0.021929  -0.469839
     9  H   -0.093544   0.704544
    10  H    0.010478   0.468413
 Sum of Mulliken charges =  -0.00000   2.00000

 Dipole moment (field-independent basis, Debye):
    X=             -0.0000    Y=             -0.0000    Z=              0.0000  Tot=              0.0000
 Quadrupole moment (field-independent basis, Debye-Ang):
   XX=            -15.7742   YY=            -18.7494   ZZ=            -12.8122
   XY=              3.4952   XZ=              0.0000   YZ=             -0.0000

 Normal termination of Gaussian 09 at Thu Feb 23 12:19:32 2017.
