 Gaussian 09, Revision E.01,
 Gaussian 09:  ES64L-G09RevE.01 30-Nov-2015

 ----------------------------------------------------------------------
 #uhf/gen scf(tight,novaracc,noincfock,fulldiag, ) stable(crhf) guess=r
 ead geom=nocrowd test
 ----------------------------------------------------------------------

 hf stability analysis of h10 triangular lattice, y= 0.8873592600485348
 3 alpha= 53.750000000000000
 ----------------------------------------------------------------------
 Symbolic Z-matrix:
 Charge =  0 Multiplicity = 3

                         Standard orientation:
 ---------------------------------------------------------------------
 Center     Atomic      Atomic             Coordinates (Angstroms)
 Number     Number       Type             X           Y           Z
 ---------------------------------------------------------------------
      1          1           0        2.098816    1.211922   -0.000000
      2          1           0        2.098816    0.111587   -0.000000
      3          1           0        1.049408    0.881045   -0.000000
      4          1           0        1.049408   -0.219290   -0.000000
      5          1           0       -0.000000    0.550168    0.000000
      6          1           0       -0.000000   -0.550168    0.000000
      7          1           0       -1.049408    0.219290   -0.000000
      8          1           0       -1.049408   -0.881045   -0.000000
      9          1           0       -2.098816   -0.111587   -0.000000
     10          1           0       -2.098816   -1.211922   -0.000000
 ---------------------------------------------------------------------

 SCF Done:  E(UHF) =  -4.91210060699     A.U. after   14 cycles
 E2 =    -0.7410174064D-01 EUMP2 =    -0.49862023476287D+01

 The electronic state is 3-BU.
 Alpha  occ. eigenvalues --   -0.89548  -0.80917  -0.58511  -0.46902  -0.35596
 Alpha  occ. eigenvalues --   -0.34929
 Alpha virt. eigenvalues --    0.15754   0.25079   0.47172   0.74668
  Beta  occ. eigenvalues --   -0.83670  -0.66909  -0.49046  -0.38332
  Beta virt. eigenvalues --    0.02763   0.03656   0.25181   0.36619   0.59393
  Beta virt. eigenvalues --    0.81276

 Mulliken charges and spin densities:
               1          2
     1  H    0.025407   0.416316
     2  H    0.021292   0.222339
     3  H   -0.001359   0.256078
     4  H   -0.012808   0.324860
     5  H   -0.032532  -0.219594
     6  H   -0.032532  -0.219594
     7  H   -0.012808   0.324860
     8  H   -0.001359   0.256078
     9  H    0.021292   0.222339
    10  H    0.025407   0.416316
 Sum of Mulliken charges =   0.00000   2.00000

 Dipole moment (field-independent basis, Debye):
    X=             -0.0000    Y=             -0.0000    Z=             -0.0000  Tot=              0.0000
 Quadrupole moment (field-independent basis, Debye-Ang):
   XX=            -13.0286   YY=            -15.1946   ZZ=            -12.8982
   XY=              0.9977   XZ=              0.0000   YZ=             -0.0000

 Normal termination of Gaussian 09 at Thu Feb 23 12:24:48 2017.
