 Gaussian 09, Revision E.01,
 Gaussian 09:  ES64L-G09RevE.01 30-Nov-2015

 ----------------------------------------------------------------------
 #uhf/gen scf(tight,novaracc,noincfock,fulldiag, ) stable(crhf) guess=r
 ead geom=nocrowd test
 ----------------------------------------------------------------------

 hf stability analysis of h10 triangular lattice, y= 0.3388836262365067
 0 alpha= 11.250000000000000
 ----------------------------------------------------------------------
 Symbolic Z-matrix:
 Charge =  0 Multiplicity = 3

                         Standard orientation:
 ---------------------------------------------------------------------
 Center     Atomic      Atomic             Coordinates (Angstroms)
 Number     Number       Type             X           Y           Z
 ---------------------------------------------------------------------
      1          1           0        1.329488   -2.341139   -0.000000
      2          1           0        1.329488   -4.078199   -0.000000
      3          1           0        0.664744   -0.736304   -0.000000
      4          1           0        0.664744   -2.473364   -0.000000
      5          1           0        0.000000    0.868530    0.000000
      6          1           0       -0.000000   -0.868530    0.000000
      7          1           0       -0.664744    2.473364    0.000000
      8          1           0       -0.664744    0.736304    0.000000
      9          1           0       -1.329488    4.078199    0.000000
     10          1           0       -1.329488    2.341139    0.000000
 ---------------------------------------------------------------------

 SCF Done:  E(UHF) =  -5.19864274623     A.U. after    9 cycles
 E2 =    -0.4121057314D-01 EUMP2 =    -0.52398533193666D+01

 The electronic state is 3-BU.
 Alpha  occ. eigenvalues --   -0.74163  -0.70579  -0.64254  -0.56042  -0.45836
 Alpha  occ. eigenvalues --   -0.44688
 Alpha virt. eigenvalues --    0.30581   0.39406   0.52953   0.66521
  Beta  occ. eigenvalues --   -0.73556  -0.68842  -0.61517  -0.53393
  Beta virt. eigenvalues --    0.16290   0.16456   0.30809   0.39892   0.53455
  Beta virt. eigenvalues --    0.66770

 Mulliken charges and spin densities:
               1          2
     1  H   -0.003427   0.002514
     2  H   -0.000960   0.998853
     3  H   -0.000064  -0.001637
     4  H    0.002899  -0.002891
     5  H    0.001553   0.003161
     6  H    0.001553   0.003161
     7  H    0.002899  -0.002891
     8  H   -0.000064  -0.001637
     9  H   -0.000960   0.998853
    10  H   -0.003427   0.002514
 Sum of Mulliken charges =  -0.00000   2.00000

 Dipole moment (field-independent basis, Debye):
    X=              0.0000    Y=             -0.0000    Z=             -0.0000  Tot=              0.0000
 Quadrupole moment (field-independent basis, Debye-Ang):
   XX=            -12.1543   YY=            -17.6159   ZZ=            -12.9888
   XY=              1.9613   XZ=             -0.0000   YZ=             -0.0000

 Normal termination of Gaussian 09 at Thu Feb 23 12:17:45 2017.
