 Gaussian 09, Revision E.01,
 Gaussian 09:  ES64L-G09RevE.01 30-Nov-2015

 ----------------------------------------------------------------------
 #uhf/gen scf(tight,novaracc,noincfock,fulldiag, ) stable(crhf) guess=r
 ead geom=nocrowd test
 ----------------------------------------------------------------------

 hf stability analysis of h10 triangular lattice, y= 0.6093965744756328
 9 alpha= 32.750000000000000
 ----------------------------------------------------------------------
 Symbolic Z-matrix:
 Charge =  0 Multiplicity = 3

                         Standard orientation:
 ---------------------------------------------------------------------
 Center     Atomic      Atomic             Coordinates (Angstroms)
 Number     Number       Type             X           Y           Z
 ---------------------------------------------------------------------
      1          1           0        2.050105   -0.371047    0.000000
      2          1           0        2.050105   -1.497526    0.000000
      3          1           0        1.025053    0.096096   -0.000000
      4          1           0        1.025053   -1.030383    0.000000
      5          1           0        0.000000    0.563240   -0.000000
      6          1           0       -0.000000   -0.563240    0.000000
      7          1           0       -1.025053    1.030383   -0.000000
      8          1           0       -1.025053   -0.096096   -0.000000
      9          1           0       -2.050105    1.497526   -0.000000
     10          1           0       -2.050105    0.371047   -0.000000
 ---------------------------------------------------------------------

 SCF Done:  E(UHF) =  -4.89362528973     A.U. after   14 cycles
 E2 =    -0.7592613441D-01 EUMP2 =    -0.49695514241399D+01

 The electronic state is 3-BU.
 Alpha  occ. eigenvalues --   -0.88600  -0.80138  -0.59201  -0.44782  -0.36286
 Alpha  occ. eigenvalues --   -0.32979
 Alpha virt. eigenvalues --    0.16447   0.20751   0.49293   0.63910
  Beta  occ. eigenvalues --   -0.82942  -0.67330  -0.48797  -0.35955
  Beta virt. eigenvalues --    0.01066   0.04737   0.27258   0.32791   0.59676
  Beta virt. eigenvalues --    0.70437

 Mulliken charges and spin densities:
               1          2
     1  H    0.017262   0.259401
     2  H    0.025717   0.458846
     3  H   -0.011873   0.232864
     4  H    0.016215   0.164265
     5  H   -0.047321  -0.115376
     6  H   -0.047321  -0.115376
     7  H    0.016215   0.164265
     8  H   -0.011873   0.232864
     9  H    0.025717   0.458846
    10  H    0.017262   0.259401
 Sum of Mulliken charges =  -0.00000   2.00000

 Dipole moment (field-independent basis, Debye):
    X=             -0.0000    Y=             -0.0000    Z=             -0.0000  Tot=              0.0000
 Quadrupole moment (field-independent basis, Debye-Ang):
   XX=            -12.8966   YY=            -14.9335   ZZ=            -12.9400
   XY=             -1.5842   XZ=              0.0000   YZ=              0.0000

 Normal termination of Gaussian 09 at Thu Feb 23 12:21:19 2017.
