 Gaussian 09, Revision E.01,
 Gaussian 09:  ES64L-G09RevE.01 30-Nov-2015

 ----------------------------------------------------------------------
 #uhf/gen scf(tight,novaracc,noincfock,fulldiag, ) stable(crhf) guess=r
 ead geom=nocrowd test
 ----------------------------------------------------------------------

 hf stability analysis of h10 triangular lattice, y= 1.0531284965820111
  alpha= 62.500000000000000
 ----------------------------------------------------------------------
 Symbolic Z-matrix:
 Charge =  0 Multiplicity = 3

                         Standard orientation:
 ---------------------------------------------------------------------
 Center     Atomic      Atomic             Coordinates (Angstroms)
 Number     Number       Type             X           Y           Z
 ---------------------------------------------------------------------
      1          1           0        1.945122    1.955628   -0.000000
      2          1           0        1.945122    0.768350   -0.000000
      3          1           0        0.972561    1.274634   -0.000000
      4          1           0        0.972561    0.087356   -0.000000
      5          1           0       -0.000000    0.593639   -0.000000
      6          1           0       -0.000000   -0.593639    0.000000
      7          1           0       -0.972561   -0.087356   -0.000000
      8          1           0       -0.972561   -1.274634   -0.000000
      9          1           0       -1.945122   -0.768350   -0.000000
     10          1           0       -1.945122   -1.955628   -0.000000
 ---------------------------------------------------------------------

 SCF Done:  E(UHF) =  -4.85791619203     A.U. after   15 cycles
 E2 =    -0.6626268908D-01 EUMP2 =    -0.49241788811029D+01

 The electronic state is 3-BU.
 Alpha  occ. eigenvalues --   -0.88243  -0.78172  -0.61207  -0.41247  -0.37587
 Alpha  occ. eigenvalues --   -0.29789
 Alpha virt. eigenvalues --    0.15844   0.17574   0.44200   0.52392
  Beta  occ. eigenvalues --   -0.81941  -0.70042  -0.50480  -0.33133
  Beta virt. eigenvalues --    0.01254   0.09380   0.24653   0.31412   0.52199
  Beta virt. eigenvalues --    0.58894

 Mulliken charges and spin densities:
               1          2
     1  H   -0.079396   0.413788
     2  H    0.067115   0.463347
     3  H    0.096962  -0.063205
     4  H   -0.126695  -0.218685
     5  H    0.042014   0.404755
     6  H    0.042014   0.404755
     7  H   -0.126695  -0.218685
     8  H    0.096962  -0.063205
     9  H    0.067115   0.463347
    10  H   -0.079396   0.413788
 Sum of Mulliken charges =   0.00000   2.00000

 Dipole moment (field-independent basis, Debye):
    X=             -0.0000    Y=             -0.0000    Z=              0.0000  Tot=              0.0000
 Quadrupole moment (field-independent basis, Debye-Ang):
   XX=            -15.0928   YY=            -16.6457   ZZ=            -12.9316
   XY=             -0.9786   XZ=             -0.0000   YZ=              0.0000

 Normal termination of Gaussian 09 at Thu Feb 23 12:26:17 2017.
