 Gaussian 09, Revision E.01,
 Gaussian 09:  ES64L-G09RevE.01 30-Nov-2015

 ----------------------------------------------------------------------
 #uhf/gen scf(tight,novaracc,noincfock,fulldiag, ) stable(crhf) guess=r
 ead geom=nocrowd test
 ----------------------------------------------------------------------

 hf stability analysis of h10 triangular lattice, y= 0.4890258879954954
 6 alpha= 22.500000000000000
 ----------------------------------------------------------------------
 Symbolic Z-matrix:
 Charge =  0 Multiplicity = 3

                         Standard orientation:
 ---------------------------------------------------------------------
 Center     Atomic      Atomic             Coordinates (Angstroms)
 Number     Number       Type             X           Y           Z
 ---------------------------------------------------------------------
      1          1           0        1.807204   -1.168261    0.000000
      2          1           0        1.807204   -2.446147    0.000000
      3          1           0        0.903602   -0.264659    0.000000
      4          1           0        0.903602   -1.542545    0.000000
      5          1           0        0.000000    0.638943    0.000000
      6          1           0       -0.000000   -0.638943   -0.000000
      7          1           0       -0.903602    1.542545    0.000000
      8          1           0       -0.903602    0.264659    0.000000
      9          1           0       -1.807204    2.446147    0.000000
     10          1           0       -1.807204    1.168261    0.000000
 ---------------------------------------------------------------------

 SCF Done:  E(UHF) =  -4.86492253287     A.U. after   13 cycles
 E2 =    -0.4547610251D-01 EUMP2 =    -0.49103986353787D+01

 The electronic state is 3-BU.
 Alpha  occ. eigenvalues --   -0.84870  -0.75587  -0.62482  -0.43658  -0.33758
 Alpha  occ. eigenvalues --   -0.30531
 Alpha virt. eigenvalues --    0.16704   0.18133   0.34516   0.56434
  Beta  occ. eigenvalues --   -0.80836  -0.71608  -0.52924  -0.35048
  Beta virt. eigenvalues --    0.06969   0.15890   0.21577   0.29353   0.43509
  Beta virt. eigenvalues --    0.59530

 Mulliken charges and spin densities:
               1          2
     1  H    0.014312   0.471564
     2  H   -0.095007   0.689768
     3  H   -0.028451  -0.460187
     4  H    0.121225  -0.285575
     5  H   -0.012079   0.584430
     6  H   -0.012079   0.584430
     7  H    0.121225  -0.285575
     8  H   -0.028451  -0.460187
     9  H   -0.095007   0.689768
    10  H    0.014312   0.471564
 Sum of Mulliken charges =  -0.00000   2.00000

 Dipole moment (field-independent basis, Debye):
    X=              0.0000    Y=             -0.0000    Z=             -0.0000  Tot=              0.0000
 Quadrupole moment (field-independent basis, Debye-Ang):
   XX=            -15.7929   YY=            -18.6591   ZZ=            -12.8205
   XY=              3.3935   XZ=              0.0000   YZ=             -0.0000

 Normal termination of Gaussian 09 at Thu Feb 23 12:19:34 2017.
