 Gaussian 09, Revision E.01,
 Gaussian 09:  ES64L-G09RevE.01 30-Nov-2015

 ----------------------------------------------------------------------
 #uhf/gen scf(tight,novaracc,noincfock,fulldiag, ) stable(crhf) guess=r
 ead geom=nocrowd test
 ----------------------------------------------------------------------

 hf stability analysis of h10 triangular lattice, y= 1.3041546076852373
  alpha= 71.250000000000000
 ----------------------------------------------------------------------
 Symbolic Z-matrix:
 Charge =  0 Multiplicity = 3

                         Standard orientation:
 ---------------------------------------------------------------------
 Center     Atomic      Atomic             Coordinates (Angstroms)
 Number     Number       Type             X           Y           Z
 ---------------------------------------------------------------------
      1          1           0        1.676827    2.873906    0.000000
      2          1           0        1.676827    1.496661    0.000000
      3          1           0        0.838414    1.781264    0.000000
      4          1           0        0.838414    0.404019    0.000000
      5          1           0        0.000000    0.688622    0.000000
      6          1           0       -0.000000   -0.688622   -0.000000
      7          1           0       -0.838414   -0.404019    0.000000
      8          1           0       -0.838414   -1.781264   -0.000000
      9          1           0       -1.676827   -1.496661   -0.000000
     10          1           0       -1.676827   -2.873906   -0.000000
 ---------------------------------------------------------------------

 SCF Done:  E(UHF) =  -4.94082587331     A.U. after   12 cycles
 E2 =    -0.4323813388D-01 EUMP2 =    -0.49840640071931D+01

 The electronic state is 3-BU.
 Alpha  occ. eigenvalues --   -0.80522  -0.73189  -0.62625  -0.47891  -0.35154
 Alpha  occ. eigenvalues --   -0.29852
 Alpha virt. eigenvalues --    0.14798   0.22884   0.38636   0.59967
  Beta  occ. eigenvalues --   -0.78595  -0.70316  -0.54558  -0.38256
  Beta virt. eigenvalues --    0.12574   0.20941   0.23303   0.24968   0.44963
  Beta virt. eigenvalues --    0.61315

 Mulliken charges and spin densities:
               1          2
     1  H   -0.071636   0.874984
     2  H   -0.031814   0.357310
     3  H    0.094416  -0.266773
     4  H    0.043926  -0.468083
     5  H   -0.034892   0.502561
     6  H   -0.034892   0.502561
     7  H    0.043926  -0.468083
     8  H    0.094416  -0.266773
     9  H   -0.031814   0.357310
    10  H   -0.071636   0.874984
 Sum of Mulliken charges =  -0.00000   2.00000

 Dipole moment (field-independent basis, Debye):
    X=             -0.0000    Y=              0.0000    Z=              0.0000  Tot=              0.0000
 Quadrupole moment (field-independent basis, Debye-Ang):
   XX=            -15.0262   YY=            -20.5780   ZZ=            -12.6682
   XY=             -5.2525   XZ=             -0.0000   YZ=             -0.0000

 Normal termination of Gaussian 09 at Thu Feb 23 12:27:43 2017.
