 Gaussian 09, Revision E.01,
 Gaussian 09:  ES64L-G09RevE.01 30-Nov-2015

 ----------------------------------------------------------------------
 #uhf/gen scf(tight,novaracc,noincfock,fulldiag, ) stable(crhf) guess=r
 ead geom=nocrowd test
 ----------------------------------------------------------------------

 hf stability analysis of h10 triangular lattice, y= 1.5077541156608558
  alpha= 75.750000000000000
 ----------------------------------------------------------------------
 Symbolic Z-matrix:
 Charge =  0 Multiplicity = 3

                         Standard orientation:
 ---------------------------------------------------------------------
 Center     Atomic      Atomic             Coordinates (Angstroms)
 Number     Number       Type             X           Y           Z
 ---------------------------------------------------------------------
      1          1           0        1.484555    3.512019   -0.000000
      2          1           0        1.484555    1.956400   -0.000000
      3          1           0        0.742277    2.144914   -0.000000
      4          1           0        0.742277    0.589295   -0.000000
      5          1           0       -0.000000    0.777810   -0.000000
      6          1           0       -0.000000   -0.777810   -0.000000
      7          1           0       -0.742277   -0.589295   -0.000000
      8          1           0       -0.742277   -2.144914   -0.000000
      9          1           0       -1.484555   -1.956400   -0.000000
     10          1           0       -1.484555   -3.512019   -0.000000
 ---------------------------------------------------------------------

 SCF Done:  E(UHF) =  -5.14066001220     A.U. after   10 cycles
 E2 =    -0.4987810139D-01 EUMP2 =    -0.51905381135900D+01

 The electronic state is 3-BU.
 Alpha  occ. eigenvalues --   -0.75852  -0.71113  -0.62818  -0.52081  -0.41646
 Alpha  occ. eigenvalues --   -0.37600
 Alpha virt. eigenvalues --    0.21609   0.31840   0.47833   0.64218
  Beta  occ. eigenvalues --   -0.74832  -0.68323  -0.57840  -0.45282
  Beta virt. eigenvalues --    0.18759   0.19151   0.22427   0.32783   0.48909
  Beta virt. eigenvalues --    0.64845

 Mulliken charges and spin densities:
               1          2
     1  H   -0.022529   0.976302
     2  H   -0.006706   0.027449
     3  H    0.022412  -0.010434
     4  H    0.003230  -0.014354
     5  H    0.003593   0.021037
     6  H    0.003593   0.021037
     7  H    0.003230  -0.014354
     8  H    0.022412  -0.010434
     9  H   -0.006706   0.027449
    10  H   -0.022529   0.976302
 Sum of Mulliken charges =  -0.00000   2.00000

 Dipole moment (field-independent basis, Debye):
    X=              0.0000    Y=             -0.0000    Z=              0.0000  Tot=              0.0000
 Quadrupole moment (field-independent basis, Debye-Ang):
   XX=            -12.6651   YY=            -19.7276   ZZ=            -12.7689
   XY=             -3.7451   XZ=             -0.0000   YZ=             -0.0000

 Normal termination of Gaussian 09 at Thu Feb 23 12:28:27 2017.
