 Gaussian 09, Revision E.01,
 Gaussian 09:  ES64L-G09RevE.01 30-Nov-2015

 ----------------------------------------------------------------------
 #uhf/gen scf(tight,novaracc,noincfock,fulldiag, ) stable(crhf) guess=r
 ead geom=nocrowd test
 ----------------------------------------------------------------------

 hf stability analysis of h10 triangular lattice, y= 0.5977250200806807
 4 alpha= 31.750000000000000
 ----------------------------------------------------------------------
 Symbolic Z-matrix:
 Charge =  0 Multiplicity = 3

                         Standard orientation:
 ---------------------------------------------------------------------
 Center     Atomic      Atomic             Coordinates (Angstroms)
 Number     Number       Type             X           Y           Z
 ---------------------------------------------------------------------
      1          1           0        2.033107   -0.445721    0.000000
      2          1           0        2.033107   -1.581619    0.000000
      3          1           0        1.016554    0.061114    0.000000
      4          1           0        1.016554   -1.074784    0.000000
      5          1           0        0.000000    0.567949   -0.000000
      6          1           0       -0.000000   -0.567949   -0.000000
      7          1           0       -1.016554    1.074784    0.000000
      8          1           0       -1.016554   -0.061114    0.000000
      9          1           0       -2.033107    1.581619    0.000000
     10          1           0       -2.033107    0.445721    0.000000
 ---------------------------------------------------------------------

 SCF Done:  E(UHF) =  -4.88620672165     A.U. after   14 cycles
 E2 =    -0.7619512140D-01 EUMP2 =    -0.49624018430535D+01

 The electronic state is 3-BU.
 Alpha  occ. eigenvalues --   -0.88304  -0.79833  -0.59505  -0.43957  -0.36563
 Alpha  occ. eigenvalues --   -0.32395
 Alpha virt. eigenvalues --    0.16573   0.19509   0.49957   0.60487
  Beta  occ. eigenvalues --   -0.82757  -0.67556  -0.48705  -0.35198
  Beta virt. eigenvalues --    0.00593   0.05132   0.27990   0.31474   0.59694
  Beta virt. eigenvalues --    0.67033

 Mulliken charges and spin densities:
               1          2
     1  H    0.020485   0.288339
     2  H    0.020599   0.469857
     3  H   -0.020400   0.176058
     4  H    0.023912   0.124934
     5  H   -0.044596  -0.059188
     6  H   -0.044596  -0.059188
     7  H    0.023912   0.124934
     8  H   -0.020400   0.176058
     9  H    0.020599   0.469857
    10  H    0.020485   0.288339
 Sum of Mulliken charges =   0.00000   2.00000

 Dipole moment (field-independent basis, Debye):
    X=              0.0000    Y=              0.0000    Z=              0.0000  Tot=              0.0000
 Quadrupole moment (field-independent basis, Debye-Ang):
   XX=            -12.9353   YY=            -14.9139   ZZ=            -12.9522
   XY=             -1.6472   XZ=              0.0000   YZ=              0.0000

 Normal termination of Gaussian 09 at Thu Feb 23 12:21:09 2017.
