 Gaussian 09, Revision E.01,
 Gaussian 09:  ES64L-G09RevE.01 30-Nov-2015

 ----------------------------------------------------------------------
 #uhf/gen scf(tight,novaracc,noincfock,fulldiag, ) stable(crhf) guess=r
 ead geom=nocrowd test
 ----------------------------------------------------------------------

 hf stability analysis of h10 triangular lattice, y= 0.7337491795890599
 4 alpha= 43.000000000000000
 ----------------------------------------------------------------------
 Symbolic Z-matrix:
 Charge =  0 Multiplicity = 3

                         Standard orientation:
 ---------------------------------------------------------------------
 Center     Atomic      Atomic             Coordinates (Angstroms)
 Number     Number       Type             X           Y           Z
 ---------------------------------------------------------------------
      1          1           0        2.146521    0.387841    0.000000
      2          1           0        2.146521   -0.688040    0.000000
      3          1           0        1.073260    0.462891    0.000000
      4          1           0        1.073260   -0.612990    0.000000
      5          1           0       -0.000000    0.537941    0.000000
      6          1           0       -0.000000   -0.537941   -0.000000
      7          1           0       -1.073260    0.612990    0.000000
      8          1           0       -1.073260   -0.462891    0.000000
      9          1           0       -2.146521    0.688040    0.000000
     10          1           0       -2.146521   -0.387841    0.000000
 ---------------------------------------------------------------------

 SCF Done:  E(UHF) =  -4.92449972017     A.U. after   12 cycles
 E2 =    -0.7211186451D-01 EUMP2 =    -0.49966115846790D+01

 The electronic state is 3-BU.
 Alpha  occ. eigenvalues --   -0.90456  -0.81620  -0.57771  -0.48824  -0.37104
 Alpha  occ. eigenvalues --   -0.34733
 Alpha virt. eigenvalues --    0.14657   0.30975   0.43951   0.87608
  Beta  occ. eigenvalues --   -0.84505  -0.66452  -0.49263  -0.40769
  Beta virt. eigenvalues --    0.02789   0.04845   0.22964   0.40407   0.59340
  Beta virt. eigenvalues --    0.94089

 Mulliken charges and spin densities:
               1          2
     1  H    0.026385   0.262771
     2  H    0.024247   0.322319
     3  H   -0.025139   0.369338
     4  H   -0.022329   0.350931
     5  H   -0.003164  -0.305360
     6  H   -0.003164  -0.305360
     7  H   -0.022329   0.350931
     8  H   -0.025139   0.369338
     9  H    0.024247   0.322319
    10  H    0.026385   0.262771
 Sum of Mulliken charges =  -0.00000   2.00000

 Dipole moment (field-independent basis, Debye):
    X=              0.0000    Y=             -0.0000    Z=              0.0000  Tot=              0.0000
 Quadrupole moment (field-independent basis, Debye-Ang):
   XX=            -13.3410   YY=            -15.3208   ZZ=            -12.8519
   XY=             -0.1612   XZ=              0.0000   YZ=              0.0000

 Normal termination of Gaussian 09 at Thu Feb 23 12:23:02 2017.
