 Gaussian 09, Revision E.01,
 Gaussian 09:  ES64L-G09RevE.01 30-Nov-2015

 ----------------------------------------------------------------------
 #uhf/gen scf(tight,novaracc,noincfock,fulldiag, ) stable(crhf) guess=r
 ead geom=nocrowd test
 ----------------------------------------------------------------------

 hf stability analysis of h10 triangular lattice, y= 1.5658605742718710
  alpha= 76.750000000000000
 ----------------------------------------------------------------------
 Symbolic Z-matrix:
 Charge =  0 Multiplicity = 3

                         Standard orientation:
 ---------------------------------------------------------------------
 Center     Atomic      Atomic             Coordinates (Angstroms)
 Number     Number       Type             X           Y           Z
 ---------------------------------------------------------------------
      1          1           0        1.435583    3.683677    0.000000
      2          1           0        1.435583    2.074992    0.000000
      3          1           0        0.717792    2.244010    0.000000
      4          1           0        0.717792    0.635325    0.000000
      5          1           0       -0.000000    0.804342   -0.000000
      6          1           0       -0.000000   -0.804342    0.000000
      7          1           0       -0.717792   -0.635325    0.000000
      8          1           0       -0.717792   -2.244010    0.000000
      9          1           0       -1.435583   -2.074992    0.000000
     10          1           0       -1.435583   -3.683677    0.000000
 ---------------------------------------------------------------------

 SCF Done:  E(UHF) =  -5.17204337371     A.U. after   10 cycles
 E2 =    -0.4695755845D-01 EUMP2 =    -0.52190009321606D+01

 The electronic state is 3-BU.
 Alpha  occ. eigenvalues --   -0.75208  -0.70860  -0.63177  -0.53170  -0.43141
 Alpha  occ. eigenvalues --   -0.40194
 Alpha virt. eigenvalues --    0.24415   0.34204   0.49487   0.65059
  Beta  occ. eigenvalues --   -0.74331  -0.68409  -0.58959  -0.47869
  Beta virt. eigenvalues --    0.17912   0.18303   0.24875   0.34979   0.50325
  Beta virt. eigenvalues --    0.65524

 Mulliken charges and spin densities:
               1          2
     1  H   -0.013137   0.986226
     2  H   -0.005172   0.014846
     3  H    0.013956  -0.005397
     4  H    0.001407  -0.006901
     5  H    0.002945   0.011226
     6  H    0.002945   0.011226
     7  H    0.001407  -0.006901
     8  H    0.013956  -0.005397
     9  H   -0.005172   0.014846
    10  H   -0.013137   0.986226
 Sum of Mulliken charges =   0.00000   2.00000

 Dipole moment (field-independent basis, Debye):
    X=              0.0000    Y=              0.0000    Z=             -0.0000  Tot=              0.0000
 Quadrupole moment (field-independent basis, Debye-Ang):
   XX=            -12.4018   YY=            -19.0009   ZZ=            -12.8359
   XY=             -3.0757   XZ=              0.0000   YZ=             -0.0000

 Normal termination of Gaussian 09 at Thu Feb 23 12:28:37 2017.
