 Gaussian 09, Revision E.01,
 Gaussian 09:  ES64L-G09RevE.01 30-Nov-2015

 ----------------------------------------------------------------------
 #uhf/gen scf(tight,novaracc,noincfock,fulldiag, ) stable(crhf) guess=r
 ead geom=nocrowd test
 ----------------------------------------------------------------------

 hf stability analysis of h10 triangular lattice, y= 0.9612250668035587
 9 alpha= 58.000000000000000
 ----------------------------------------------------------------------
 Symbolic Z-matrix:
 Charge =  0 Multiplicity = 3

                         Standard orientation:
 ---------------------------------------------------------------------
 Center     Atomic      Atomic             Coordinates (Angstroms)
 Number     Number       Type             X           Y           Z
 ---------------------------------------------------------------------
      1          1           0        2.037487    1.560477    0.000000
      2          1           0        2.037487    0.427021    0.000000
      3          1           0        1.018743    1.063602    0.000000
      4          1           0        1.018743   -0.069854    0.000000
      5          1           0       -0.000000    0.566728    0.000000
      6          1           0       -0.000000   -0.566728   -0.000000
      7          1           0       -1.018743    0.069854    0.000000
      8          1           0       -1.018743   -1.063602    0.000000
      9          1           0       -2.037487   -0.427021    0.000000
     10          1           0       -2.037487   -1.560477    0.000000
 ---------------------------------------------------------------------

 SCF Done:  E(UHF) =  -4.88814213472     A.U. after   14 cycles
 E2 =    -0.7617425700D-01 EUMP2 =    -0.49643163917200D+01

 The electronic state is 3-BU.
 Alpha  occ. eigenvalues --   -0.88375  -0.79915  -0.59419  -0.44177  -0.36485
 Alpha  occ. eigenvalues --   -0.32539
 Alpha virt. eigenvalues --    0.16547   0.19815   0.49786   0.61363
  Beta  occ. eigenvalues --   -0.82799  -0.67488  -0.48727  -0.35385
  Beta virt. eigenvalues --    0.00706   0.05028   0.27798   0.31814   0.59700
  Beta virt. eigenvalues --    0.67896

 Mulliken charges and spin densities:
               1          2
     1  H    0.022474   0.467385
     2  H    0.019167   0.279668
     3  H    0.021752   0.135712
     4  H   -0.017334   0.192927
     5  H   -0.046059  -0.075692
     6  H   -0.046059  -0.075692
     7  H   -0.017334   0.192927
     8  H    0.021752   0.135712
     9  H    0.019167   0.279668
    10  H    0.022474   0.467385
 Sum of Mulliken charges =  -0.00000   2.00000

 Dipole moment (field-independent basis, Debye):
    X=             -0.0000    Y=             -0.0000    Z=              0.0000  Tot=              0.0000
 Quadrupole moment (field-independent basis, Debye-Ang):
   XX=            -12.9174   YY=            -14.9085   ZZ=            -12.9494
   XY=              1.6458   XZ=             -0.0000   YZ=             -0.0000

 Normal termination of Gaussian 09 at Thu Feb 23 12:25:30 2017.
