 Gaussian 09, Revision E.01,
 Gaussian 09:  ES64L-G09RevE.01 30-Nov-2015

 ----------------------------------------------------------------------
 #uhf/gen scf(tight,novaracc,noincfock,fulldiag, ) stable(crhf) guess=r
 ead geom=nocrowd test
 ----------------------------------------------------------------------

 hf stability analysis of h10 triangular lattice, y= 0.6181745873441064
 6 alpha= 33.500000000000000
 ----------------------------------------------------------------------
 Symbolic Z-matrix:
 Charge =  0 Multiplicity = 3

                         Standard orientation:
 ---------------------------------------------------------------------
 Center     Atomic      Atomic             Coordinates (Angstroms)
 Number     Number       Type             X           Y           Z
 ---------------------------------------------------------------------
      1          1           0        2.061948   -0.315240   -0.000000
      2          1           0        2.061948   -1.435250   -0.000000
      3          1           0        1.030974    0.122382   -0.000000
      4          1           0        1.030974   -0.997627   -0.000000
      5          1           0        0.000000    0.560005    0.000000
      6          1           0       -0.000000   -0.560005    0.000000
      7          1           0       -1.030974    0.997627   -0.000000
      8          1           0       -1.030974   -0.122382   -0.000000
      9          1           0       -2.061948    1.435250   -0.000000
     10          1           0       -2.061948    0.315240   -0.000000
 ---------------------------------------------------------------------

 SCF Done:  E(UHF) =  -4.89856548112     A.U. after   14 cycles
 E2 =    -0.7555198632D-01 EUMP2 =    -0.49741174674378D+01

 The electronic state is 3-BU.
 Alpha  occ. eigenvalues --   -0.88826  -0.80336  -0.59021  -0.45320  -0.36119
 Alpha  occ. eigenvalues --   -0.33422
 Alpha virt. eigenvalues --    0.16321   0.21699   0.48819   0.66364
  Beta  occ. eigenvalues --   -0.83098  -0.67213  -0.48864  -0.36514
  Beta virt. eigenvalues --    0.01439   0.04467   0.26760   0.33711   0.59620
  Beta virt. eigenvalues --    0.72909

 Mulliken charges and spin densities:
               1          2
     1  H    0.017178   0.245344
     2  H    0.026850   0.449733
     3  H   -0.009850   0.261919
     4  H    0.011623   0.188507
     5  H   -0.045800  -0.145504
     6  H   -0.045800  -0.145504
     7  H    0.011623   0.188507
     8  H   -0.009850   0.261919
     9  H    0.026850   0.449733
    10  H    0.017178   0.245344
 Sum of Mulliken charges =   0.00000   2.00000

 Dipole moment (field-independent basis, Debye):
    X=             -0.0000    Y=              0.0000    Z=             -0.0000  Tot=              0.0000
 Quadrupole moment (field-independent basis, Debye-Ang):
   XX=            -12.9048   YY=            -14.9882   ZZ=            -12.9305
   XY=             -1.4762   XZ=             -0.0000   YZ=              0.0000

 Normal termination of Gaussian 09 at Thu Feb 23 12:21:26 2017.
