 Gaussian 09, Revision E.01,
 Gaussian 09:  ES64L-G09RevE.01 30-Nov-2015

 ----------------------------------------------------------------------
 #uhf/gen scf(tight,novaracc,noincfock,fulldiag, ) stable(crhf) guess=r
 ead geom=nocrowd test
 ----------------------------------------------------------------------

 hf stability analysis of h10 triangular lattice, y= 1.1255574828824770
  alpha= 65.500000000000000
 ----------------------------------------------------------------------
 Symbolic Z-matrix:
 Charge =  0 Multiplicity = 3

                         Standard orientation:
 ---------------------------------------------------------------------
 Center     Atomic      Atomic             Coordinates (Angstroms)
 Number     Number       Type             X           Y           Z
 ---------------------------------------------------------------------
      1          1           0        1.867044    2.241461   -0.000000
      2          1           0        1.867044    1.004532   -0.000000
      3          1           0        0.933522    1.429963   -0.000000
      4          1           0        0.933522    0.193034   -0.000000
      5          1           0        0.000000    0.618464   -0.000000
      6          1           0       -0.000000   -0.618464   -0.000000
      7          1           0       -0.933522   -0.193034    0.000000
      8          1           0       -0.933522   -1.429963   -0.000000
      9          1           0       -1.867044   -1.004532    0.000000
     10          1           0       -1.867044   -2.241461   -0.000000
 ---------------------------------------------------------------------

 SCF Done:  E(UHF) =  -4.85412513805     A.U. after   14 cycles
 E2 =    -0.5449863175D-01 EUMP2 =    -0.49086237698051D+01

 The electronic state is 3-BU.
 Alpha  occ. eigenvalues --   -0.86638  -0.76764  -0.62080  -0.41402  -0.36708
 Alpha  occ. eigenvalues --   -0.29292
 Alpha virt. eigenvalues --    0.15385   0.18709   0.36528   0.54436
  Beta  occ. eigenvalues --   -0.81397  -0.71306  -0.51884  -0.33665
  Beta virt. eigenvalues --    0.04285   0.13163   0.21931   0.31255   0.45001
  Beta virt. eigenvalues --    0.59134

 Mulliken charges and spin densities:
               1          2
     1  H   -0.100389   0.557865
     2  H    0.041246   0.485324
     3  H    0.123554  -0.215680
     4  H   -0.077974  -0.366871
     5  H    0.013562   0.539361
     6  H    0.013562   0.539361
     7  H   -0.077974  -0.366871
     8  H    0.123554  -0.215680
     9  H    0.041246   0.485324
    10  H   -0.100389   0.557865
 Sum of Mulliken charges =   0.00000   2.00000

 Dipole moment (field-independent basis, Debye):
    X=              0.0000    Y=              0.0000    Z=             -0.0000  Tot=              0.0000
 Quadrupole moment (field-independent basis, Debye-Ang):
   XX=            -15.7995   YY=            -17.8886   ZZ=            -12.8794
   XY=             -2.5368   XZ=             -0.0000   YZ=             -0.0000

 Normal termination of Gaussian 09 at Thu Feb 23 12:26:46 2017.
