 Gaussian 09, Revision E.01,
 Gaussian 09:  ES64L-G09RevE.01 30-Nov-2015

 ----------------------------------------------------------------------
 #uhf/gen scf(tight,novaracc,noincfock,fulldiag, ) stable(crhf) guess=r
 ead geom=nocrowd test
 ----------------------------------------------------------------------

 hf stability analysis of h10 triangular lattice, y= 1.8330252138232914
  alpha= 80.250000000000000
 ----------------------------------------------------------------------
 Symbolic Z-matrix:
 Charge =  0 Multiplicity = 3

                         Standard orientation:
 ---------------------------------------------------------------------
 Center     Atomic      Atomic             Coordinates (Angstroms)
 Number     Number       Type             X           Y           Z
 ---------------------------------------------------------------------
      1          1           0        1.241688    4.436362    0.000000
      2          1           0        1.241688    2.576473    0.000000
      3          1           0        0.620844    2.683154    0.000000
      4          1           0        0.620844    0.823264    0.000000
      5          1           0        0.000000    0.929945    0.000000
      6          1           0       -0.000000   -0.929945    0.000000
      7          1           0       -0.620844   -0.823264   -0.000000
      8          1           0       -0.620844   -2.683154   -0.000000
      9          1           0       -1.241688   -2.576473   -0.000000
     10          1           0       -1.241688   -4.436362   -0.000000
 ---------------------------------------------------------------------

 SCF Done:  E(UHF) =  -5.17352031082     A.U. after    8 cycles
 E2 =    -0.3708958890D-01 EUMP2 =    -0.52106098997209D+01

 The electronic state is 3-BU.
 Alpha  occ. eigenvalues --   -0.73615  -0.70637  -0.65491  -0.59070  -0.47475
 Alpha  occ. eigenvalues --   -0.47084
 Alpha virt. eigenvalues --    0.35890   0.43859   0.55823   0.67565
  Beta  occ. eigenvalues --   -0.73189  -0.69415  -0.63728  -0.57755
  Beta virt. eigenvalues --    0.15209   0.15279   0.36030   0.44181   0.56151
  Beta virt. eigenvalues --    0.67714

 Mulliken charges and spin densities:
               1          2
     1  H    0.003337   1.003269
     2  H   -0.002583  -0.001041
     3  H   -0.001291  -0.002794
     4  H   -0.000292  -0.000512
     5  H    0.000829   0.001077
     6  H    0.000829   0.001077
     7  H   -0.000292  -0.000512
     8  H   -0.001291  -0.002794
     9  H   -0.002583  -0.001041
    10  H    0.003337   1.003269
 Sum of Mulliken charges =   0.00000   2.00000

 Dipole moment (field-independent basis, Debye):
    X=              0.0000    Y=             -0.0000    Z=              0.0000  Tot=              0.0000
 Quadrupole moment (field-independent basis, Debye-Ang):
   XX=            -12.1628   YY=            -16.6714   ZZ=            -13.1178
   XY=             -1.3163   XZ=              0.0000   YZ=             -0.0000

 Normal termination of Gaussian 09 at Thu Feb 23 12:29:10 2017.
