 Gaussian 09, Revision E.01,
 Gaussian 09:  ES64L-G09RevE.01 30-Nov-2015

 ----------------------------------------------------------------------
 #uhf/gen scf(tight,novaracc,noincfock,fulldiag, ) stable(crhf) guess=r
 ead geom=nocrowd test
 ----------------------------------------------------------------------

 hf stability analysis of h10 triangular lattice, y= 0.8294933944434413
 9 alpha= 50.000000000000000
 ----------------------------------------------------------------------
 Symbolic Z-matrix:
 Charge =  0 Multiplicity = 3

                         Standard orientation:
 ---------------------------------------------------------------------
 Center     Atomic      Atomic             Coordinates (Angstroms)
 Number     Number       Type             X           Y           Z
 ---------------------------------------------------------------------
      1          1           0        2.132752    0.917475    0.000000
      2          1           0        2.132752   -0.165352   -0.000000
      3          1           0        1.066376    0.729444    0.000000
      4          1           0        1.066376   -0.353382   -0.000000
      5          1           0        0.000000    0.541413    0.000000
      6          1           0       -0.000000   -0.541413    0.000000
      7          1           0       -1.066376    0.353382    0.000000
      8          1           0       -1.066376   -0.729444    0.000000
      9          1           0       -2.132752    0.165352    0.000000
     10          1           0       -2.132752   -0.917475    0.000000
 ---------------------------------------------------------------------

 SCF Done:  E(UHF) =  -4.92157379509     A.U. after   12 cycles
 E2 =    -0.7268497663D-01 EUMP2 =    -0.49942587717233D+01

 The electronic state is 3-BU.
 Alpha  occ. eigenvalues --   -0.90200  -0.81421  -0.58009  -0.48285  -0.36448
 Alpha  occ. eigenvalues --   -0.35015
 Alpha virt. eigenvalues --    0.15020   0.28984   0.45124   0.83558
  Beta  occ. eigenvalues --   -0.84256  -0.66606  -0.49199  -0.40057
  Beta virt. eigenvalues --    0.03005   0.04197   0.23630   0.39327   0.59295
  Beta virt. eigenvalues --    0.90115

 Mulliken charges and spin densities:
               1          2
     1  H    0.023335   0.367372
     2  H    0.025905   0.231645
     3  H   -0.014773   0.318480
     4  H   -0.021322   0.362555
     5  H   -0.013145  -0.280052
     6  H   -0.013145  -0.280052
     7  H   -0.021322   0.362555
     8  H   -0.014773   0.318480
     9  H    0.025905   0.231645
    10  H    0.023335   0.367372
 Sum of Mulliken charges =  -0.00000   2.00000

 Dipole moment (field-independent basis, Debye):
    X=             -0.0000    Y=             -0.0000    Z=              0.0000  Tot=              0.0000
 Quadrupole moment (field-independent basis, Debye-Ang):
   XX=            -13.2348   YY=            -15.3122   ZZ=            -12.8658
   XY=              0.4591   XZ=              0.0000   YZ=             -0.0000

 Normal termination of Gaussian 09 at Thu Feb 23 12:24:11 2017.
