 Gaussian 09, Revision E.01,
 Gaussian 09:  ES64L-G09RevE.01 30-Nov-2015

 ----------------------------------------------------------------------
 #uhf/gen scf(tight,novaracc,noincfock,fulldiag, ) stable(crhf) guess=r
 ead geom=nocrowd test
 ----------------------------------------------------------------------

 hf stability analysis of h10 triangular lattice, y= 0.7631583969428945
 6 alpha= 45.250000000000000
 ----------------------------------------------------------------------
 Symbolic Z-matrix:
 Charge =  0 Multiplicity = 3

                         Standard orientation:
 ---------------------------------------------------------------------
 Center     Atomic      Atomic             Coordinates (Angstroms)
 Number     Number       Type             X           Y           Z
 ---------------------------------------------------------------------
      1          1           0        2.149099    0.556050    0.000000
      2          1           0        2.149099   -0.518540    0.000000
      3          1           0        1.074549    0.546673    0.000000
      4          1           0        1.074549   -0.527918    0.000000
      5          1           0        0.000000    0.537295    0.000000
      6          1           0       -0.000000   -0.537295    0.000000
      7          1           0       -1.074549    0.527918    0.000000
      8          1           0       -1.074549   -0.546673    0.000000
      9          1           0       -2.149099    0.518540    0.000000
     10          1           0       -2.149099   -0.556050    0.000000
 ---------------------------------------------------------------------

 SCF Done:  E(UHF) =  -4.92498475815     A.U. after   12 cycles
 E2 =    -0.7200495900D-01 EUMP2 =    -0.49969897171427D+01

 The electronic state is 3-BU.
 Alpha  occ. eigenvalues --   -0.90503  -0.81657  -0.57723  -0.48922  -0.37230
 Alpha  occ. eigenvalues --   -0.34676
 Alpha virt. eigenvalues --    0.14585   0.31396   0.43688   0.88400
  Beta  occ. eigenvalues --   -0.84552  -0.66421  -0.49275  -0.40904
  Beta virt. eigenvalues --    0.02753   0.04971   0.22836   0.40606   0.59358
  Beta virt. eigenvalues --    0.94862

 Mulliken charges and spin densities:
               1          2
     1  H    0.025319   0.295092
     2  H    0.025615   0.287510
     3  H   -0.024729   0.362666
     4  H   -0.025086   0.364985
     5  H   -0.001119  -0.310252
     6  H   -0.001119  -0.310252
     7  H   -0.025086   0.364985
     8  H   -0.024729   0.362666
     9  H    0.025615   0.287510
    10  H    0.025319   0.295092
 Sum of Mulliken charges =  -0.00000   2.00000

 Dipole moment (field-independent basis, Debye):
    X=              0.0000    Y=              0.0000    Z=              0.0000  Tot=              0.0000
 Quadrupole moment (field-independent basis, Debye-Ang):
   XX=            -13.3624   YY=            -15.3192   ZZ=            -12.8492
   XY=              0.0196   XZ=              0.0000   YZ=             -0.0000

 Normal termination of Gaussian 09 at Thu Feb 23 12:23:24 2017.
