 Gaussian 09, Revision E.01,
 Gaussian 09:  ES64L-G09RevE.01 30-Nov-2015

 ----------------------------------------------------------------------
 #uhf/gen scf(tight,novaracc,noincfock,fulldiag, ) stable(crhf) guess=r
 ead geom=nocrowd test
 ----------------------------------------------------------------------

 hf stability analysis of h10 triangular lattice, y= 0.6566033129082584
 6 alpha= 36.750000000000000
 ----------------------------------------------------------------------
 Symbolic Z-matrix:
 Charge =  0 Multiplicity = 3

                         Standard orientation:
 ---------------------------------------------------------------------
 Center     Atomic      Atomic             Coordinates (Angstroms)
 Number     Number       Type             X           Y           Z
 ---------------------------------------------------------------------
      1          1           0        2.104424   -0.074657    0.000000
      2          1           0        2.104424   -1.172060    0.000000
      3          1           0        1.052212    0.237022    0.000000
      4          1           0        1.052212   -0.860381    0.000000
      5          1           0        0.000000    0.548702    0.000000
      6          1           0       -0.000000   -0.548702    0.000000
      7          1           0       -1.052212    0.860381    0.000000
      8          1           0       -1.052212   -0.237022    0.000000
      9          1           0       -2.104424    1.172060    0.000000
     10          1           0       -2.104424    0.074657    0.000000
 ---------------------------------------------------------------------

 SCF Done:  E(UHF) =  -4.91387629438     A.U. after   13 cycles
 E2 =    -0.7386866784D-01 EUMP2 =    -0.49877449622238D+01

 The electronic state is 3-BU.
 Alpha  occ. eigenvalues --   -0.89657  -0.81001  -0.58433  -0.47135  -0.35509
 Alpha  occ. eigenvalues --   -0.35171
 Alpha virt. eigenvalues --    0.15646   0.25659   0.46882   0.76043
  Beta  occ. eigenvalues --   -0.83764  -0.66863  -0.49072  -0.38614
  Beta virt. eigenvalues --    0.02985   0.03540   0.24933   0.37067   0.59364
  Beta virt. eigenvalues --    0.82653

 Mulliken charges and spin densities:
               1          2
     1  H    0.022124   0.221315
     2  H    0.024956   0.410173
     3  H   -0.013949   0.332217
     4  H   -0.003361   0.265989
     5  H   -0.029770  -0.229694
     6  H   -0.029770  -0.229694
     7  H   -0.003361   0.265989
     8  H   -0.013949   0.332217
     9  H    0.024956   0.410173
    10  H    0.022124   0.221315
 Sum of Mulliken charges =  -0.00000   2.00000

 Dipole moment (field-independent basis, Debye):
    X=             -0.0000    Y=              0.0000    Z=              0.0000  Tot=              0.0000
 Quadrupole moment (field-independent basis, Debye-Ang):
   XX=            -13.0572   YY=            -15.2214   ZZ=            -12.8930
   XY=             -0.9146   XZ=              0.0000   YZ=              0.0000

 Normal termination of Gaussian 09 at Thu Feb 23 12:21:59 2017.
