 Gaussian 09, Revision E.01,
 Gaussian 09:  ES64L-G09RevE.01 30-Nov-2015

 ----------------------------------------------------------------------
 #uhf/gen scf(tight,novaracc,noincfock,fulldiag, ) stable(crhf) guess=r
 ead geom=nocrowd test
 ----------------------------------------------------------------------

 hf stability analysis of h10 triangular lattice, y= 1.0050639437111659
  alpha= 60.250000000000000
 ----------------------------------------------------------------------
 Symbolic Z-matrix:
 Charge =  0 Multiplicity = 3

                         Standard orientation:
 ---------------------------------------------------------------------
 Center     Atomic      Atomic             Coordinates (Angstroms)
 Number     Number       Type             X           Y           Z
 ---------------------------------------------------------------------
      1          1           0        1.994917    1.753917   -0.000000
      2          1           0        1.994917    0.596275   -0.000000
      3          1           0        0.997459    1.166369   -0.000000
      4          1           0        0.997459    0.008727   -0.000000
      5          1           0       -0.000000    0.578821    0.000000
      6          1           0       -0.000000   -0.578821    0.000000
      7          1           0       -0.997459   -0.008727   -0.000000
      8          1           0       -0.997459   -1.166369    0.000000
      9          1           0       -1.994917   -0.596275   -0.000000
     10          1           0       -1.994917   -1.753917    0.000000
 ---------------------------------------------------------------------

 SCF Done:  E(UHF) =  -4.87034746394     A.U. after   16 cycles
 E2 =    -0.7293580030D-01 EUMP2 =    -0.49432832642358D+01

 The electronic state is 3-BU.
 Alpha  occ. eigenvalues --   -0.88088  -0.79024  -0.60475  -0.42075  -0.37433
 Alpha  occ. eigenvalues --   -0.31290
 Alpha virt. eigenvalues --    0.16764   0.17423   0.51382   0.52744
  Beta  occ. eigenvalues --   -0.82521  -0.68624  -0.48977  -0.33962
  Beta virt. eigenvalues --    0.00203   0.06437   0.28395   0.29821   0.59240
  Beta virt. eigenvalues --    0.59880

 Mulliken charges and spin densities:
               1          2
     1  H   -0.021434   0.462161
     2  H    0.049543   0.394034
     3  H    0.052429   0.017587
     4  H   -0.079965  -0.040674
     5  H   -0.000573   0.166892
     6  H   -0.000573   0.166892
     7  H   -0.079965  -0.040674
     8  H    0.052429   0.017587
     9  H    0.049543   0.394034
    10  H   -0.021434   0.462161
 Sum of Mulliken charges =  -0.00000   2.00000

 Dipole moment (field-independent basis, Debye):
    X=              0.0000    Y=              0.0000    Z=              0.0000  Tot=              0.0000
 Quadrupole moment (field-independent basis, Debye-Ang):
   XX=            -13.6015   YY=            -15.5083   ZZ=            -12.9577
   XY=              0.8541   XZ=             -0.0000   YZ=              0.0000

 Normal termination of Gaussian 09 at Thu Feb 23 12:25:54 2017.
