 Gaussian 09, Revision E.01,
 Gaussian 09:  ES64L-G09RevE.01 30-Nov-2015

 ----------------------------------------------------------------------
 #uhf/gen scf(tight,novaracc,noincfock,fulldiag, ) stable(crhf) guess=r
 ead geom=nocrowd test
 ----------------------------------------------------------------------

 hf stability analysis of h10 triangular lattice, y= 0.4646099728787273
 0 alpha= 20.500000000000000
 ----------------------------------------------------------------------
 Symbolic Z-matrix:
 Charge =  0 Multiplicity = 3

                         Standard orientation:
 ---------------------------------------------------------------------
 Center     Atomic      Atomic             Coordinates (Angstroms)
 Number     Number       Type             X           Y           Z
 ---------------------------------------------------------------------
      1          1           0        1.740749   -1.339167    0.000000
      2          1           0        1.740749   -2.665838    0.000000
      3          1           0        0.870374   -0.337916    0.000000
      4          1           0        0.870374   -1.664587    0.000000
      5          1           0       -0.000000    0.663335    0.000000
      6          1           0       -0.000000   -0.663335   -0.000000
      7          1           0       -0.870374    1.664587    0.000000
      8          1           0       -0.870374    0.337916    0.000000
      9          1           0       -1.740749    2.665838    0.000000
     10          1           0       -1.740749    1.339167    0.000000
 ---------------------------------------------------------------------

 SCF Done:  E(UHF) =  -4.89322688324     A.U. after   13 cycles
 E2 =    -0.4004983131D-01 EUMP2 =    -0.49332767145480D+01

 The electronic state is 3-BU.
 Alpha  occ. eigenvalues --   -0.82721  -0.74337  -0.62651  -0.45966  -0.32811
 Alpha  occ. eigenvalues --   -0.31074
 Alpha virt. eigenvalues --    0.16238   0.19513   0.35622   0.58424
  Beta  occ. eigenvalues --   -0.79903  -0.71277  -0.53913  -0.36950
  Beta virt. eigenvalues --    0.09978   0.19012   0.21731   0.26899   0.43982
  Beta virt. eigenvalues --    0.60328

 Mulliken charges and spin densities:
               1          2
     1  H   -0.016658   0.438100
     2  H   -0.081339   0.798777
     3  H    0.021941  -0.516905
     4  H    0.110759  -0.308667
     5  H   -0.034702   0.588695
     6  H   -0.034702   0.588695
     7  H    0.110759  -0.308667
     8  H    0.021941  -0.516905
     9  H   -0.081339   0.798777
    10  H   -0.016658   0.438100
 Sum of Mulliken charges =   0.00000   2.00000

 Dipole moment (field-independent basis, Debye):
    X=             -0.0000    Y=             -0.0000    Z=             -0.0000  Tot=              0.0000
 Quadrupole moment (field-independent basis, Debye-Ang):
   XX=            -15.5359   YY=            -19.4616   ZZ=            -12.7447
   XY=              4.2620   XZ=              0.0000   YZ=             -0.0000

 Normal termination of Gaussian 09 at Thu Feb 23 12:19:14 2017.
