 Gaussian 09, Revision E.01,
 Gaussian 09:  ES64L-G09RevE.01 30-Nov-2015

 ----------------------------------------------------------------------
 #uhf/gen scf(tight,novaracc,noincfock,fulldiag, ) stable(crhf) guess=r
 ead geom=nocrowd test
 ----------------------------------------------------------------------

 hf stability analysis of h10 triangular lattice, y= 1.3742008147382716
  alpha= 73.000000000000000
 ----------------------------------------------------------------------
 Symbolic Z-matrix:
 Charge =  0 Multiplicity = 3

                         Standard orientation:
 ---------------------------------------------------------------------
 Center     Atomic      Atomic             Coordinates (Angstroms)
 Number     Number       Type             X           Y           Z
 ---------------------------------------------------------------------
      1          1           0        1.607110    3.101133    0.000000
      2          1           0        1.607110    1.664143    0.000000
      3          1           0        0.803555    1.909814    0.000000
      4          1           0        0.803555    0.472824    0.000000
      5          1           0        0.000000    0.718495    0.000000
      6          1           0       -0.000000   -0.718495   -0.000000
      7          1           0       -0.803555   -0.472824   -0.000000
      8          1           0       -0.803555   -1.909814   -0.000000
      9          1           0       -1.607110   -1.664143   -0.000000
     10          1           0       -1.607110   -3.101133   -0.000000
 ---------------------------------------------------------------------

 SCF Done:  E(UHF) =  -5.01693278096     A.U. after   13 cycles
 E2 =    -0.5485068272D-01 EUMP2 =    -0.50717834636807D+01

 The electronic state is 3-BU.
 Alpha  occ. eigenvalues --   -0.78178  -0.72108  -0.62353  -0.49509  -0.37409
 Alpha  occ. eigenvalues --   -0.30678
 Alpha virt. eigenvalues --    0.15055   0.26150   0.42860   0.61437
  Beta  occ. eigenvalues --   -0.76741  -0.68818  -0.55304  -0.39307
  Beta virt. eigenvalues --    0.15121   0.20828   0.23212   0.27110   0.45813
  Beta virt. eigenvalues --    0.62628

 Mulliken charges and spin densities:
               1          2
     1  H   -0.058860   0.930305
     2  H   -0.021021   0.160287
     3  H    0.062843  -0.107657
     4  H    0.023329  -0.183007
     5  H   -0.006291   0.200073
     6  H   -0.006291   0.200073
     7  H    0.023329  -0.183007
     8  H    0.062843  -0.107657
     9  H   -0.021021   0.160287
    10  H   -0.058860   0.930305
 Sum of Mulliken charges =   0.00000   2.00000

 Dipole moment (field-independent basis, Debye):
    X=              0.0000    Y=             -0.0000    Z=              0.0000  Tot=              0.0000
 Quadrupole moment (field-independent basis, Debye-Ang):
   XX=            -14.0329   YY=            -21.4202   ZZ=            -12.6363
   XY=             -5.6993   XZ=             -0.0000   YZ=             -0.0000

 Normal termination of Gaussian 09 at Thu Feb 23 12:28:01 2017.
