 Gaussian 09, Revision E.01,
 Gaussian 09:  ES64L-G09RevE.01 30-Nov-2015

 ----------------------------------------------------------------------
 #uhf/gen scf(tight,novaracc,noincfock,fulldiag, ) stable(crhf) guess=r
 ead geom=nocrowd test
 ----------------------------------------------------------------------

 hf stability analysis of h10 triangular lattice, y= 2.0941375407372735
  alpha= 82.500000000000000
 ----------------------------------------------------------------------
 Symbolic Z-matrix:
 Charge =  0 Multiplicity = 3

                         Standard orientation:
 ---------------------------------------------------------------------
 Center     Atomic      Atomic             Coordinates (Angstroms)
 Number     Number       Type             X           Y           Z
 ---------------------------------------------------------------------
      1          1           0        1.093359    5.136576    0.000000
      2          1           0        1.093359    3.024368    0.000000
      3          1           0        0.546680    3.096340    0.000000
      4          1           0        0.546680    0.984132    0.000000
      5          1           0       -0.000000    1.056104    0.000000
      6          1           0       -0.000000   -1.056104    0.000000
      7          1           0       -0.546680   -0.984132    0.000000
      8          1           0       -0.546680   -3.096340    0.000000
      9          1           0       -1.093359   -3.024368    0.000000
     10          1           0       -1.093359   -5.136576    0.000000
 ---------------------------------------------------------------------

 SCF Done:  E(UHF) =  -5.01913498882     A.U. after    7 cycles
 E2 =    -0.3133391580D-01 EUMP2 =    -0.50504689046188D+01

 The electronic state is 3-BU.
 Alpha  occ. eigenvalues --   -0.73317  -0.71375  -0.68250  -0.64821  -0.49128
 Alpha  occ. eigenvalues --   -0.49092
 Alpha virt. eigenvalues --    0.45585   0.51909   0.60985   0.69520
  Beta  occ. eigenvalues --   -0.73111  -0.70796  -0.67537  -0.64450
  Beta virt. eigenvalues --    0.13888   0.13901   0.45645   0.52056   0.61134
  Beta virt. eigenvalues --    0.69583

 Mulliken charges and spin densities:
               1          2
     1  H    0.004415   1.004405
     2  H   -0.001562  -0.002129
     3  H   -0.002911  -0.002342
     4  H   -0.000193  -0.000064
     5  H    0.000253   0.000131
     6  H    0.000253   0.000131
     7  H   -0.000193  -0.000064
     8  H   -0.002911  -0.002342
     9  H   -0.001562  -0.002129
    10  H    0.004415   1.004405
 Sum of Mulliken charges =  -0.00000   2.00000

 Dipole moment (field-independent basis, Debye):
    X=             -0.0000    Y=             -0.0000    Z=              0.0000  Tot=              0.0000
 Quadrupole moment (field-independent basis, Debye-Ang):
   XX=            -12.3946   YY=            -15.4326   ZZ=            -13.3226
   XY=             -0.6239   XZ=             -0.0000   YZ=             -0.0000

 Normal termination of Gaussian 09 at Thu Feb 23 12:29:31 2017.
