 Gaussian 09, Revision E.01,
 Gaussian 09:  ES64L-G09RevE.01 30-Nov-2015

 ----------------------------------------------------------------------
 #uhf/gen scf(tight,novaracc,noincfock,fulldiag, ) stable(crhf) guess=r
 ead geom=nocrowd test
 ----------------------------------------------------------------------

 hf stability analysis of h10 triangular lattice, y= 0.2710133450063199
 1 alpha= 7.2500000000000000
 ----------------------------------------------------------------------
 Symbolic Z-matrix:
 Charge =  0 Multiplicity = 3

                         Standard orientation:
 ---------------------------------------------------------------------
 Center     Atomic      Atomic             Coordinates (Angstroms)
 Number     Number       Type             X           Y           Z
 ---------------------------------------------------------------------
      1          1           0        1.075386   -3.084456   -0.000000
      2          1           0        1.075386   -5.231964   -0.000000
      3          1           0        0.537693   -1.005351   -0.000000
      4          1           0        0.537693   -3.152859   -0.000000
      5          1           0        0.000000    1.073754    0.000000
      6          1           0       -0.000000   -1.073754    0.000000
      7          1           0       -0.537693    3.152859   -0.000000
      8          1           0       -0.537693    1.005351   -0.000000
      9          1           0       -1.075386    5.231964   -0.000000
     10          1           0       -1.075386    3.084456   -0.000000
 ---------------------------------------------------------------------

 SCF Done:  E(UHF) =  -4.98964772004     A.U. after    6 cycles
 E2 =    -0.3072984309D-01 EUMP2 =    -0.50203775631286D+01

 The electronic state is 3-BU.
 Alpha  occ. eigenvalues --   -0.73338  -0.71521  -0.68630  -0.65511  -0.49250
 Alpha  occ. eigenvalues --   -0.49224
 Alpha virt. eigenvalues --    0.46836   0.52942   0.61657   0.69807
  Beta  occ. eigenvalues --   -0.73151  -0.71000  -0.67999  -0.65194
  Beta virt. eigenvalues --    0.13766   0.13776   0.46889   0.53075   0.61791
  Beta virt. eigenvalues --    0.69863

 Mulliken charges and spin densities:
               1          2
     1  H   -0.001458  -0.002075
     2  H    0.004269   1.004261
     3  H   -0.000174  -0.000049
     4  H   -0.002852  -0.002235
     5  H    0.000216   0.000098
     6  H    0.000216   0.000098
     7  H   -0.002852  -0.002235
     8  H   -0.000174  -0.000049
     9  H    0.004269   1.004261
    10  H   -0.001458  -0.002075
 Sum of Mulliken charges =  -0.00000   2.00000

 Dipole moment (field-independent basis, Debye):
    X=              0.0000    Y=             -0.0000    Z=             -0.0000  Tot=              0.0000
 Quadrupole moment (field-independent basis, Debye-Ang):
   XX=            -12.4319   YY=            -15.3089   ZZ=            -13.3451
   XY=              0.5654   XZ=             -0.0000   YZ=              0.0000

 Normal termination of Gaussian 09 at Thu Feb 23 12:17:07 2017.
