 Gaussian 09, Revision E.01,
 Gaussian 09:  ES64L-G09RevE.01 30-Nov-2015

 ----------------------------------------------------------------------
 #uhf/gen scf(tight,novaracc,noincfock,fulldiag, ) stable(crhf) guess=r
 ead geom=nocrowd test
 ----------------------------------------------------------------------

 hf stability analysis of h10 triangular lattice, y= 0.7053203805026391
 2 alpha= 40.750000000000000
 ----------------------------------------------------------------------
 Symbolic Z-matrix:
 Charge =  0 Multiplicity = 3

                         Standard orientation:
 ---------------------------------------------------------------------
 Center     Atomic      Atomic             Coordinates (Angstroms)
 Number     Number       Type             X           Y           Z
 ---------------------------------------------------------------------
      1          1           0        2.137304    0.220838   -0.000000
      2          1           0        2.137304   -0.859683   -0.000000
      3          1           0        1.068652    0.380549   -0.000000
      4          1           0        1.068652   -0.699971   -0.000000
      5          1           0       -0.000000    0.540260   -0.000000
      6          1           0       -0.000000   -0.540260   -0.000000
      7          1           0       -1.068652    0.699971    0.000000
      8          1           0       -1.068652   -0.380549   -0.000000
      9          1           0       -2.137304    0.859683   -0.000000
     10          1           0       -2.137304   -0.220838   -0.000000
 ---------------------------------------------------------------------

 SCF Done:  E(UHF) =  -4.92260261773     A.U. after   12 cycles
 E2 =    -0.7249515293D-01 EUMP2 =    -0.49950977706647D+01

 The electronic state is 3-BU.
 Alpha  occ. eigenvalues --   -0.90285  -0.81487  -0.57933  -0.48465  -0.36662
 Alpha  occ. eigenvalues --   -0.34925
 Alpha virt. eigenvalues --    0.14905   0.29603   0.44771   0.84865
  Beta  occ. eigenvalues --   -0.84338  -0.66558  -0.49220  -0.40292
  Beta virt. eigenvalues --    0.02930   0.04407   0.23412   0.39687   0.59302
  Beta virt. eigenvalues --    0.91402

 Mulliken charges and spin densities:
               1          2
     1  H    0.026290   0.237728
     2  H    0.023374   0.356564
     3  H   -0.022666   0.366001
     4  H   -0.016990   0.328001
     5  H   -0.010007  -0.288294
     6  H   -0.010007  -0.288294
     7  H   -0.016990   0.328001
     8  H   -0.022666   0.366001
     9  H    0.023374   0.356564
    10  H    0.026290   0.237728
 Sum of Mulliken charges =  -0.00000   2.00000

 Dipole moment (field-independent basis, Debye):
    X=              0.0000    Y=             -0.0000    Z=             -0.0000  Tot=              0.0000
 Quadrupole moment (field-independent basis, Debye-Ang):
   XX=            -13.2685   YY=            -15.3180   ZZ=            -12.8613
   XY=             -0.3751   XZ=             -0.0000   YZ=             -0.0000

 Normal termination of Gaussian 09 at Thu Feb 23 12:22:39 2017.
