 Gaussian 09, Revision E.01,
 Gaussian 09:  ES64L-G09RevE.01 30-Nov-2015

 ----------------------------------------------------------------------
 #uhf/gen scf(tight,novaracc,noincfock,fulldiag, ) stable(crhf) guess=r
 ead geom=nocrowd test
 ----------------------------------------------------------------------

 hf stability analysis of h10 triangular lattice, y= 1.1523084791052536
  alpha= 66.500000000000000
 ----------------------------------------------------------------------
 Symbolic Z-matrix:
 Charge =  0 Multiplicity = 3

                         Standard orientation:
 ---------------------------------------------------------------------
 Center     Atomic      Atomic             Coordinates (Angstroms)
 Number     Number       Type             X           Y           Z
 ---------------------------------------------------------------------
      1          1           0        1.837928    2.342158    0.000000
      2          1           0        1.837928    1.085633    0.000000
      3          1           0        0.918964    1.485210    0.000000
      4          1           0        0.918964    0.228685    0.000000
      5          1           0        0.000000    0.628262    0.000000
      6          1           0       -0.000000   -0.628262    0.000000
      7          1           0       -0.918964   -0.228685    0.000000
      8          1           0       -0.918964   -1.485210    0.000000
      9          1           0       -1.837928   -1.085633    0.000000
     10          1           0       -1.837928   -2.342158    0.000000
 ---------------------------------------------------------------------

 SCF Done:  E(UHF) =  -4.85775479860     A.U. after   13 cycles
 E2 =    -0.4968460673D-01 EUMP2 =    -0.49074394053341D+01

 The electronic state is 3-BU.
 Alpha  occ. eigenvalues --   -0.85799  -0.76185  -0.62323  -0.42515  -0.35277
 Alpha  occ. eigenvalues --   -0.29774
 Alpha virt. eigenvalues --    0.15878   0.18642   0.35142   0.55419
  Beta  occ. eigenvalues --   -0.81166  -0.71535  -0.52392  -0.34273
  Beta virt. eigenvalues --    0.05575   0.14472   0.21682   0.30465   0.43927
  Beta virt. eigenvalues --    0.59289

 Mulliken charges and spin densities:
               1          2
     1  H   -0.099201   0.627003
     2  H    0.028627   0.481497
     3  H    0.123678  -0.257789
     4  H   -0.053854  -0.416995
     5  H    0.000749   0.566283
     6  H    0.000749   0.566283
     7  H   -0.053854  -0.416995
     8  H    0.123678  -0.257789
     9  H    0.028627   0.481497
    10  H   -0.099201   0.627003
 Sum of Mulliken charges =   0.00000   2.00000

 Dipole moment (field-independent basis, Debye):
    X=             -0.0000    Y=              0.0000    Z=             -0.0000  Tot=              0.0000
 Quadrupole moment (field-independent basis, Debye-Ang):
   XX=            -15.8277   YY=            -18.2866   ZZ=            -12.8515
   XY=             -2.9759   XZ=             -0.0000   YZ=              0.0000

 Normal termination of Gaussian 09 at Thu Feb 23 12:26:56 2017.
