 Gaussian 09, Revision E.01,
 Gaussian 09:  ES64L-G09RevE.01 30-Nov-2015

 ----------------------------------------------------------------------
 #uhf/gen scf(tight,novaracc,noincfock,fulldiag, ) stable(crhf) guess=r
 ead geom=nocrowd test
 ----------------------------------------------------------------------

 hf stability analysis of h10 triangular lattice, y= 0.4676948326587840
 9 alpha= 20.750000000000000
 ----------------------------------------------------------------------
 Symbolic Z-matrix:
 Charge =  0 Multiplicity = 3

                         Standard orientation:
 ---------------------------------------------------------------------
 Center     Atomic      Atomic             Coordinates (Angstroms)
 Number     Number       Type             X           Y           Z
 ---------------------------------------------------------------------
      1          1           0        1.749432   -1.317329   -0.000000
      2          1           0        1.749432   -2.637416   -0.000000
      3          1           0        0.874716   -0.328643   -0.000000
      4          1           0        0.874716   -1.648730   -0.000000
      5          1           0        0.000000    0.660043   -0.000000
      6          1           0       -0.000000   -0.660043    0.000000
      7          1           0       -0.874716    1.648730   -0.000000
      8          1           0       -0.874716    0.328643   -0.000000
      9          1           0       -1.749432    2.637416   -0.000000
     10          1           0       -1.749432    1.317329   -0.000000
 ---------------------------------------------------------------------

 SCF Done:  E(UHF) =  -4.88842611701     A.U. after   13 cycles
 E2 =    -0.4038194048D-01 EUMP2 =    -0.49288080574814D+01

 The electronic state is 3-BU.
 Alpha  occ. eigenvalues --   -0.83011  -0.74497  -0.62638  -0.45676  -0.32484
 Alpha  occ. eigenvalues --   -0.31353
 Alpha virt. eigenvalues --    0.16492   0.19081   0.35330   0.58186
  Beta  occ. eigenvalues --   -0.80043  -0.71357  -0.53802  -0.36709
  Beta virt. eigenvalues --    0.09595   0.18615   0.21673   0.27195   0.43862
  Beta virt. eigenvalues --    0.60206

 Mulliken charges and spin densities:
               1          2
     1  H   -0.013045   0.443889
     2  H   -0.083077   0.786312
     3  H    0.016296  -0.513475
     4  H    0.112419  -0.308377
     5  H   -0.032593   0.591651
     6  H   -0.032593   0.591651
     7  H    0.112419  -0.308377
     8  H    0.016296  -0.513475
     9  H   -0.083077   0.786312
    10  H   -0.013045   0.443889
 Sum of Mulliken charges =   0.00000   2.00000

 Dipole moment (field-independent basis, Debye):
    X=             -0.0000    Y=              0.0000    Z=              0.0000  Tot=              0.0000
 Quadrupole moment (field-independent basis, Debye-Ang):
   XX=            -15.5822   YY=            -19.3413   ZZ=            -12.7554
   XY=              4.1396   XZ=             -0.0000   YZ=              0.0000

 Normal termination of Gaussian 09 at Thu Feb 23 12:19:17 2017.
