 Gaussian 09, Revision E.01,
 Gaussian 09:  ES64L-G09RevE.01 30-Nov-2015

 ----------------------------------------------------------------------
 #uhf/gen scf(tight,novaracc,noincfock,fulldiag, ) stable(crhf) guess=r
 ead geom=nocrowd test
 ----------------------------------------------------------------------

 hf stability analysis of h10 triangular lattice, y= 0.5628012212403139
 5 alpha= 28.750000000000000
 ----------------------------------------------------------------------
 Symbolic Z-matrix:
 Charge =  0 Multiplicity = 3

                         Standard orientation:
 ---------------------------------------------------------------------
 Center     Atomic      Atomic             Coordinates (Angstroms)
 Number     Number       Type             X           Y           Z
 ---------------------------------------------------------------------
      1          1           0        1.973692   -0.672334   -0.000000
      2          1           0        1.973692   -1.842426   -0.000000
      3          1           0        0.986846   -0.043644   -0.000000
      4          1           0        0.986846   -1.213736   -0.000000
      5          1           0        0.000000    0.585046   -0.000000
      6          1           0       -0.000000   -0.585046   -0.000000
      7          1           0       -0.986846    1.213736    0.000000
      8          1           0       -0.986846    0.043644   -0.000000
      9          1           0       -1.973692    1.842426    0.000000
     10          1           0       -1.973692    0.672334   -0.000000
 ---------------------------------------------------------------------

 SCF Done:  E(UHF) =  -4.86383974321     A.U. after   15 cycles
 E2 =    -0.6954242198D-01 EUMP2 =    -0.49333821651897D+01

 The electronic state is 3-BU.
 Alpha  occ. eigenvalues --   -0.88209  -0.78613  -0.60904  -0.41604  -0.37610
 Alpha  occ. eigenvalues --   -0.30648
 Alpha virt. eigenvalues --    0.16660   0.17059   0.48765   0.51927
  Beta  occ. eigenvalues --   -0.82319  -0.69335  -0.49603  -0.33545
  Beta virt. eigenvalues --    0.00519   0.07640   0.26697   0.30694   0.56338
  Beta virt. eigenvalues --    0.58986

 Mulliken charges and spin densities:
               1          2
     1  H    0.062917   0.436811
     2  H   -0.050931   0.438518
     3  H   -0.110950  -0.142529
     4  H    0.072817  -0.026239
     5  H    0.026148   0.293440
     6  H    0.026148   0.293440
     7  H    0.072817  -0.026239
     8  H   -0.110950  -0.142529
     9  H   -0.050931   0.438518
    10  H    0.062917   0.436811
 Sum of Mulliken charges =  -0.00000   2.00000

 Dipole moment (field-independent basis, Debye):
    X=              0.0000    Y=             -0.0000    Z=              0.0000  Tot=              0.0000
 Quadrupole moment (field-independent basis, Debye-Ang):
   XX=            -14.2828   YY=            -16.0363   ZZ=            -12.9464
   XY=             -0.0260   XZ=              0.0000   YZ=             -0.0000

 Normal termination of Gaussian 09 at Thu Feb 23 12:20:39 2017.
