 Gaussian 09, Revision E.01,
 Gaussian 09:  ES64L-G09RevE.01 30-Nov-2015

 ----------------------------------------------------------------------
 #uhf/gen scf(tight,novaracc,noincfock,fulldiag, ) stable(crhf) guess=r
 ead geom=nocrowd test
 ----------------------------------------------------------------------

 hf stability analysis of h10 triangular lattice, y= 0.7902999627936464
 5 alpha= 47.250000000000000
 ----------------------------------------------------------------------
 Symbolic Z-matrix:
 Charge =  0 Multiplicity = 3

                         Standard orientation:
 ---------------------------------------------------------------------
 Center     Atomic      Atomic             Coordinates (Angstroms)
 Number     Number       Type             X           Y           Z
 ---------------------------------------------------------------------
      1          1           0        2.145825    0.706995    0.000000
      2          1           0        2.145825   -0.369235    0.000000
      3          1           0        1.072912    0.622555    0.000000
      4          1           0        1.072912   -0.453675    0.000000
      5          1           0        0.000000    0.538115    0.000000
      6          1           0       -0.000000   -0.538115    0.000000
      7          1           0       -1.072912    0.453675    0.000000
      8          1           0       -1.072912   -0.622555    0.000000
      9          1           0       -2.145825    0.369235    0.000000
     10          1           0       -2.145825   -0.706995    0.000000
 ---------------------------------------------------------------------

 SCF Done:  E(UHF) =  -4.92436534172     A.U. after   12 cycles
 E2 =    -0.7214074539D-01 EUMP2 =    -0.49965060871110D+01

 The electronic state is 3-BU.
 Alpha  occ. eigenvalues --   -0.90443  -0.81610  -0.57784  -0.48797  -0.37070
 Alpha  occ. eigenvalues --   -0.34748
 Alpha virt. eigenvalues --    0.14677   0.30865   0.44019   0.87396
  Beta  occ. eigenvalues --   -0.84492  -0.66461  -0.49260  -0.40733
  Beta virt. eigenvalues --    0.02799   0.04811   0.22998   0.40353   0.59336
  Beta virt. eigenvalues --    0.93883

 Mulliken charges and spin densities:
               1          2
     1  H    0.024108   0.326217
     2  H    0.026444   0.259552
     3  H   -0.021849   0.348809
     4  H   -0.024997   0.369472
     5  H   -0.003706  -0.304049
     6  H   -0.003706  -0.304049
     7  H   -0.024997   0.369472
     8  H   -0.021849   0.348809
     9  H    0.026444   0.259552
    10  H    0.024108   0.326217
 Sum of Mulliken charges =   0.00000   2.00000

 Dipole moment (field-independent basis, Debye):
    X=              0.0000    Y=             -0.0000    Z=              0.0000  Tot=              0.0000
 Quadrupole moment (field-independent basis, Debye-Ang):
   XX=            -13.3353   YY=            -15.3211   ZZ=            -12.8526
   XY=              0.1827   XZ=              0.0000   YZ=             -0.0000

 Normal termination of Gaussian 09 at Thu Feb 23 12:23:44 2017.
