 Gaussian 09, Revision E.01,
 Gaussian 09:  ES64L-G09RevE.01 30-Nov-2015

 ----------------------------------------------------------------------
 #uhf/gen scf(tight,novaracc,noincfock,fulldiag, ) stable(crhf) guess=r
 ead geom=nocrowd test
 ----------------------------------------------------------------------

 hf stability analysis of h10 triangular lattice, y= 0.2980984873290020
 2 alpha= 8.7500000000000000
 ----------------------------------------------------------------------
 Symbolic Z-matrix:
 Charge =  0 Multiplicity = 3

                         Standard orientation:
 ---------------------------------------------------------------------
 Center     Atomic      Atomic             Coordinates (Angstroms)
 Number     Number       Type             X           Y           Z
 ---------------------------------------------------------------------
      1          1           0        1.178516   -2.757984   -0.000000
      2          1           0        1.178516   -4.717568    0.000000
      3          1           0        0.589258   -0.889096   -0.000000
      4          1           0        0.589258   -2.848680    0.000000
      5          1           0        0.000000    0.979792   -0.000000
      6          1           0       -0.000000   -0.979792   -0.000000
      7          1           0       -0.589258    2.848680    0.000000
      8          1           0       -0.589258    0.889096    0.000000
      9          1           0       -1.178516    4.717568    0.000000
     10          1           0       -1.178516    2.757984    0.000000
 ---------------------------------------------------------------------

 SCF Done:  E(UHF) =  -5.12615844290     A.U. after    7 cycles
 E2 =    -0.3446284740D-01 EUMP2 =    -0.51606212902977D+01

 The electronic state is 3-BU.
 Alpha  occ. eigenvalues --   -0.73389  -0.70851  -0.66574  -0.61492  -0.48334
 Alpha  occ. eigenvalues --   -0.48181
 Alpha virt. eigenvalues --    0.39891   0.47192   0.57952   0.68333
  Beta  occ. eigenvalues --   -0.73070  -0.69939  -0.65346  -0.60722
  Beta virt. eigenvalues --    0.14574   0.14609   0.39989   0.47427   0.58190
  Beta virt. eigenvalues --    0.68437

 Mulliken charges and spin densities:
               1          2
     1  H   -0.002107  -0.001961
     2  H    0.004447   1.004416
     3  H   -0.000278  -0.000217
     4  H   -0.002572  -0.002705
     5  H    0.000509   0.000466
     6  H    0.000509   0.000466
     7  H   -0.002572  -0.002705
     8  H   -0.000278  -0.000217
     9  H    0.004447   1.004416
    10  H   -0.002107  -0.001961
 Sum of Mulliken charges =  -0.00000   2.00000

 Dipole moment (field-independent basis, Debye):
    X=             -0.0000    Y=             -0.0000    Z=              0.0000  Tot=              0.0000
 Quadrupole moment (field-independent basis, Debye-Ang):
   XX=            -12.2392   YY=            -16.0937   ZZ=            -13.2082
   XY=              0.9701   XZ=             -0.0000   YZ=             -0.0000

 Normal termination of Gaussian 09 at Thu Feb 23 12:17:21 2017.
