 Gaussian 09, Revision E.01,
 Gaussian 09:  ES64L-G09RevE.01 30-Nov-2015

 ----------------------------------------------------------------------
 #uhf/gen scf(tight,novaracc,noincfock,fulldiag, ) stable(crhf) guess=r
 ead geom=nocrowd test
 ----------------------------------------------------------------------

 hf stability analysis of h10 triangular lattice, y= 1.5973482699307082
  alpha= 77.250000000000000
 ----------------------------------------------------------------------
 Symbolic Z-matrix:
 Charge =  0 Multiplicity = 3

                         Standard orientation:
 ---------------------------------------------------------------------
 Center     Atomic      Atomic             Coordinates (Angstroms)
 Number     Number       Type             X           Y           Z
 ---------------------------------------------------------------------
      1          1           0        1.410123    3.775249    0.000000
      2          1           0        1.410123    2.137518    0.000000
      3          1           0        0.705061    2.297057    0.000000
      4          1           0        0.705061    0.659326    0.000000
      5          1           0       -0.000000    0.818865   -0.000000
      6          1           0       -0.000000   -0.818865    0.000000
      7          1           0       -0.705061   -0.659326    0.000000
      8          1           0       -0.705061   -2.297057    0.000000
      9          1           0       -1.410123   -2.137518    0.000000
     10          1           0       -1.410123   -3.775249    0.000000
 ---------------------------------------------------------------------

 SCF Done:  E(UHF) =  -5.18374601919     A.U. after    9 cycles
 E2 =    -0.4550197980D-01 EUMP2 =    -0.52292479989818D+01

 The electronic state is 3-BU.
 Alpha  occ. eigenvalues --   -0.74916  -0.70759  -0.63397  -0.53785  -0.43858
 Alpha  occ. eigenvalues --   -0.41425
 Alpha virt. eigenvalues --    0.25880   0.35440   0.50328   0.65446
  Beta  occ. eigenvalues --   -0.74108  -0.68484  -0.59557  -0.49211
  Beta virt. eigenvalues --    0.17493   0.17823   0.26257   0.36136   0.51068
  Beta virt. eigenvalues --    0.65846

 Mulliken charges and spin densities:
               1          2
     1  H   -0.009303   0.990225
     2  H   -0.004621   0.010547
     3  H    0.010516  -0.004183
     4  H    0.000836  -0.004829
     5  H    0.002572   0.008239
     6  H    0.002572   0.008239
     7  H    0.000836  -0.004829
     8  H    0.010516  -0.004183
     9  H   -0.004621   0.010547
    10  H   -0.009303   0.990225
 Sum of Mulliken charges =   0.00000   2.00000

 Dipole moment (field-independent basis, Debye):
    X=             -0.0000    Y=              0.0000    Z=             -0.0000  Tot=              0.0000
 Quadrupole moment (field-independent basis, Debye-Ang):
   XX=            -12.3076   YY=            -18.6437   ZZ=            -12.8718
   XY=             -2.7689   XZ=              0.0000   YZ=              0.0000

 Normal termination of Gaussian 09 at Thu Feb 23 12:28:42 2017.
