 Gaussian 09, Revision E.01,
 Gaussian 09:  ES64L-G09RevE.01 30-Nov-2015

 ----------------------------------------------------------------------
 #uhf/gen scf(tight,novaracc,noincfock,fulldiag, ) stable(crhf) guess=r
 ead geom=nocrowd test
 ----------------------------------------------------------------------

 hf stability analysis of h10 triangular lattice, y= 0.5918992783615676
 4 alpha= 31.250000000000000
 ----------------------------------------------------------------------
 Symbolic Z-matrix:
 Charge =  0 Multiplicity = 3

                         Standard orientation:
 ---------------------------------------------------------------------
 Center     Atomic      Atomic             Coordinates (Angstroms)
 Number     Number       Type             X           Y           Z
 ---------------------------------------------------------------------
      1          1           0        2.024087   -0.483193    0.000000
      2          1           0        2.024087   -1.624153    0.000000
      3          1           0        1.012043    0.043643    0.000000
      4          1           0        1.012043   -1.097316    0.000000
      5          1           0        0.000000    0.570480    0.000000
      6          1           0       -0.000000   -0.570480    0.000000
      7          1           0       -1.012043    1.097316    0.000000
      8          1           0       -1.012043   -0.043643    0.000000
      9          1           0       -2.024087    1.624153    0.000000
     10          1           0       -2.024087    0.483193    0.000000
 ---------------------------------------------------------------------

 SCF Done:  E(UHF) =  -4.88221427152     A.U. after   15 cycles
 E2 =    -0.7605843389D-01 EUMP2 =    -0.49582727054100D+01

 The electronic state is 3-BU.
 Alpha  occ. eigenvalues --   -0.88178  -0.79657  -0.59701  -0.43484  -0.36748
 Alpha  occ. eigenvalues --   -0.32116
 Alpha virt. eigenvalues --    0.16613   0.18917   0.50310   0.58677
  Beta  occ. eigenvalues --   -0.82686  -0.67725  -0.48674  -0.34834
  Beta virt. eigenvalues --    0.00390   0.05357   0.28399   0.30768   0.59651
  Beta virt. eigenvalues --    0.65283

 Mulliken charges and spin densities:
               1          2
     1  H    0.024659   0.309367
     2  H    0.014995   0.473546
     3  H   -0.029312   0.135046
     4  H    0.028930   0.101069
     5  H   -0.039272  -0.019029
     6  H   -0.039272  -0.019029
     7  H    0.028930   0.101069
     8  H   -0.029312   0.135046
     9  H    0.014995   0.473546
    10  H    0.024659   0.309367
 Sum of Mulliken charges =  -0.00000   2.00000

 Dipole moment (field-independent basis, Debye):
    X=             -0.0000    Y=              0.0000    Z=              0.0000  Tot=              0.0000
 Quadrupole moment (field-independent basis, Debye-Ang):
   XX=            -12.9990   YY=            -14.9598   ZZ=            -12.9573
   XY=             -1.6020   XZ=             -0.0000   YZ=             -0.0000

 Normal termination of Gaussian 09 at Thu Feb 23 12:21:04 2017.
