 Gaussian 09, Revision E.01,
 Gaussian 09:  ES64L-G09RevE.01 30-Nov-2015

 ----------------------------------------------------------------------
 #uhf/gen scf(tight,novaracc,noincfock,fulldiag, ) stable(crhf) guess=r
 ead geom=nocrowd test
 ----------------------------------------------------------------------

 hf stability analysis of h10 triangular lattice, y= 0.2564775935039079
 2 alpha= 6.5000000000000000
 ----------------------------------------------------------------------
 Symbolic Z-matrix:
 Charge =  0 Multiplicity = 3

                         Standard orientation:
 ---------------------------------------------------------------------
 Center     Atomic      Atomic             Coordinates (Angstroms)
 Number     Number       Type             X           Y           Z
 ---------------------------------------------------------------------
      1          1           0        1.019316   -3.282322   -0.000000
      2          1           0        1.019316   -5.547960   -0.000000
      3          1           0        0.509658   -1.074751   -0.000000
      4          1           0        0.509658   -3.340390   -0.000000
      5          1           0        0.000000    1.132819    0.000000
      6          1           0       -0.000000   -1.132819    0.000000
      7          1           0       -0.509658    3.340390   -0.000000
      8          1           0       -0.509658    1.074751   -0.000000
      9          1           0       -1.019316    5.547960   -0.000000
     10          1           0       -1.019316    3.282322   -0.000000
 ---------------------------------------------------------------------

 SCF Done:  E(UHF) =  -4.88069025870     A.U. after    6 cycles
 E2 =    -0.2896204669D-01 EUMP2 =    -0.49096523053886D+01

 The electronic state is 3-BU.
 Alpha  occ. eigenvalues --   -0.73487  -0.72054  -0.69855  -0.67609  -0.49548
 Alpha  occ. eigenvalues --   -0.49539
 Alpha virt. eigenvalues --    0.50851   0.56261   0.63844   0.70812
  Beta  occ. eigenvalues --   -0.73354  -0.71687  -0.69433  -0.67414
  Beta virt. eigenvalues --    0.13433   0.13438   0.50888   0.56355   0.63939
  Beta virt. eigenvalues --    0.70851

 Mulliken charges and spin densities:
               1          2
     1  H   -0.001155  -0.001795
     2  H    0.003641   1.003638
     3  H   -0.000120  -0.000021
     4  H   -0.002498  -0.001858
     5  H    0.000131   0.000035
     6  H    0.000131   0.000035
     7  H   -0.002498  -0.001858
     8  H   -0.000120  -0.000021
     9  H    0.003641   1.003638
    10  H   -0.001155  -0.001795
 Sum of Mulliken charges =  -0.00000   2.00000

 Dipole moment (field-independent basis, Debye):
    X=              0.0000    Y=             -0.0000    Z=             -0.0000  Tot=              0.0000
 Quadrupole moment (field-independent basis, Debye-Ang):
   XX=            -12.5530   YY=            -14.9553   ZZ=            -13.4107
   XY=              0.4104   XZ=             -0.0000   YZ=             -0.0000

 Normal termination of Gaussian 09 at Thu Feb 23 12:17:00 2017.
