 Gaussian 09, Revision E.01,
 Gaussian 09:  ES64L-G09RevE.01 30-Nov-2015

 ----------------------------------------------------------------------
 #uhf/gen scf(tight,novaracc,noincfock,fulldiag, ) stable(crhf) guess=r
 ead geom=nocrowd test
 ----------------------------------------------------------------------

 hf stability analysis of h10 triangular lattice, y= 0.8635150515934925
 1 alpha= 52.250000000000000
 ----------------------------------------------------------------------
 Symbolic Z-matrix:
 Charge =  0 Multiplicity = 3

                         Standard orientation:
 ---------------------------------------------------------------------
 Center     Atomic      Atomic             Coordinates (Angstroms)
 Number     Number       Type             X           Y           Z
 ---------------------------------------------------------------------
      1          1           0        2.114635    1.092934    0.000000
      2          1           0        2.114635    0.000830    0.000000
      3          1           0        1.057318    0.819493    0.000000
      4          1           0        1.057318   -0.272611    0.000000
      5          1           0        0.000000    0.546052   -0.000000
      6          1           0       -0.000000   -0.546052   -0.000000
      7          1           0       -1.057318    0.272611    0.000000
      8          1           0       -1.057318   -0.819493   -0.000000
      9          1           0       -2.114635   -0.000830    0.000000
     10          1           0       -2.114635   -1.092934   -0.000000
 ---------------------------------------------------------------------

 SCF Done:  E(UHF) =  -4.91690102037     A.U. after   12 cycles
 E2 =    -0.7344231286D-01 EUMP2 =    -0.49903433332325D+01

 The electronic state is 3-BU.
 Alpha  occ. eigenvalues --   -0.89855  -0.81154  -0.58287  -0.47555  -0.35621
 Alpha  occ. eigenvalues --   -0.35342
 Alpha virt. eigenvalues --    0.15437   0.26772   0.46315   0.78637
  Beta  occ. eigenvalues --   -0.83938  -0.66777  -0.49118  -0.39131
  Beta virt. eigenvalues --    0.03336   0.03404   0.24473   0.37883   0.59321
  Beta virt. eigenvalues --    0.85241

 Mulliken charges and spin densities:
               1          2
     1  H    0.024171   0.397619
     2  H    0.023624   0.221500
     3  H   -0.007158   0.284212
     4  H   -0.016331   0.344513
     5  H   -0.024306  -0.247844
     6  H   -0.024306  -0.247844
     7  H   -0.016331   0.344513
     8  H   -0.007158   0.284212
     9  H    0.023624   0.221500
    10  H    0.024171   0.397619
 Sum of Mulliken charges =  -0.00000   2.00000

 Dipole moment (field-independent basis, Debye):
    X=              0.0000    Y=             -0.0000    Z=              0.0000  Tot=              0.0000
 Quadrupole moment (field-independent basis, Debye-Ang):
   XX=            -13.1149   YY=            -15.2637   ZZ=            -12.8834
   XY=              0.7582   XZ=              0.0000   YZ=             -0.0000

 Normal termination of Gaussian 09 at Thu Feb 23 12:24:33 2017.
