 Gaussian 09, Revision E.01,
 Gaussian 09:  ES64L-G09RevE.01 30-Nov-2015

 ----------------------------------------------------------------------
 #uhf/gen scf(tight,novaracc,noincfock,fulldiag, ) stable(crhf) guess=r
 ead geom=nocrowd test
 ----------------------------------------------------------------------

 hf stability analysis of h10 triangular lattice, y= 0.5099777844418526
 0 alpha= 24.250000000000000
 ----------------------------------------------------------------------
 Symbolic Z-matrix:
 Charge =  0 Multiplicity = 3

                         Standard orientation:
 ---------------------------------------------------------------------
 Center     Atomic      Atomic             Coordinates (Angstroms)
 Number     Number       Type             X           Y           Z
 ---------------------------------------------------------------------
      1          1           0        1.859913   -1.024677    0.000000
      2          1           0        1.859913   -2.266348    0.000000
      3          1           0        0.929957   -0.201921    0.000000
      4          1           0        0.929957   -1.443592    0.000000
      5          1           0       -0.000000    0.620836    0.000000
      6          1           0       -0.000000   -0.620836   -0.000000
      7          1           0       -0.929957    1.443592    0.000000
      8          1           0       -0.929957    0.201921    0.000000
      9          1           0       -1.859913    2.266348    0.000000
     10          1           0       -1.859913    1.024677    0.000000
 ---------------------------------------------------------------------

 SCF Done:  E(UHF) =  -4.85473583267     A.U. after   13 cycles
 E2 =    -0.5325271442D-01 EUMP2 =    -0.49079885470925D+01

 The electronic state is 3-BU.
 Alpha  occ. eigenvalues --   -0.86436  -0.76621  -0.62150  -0.41671  -0.36369
 Alpha  occ. eigenvalues --   -0.29387
 Alpha virt. eigenvalues --    0.15479   0.18730   0.36118   0.54677
  Beta  occ. eigenvalues --   -0.81349  -0.71378  -0.52006  -0.33801
  Beta virt. eigenvalues --    0.04597   0.13481   0.21852   0.31096   0.44665
  Beta virt. eigenvalues --    0.59166

 Mulliken charges and spin densities:
               1          2
     1  H    0.038235   0.485055
     2  H   -0.100376   0.575732
     3  H   -0.072055  -0.380014
     4  H    0.123863  -0.227687
     5  H    0.010333   0.546913
     6  H    0.010333   0.546913
     7  H    0.123863  -0.227687
     8  H   -0.072055  -0.380014
     9  H   -0.100376   0.575732
    10  H    0.038235   0.485055
 Sum of Mulliken charges =   0.00000   2.00000

 Dipole moment (field-independent basis, Debye):
    X=              0.0000    Y=              0.0000    Z=             -0.0000  Tot=              0.0000
 Quadrupole moment (field-independent basis, Debye-Ang):
   XX=            -15.8122   YY=            -17.9900   ZZ=            -12.8727
   XY=              2.6479   XZ=              0.0000   YZ=             -0.0000

 Normal termination of Gaussian 09 at Thu Feb 23 12:19:53 2017.
