 Gaussian 09, Revision E.01,
 Gaussian 09:  ES64L-G09RevE.01 30-Nov-2015

 ----------------------------------------------------------------------
 #uhf/gen scf(tight,novaracc,noincfock,fulldiag, ) stable(crhf) guess=r
 ead geom=nocrowd test
 ----------------------------------------------------------------------

 hf stability analysis of h10 triangular lattice, y= 1.6480958607190197
  alpha= 78.000000000000000
 ----------------------------------------------------------------------
 Symbolic Z-matrix:
 Charge =  0 Multiplicity = 3

                         Standard orientation:
 ---------------------------------------------------------------------
 Center     Atomic      Atomic             Coordinates (Angstroms)
 Number     Number       Type             X           Y           Z
 ---------------------------------------------------------------------
      1          1           0        1.370634    3.920951   -0.000000
      2          1           0        1.370634    2.236036   -0.000000
      3          1           0        0.685317    2.381704   -0.000000
      4          1           0        0.685317    0.696789   -0.000000
      5          1           0        0.000000    0.842458   -0.000000
      6          1           0       -0.000000   -0.842458   -0.000000
      7          1           0       -0.685317   -0.696789   -0.000000
      8          1           0       -0.685317   -2.381704   -0.000000
      9          1           0       -1.370634   -2.236036   -0.000000
     10          1           0       -1.370634   -3.920951   -0.000000
 ---------------------------------------------------------------------

 SCF Done:  E(UHF) =  -5.19535809068     A.U. after    9 cycles
 E2 =    -0.4333905628D-01 EUMP2 =    -0.52386971469573D+01

 The electronic state is 3-BU.
 Alpha  occ. eigenvalues --   -0.74516  -0.70644  -0.63785  -0.54826  -0.44883
 Alpha  occ. eigenvalues --   -0.43150
 Alpha virt. eigenvalues --    0.28167   0.37371   0.51618   0.65996
  Beta  occ. eigenvalues --   -0.73811  -0.68638  -0.60506  -0.51275
  Beta virt. eigenvalues --    0.16879   0.17119   0.28458   0.37957   0.52229
  Beta virt. eigenvalues --    0.66313

 Mulliken charges and spin densities:
               1          2
     1  H   -0.004568   0.995133
     2  H   -0.003959   0.005784
     3  H    0.006230  -0.003241
     4  H    0.000265  -0.002825
     5  H    0.002031   0.005149
     6  H    0.002031   0.005149
     7  H    0.000265  -0.002825
     8  H    0.006230  -0.003241
     9  H   -0.003959   0.005784
    10  H   -0.004568   0.995133
 Sum of Mulliken charges =  -0.00000   2.00000

 Dipole moment (field-independent basis, Debye):
    X=              0.0000    Y=             -0.0000    Z=              0.0000  Tot=              0.0000
 Quadrupole moment (field-independent basis, Debye-Ang):
   XX=            -12.2082   YY=            -18.1205   ZZ=            -12.9287
   XY=             -2.3441   XZ=             -0.0000   YZ=             -0.0000

 Normal termination of Gaussian 09 at Thu Feb 23 12:28:49 2017.
