 Gaussian 09, Revision E.01,
 Gaussian 09:  ES64L-G09RevE.01 30-Nov-2015

 ----------------------------------------------------------------------
 #uhf/gen scf(tight,novaracc,noincfock,fulldiag, ) stable(crhf) guess=r
 ead geom=nocrowd test
 ----------------------------------------------------------------------

 hf stability analysis of h10 triangular lattice, y= 0.7937677784109760
 1 alpha= 47.500000000000000
 ----------------------------------------------------------------------
 Symbolic Z-matrix:
 Charge =  0 Multiplicity = 3

                         Standard orientation:
 ---------------------------------------------------------------------
 Center     Atomic      Atomic             Coordinates (Angstroms)
 Number     Number       Type             X           Y           Z
 ---------------------------------------------------------------------
      1          1           0        2.145047    0.725977    0.000000
      2          1           0        2.145047   -0.350643    0.000000
      3          1           0        1.072523    0.632144    0.000000
      4          1           0        1.072523   -0.444477    0.000000
      5          1           0       -0.000000    0.538310    0.000000
      6          1           0       -0.000000   -0.538310    0.000000
      7          1           0       -1.072523    0.444477    0.000000
      8          1           0       -1.072523   -0.632144    0.000000
      9          1           0       -2.145047    0.350643    0.000000
     10          1           0       -2.145047   -0.725977    0.000000
 ---------------------------------------------------------------------

 SCF Done:  E(UHF) =  -4.92421340062     A.U. after   12 cycles
 E2 =    -0.7217304045D-01 EUMP2 =    -0.49963864410721D+01

 The electronic state is 3-BU.
 Alpha  occ. eigenvalues --   -0.90429  -0.81599  -0.57798  -0.48767  -0.37032
 Alpha  occ. eigenvalues --   -0.34765
 Alpha virt. eigenvalues --    0.14698   0.30743   0.44093   0.87160
  Beta  occ. eigenvalues --   -0.84478  -0.66470  -0.49256  -0.40693
  Beta virt. eigenvalues --    0.02810   0.04774   0.23036   0.40293   0.59332
  Beta virt. eigenvalues --    0.93652

 Mulliken charges and spin densities:
               1          2
     1  H    0.023977   0.330100
     2  H    0.026488   0.256430
     3  H   -0.021339   0.346579
     4  H   -0.024820   0.369481
     5  H   -0.004306  -0.302589
     6  H   -0.004306  -0.302589
     7  H   -0.024820   0.369481
     8  H   -0.021339   0.346579
     9  H    0.026488   0.256430
    10  H    0.023977   0.330100
 Sum of Mulliken charges =  -0.00000   2.00000

 Dipole moment (field-independent basis, Debye):
    X=              0.0000    Y=              0.0000    Z=              0.0000  Tot=              0.0000
 Quadrupole moment (field-independent basis, Debye-Ang):
   XX=            -13.3290   YY=            -15.3213   ZZ=            -12.8534
   XY=              0.2047   XZ=             -0.0000   YZ=              0.0000

 Normal termination of Gaussian 09 at Thu Feb 23 12:23:47 2017.
