 Gaussian 09, Revision E.01,
 Gaussian 09:  ES64L-G09RevE.01 30-Nov-2015

 ----------------------------------------------------------------------
 #uhf/gen scf(tight,novaracc,noincfock,fulldiag, ) stable(crhf) guess=r
 ead geom=nocrowd test
 ----------------------------------------------------------------------

 hf stability analysis of h10 triangular lattice, y= 0.4552910430659851
 7 alpha= 19.750000000000000
 ----------------------------------------------------------------------
 Symbolic Z-matrix:
 Charge =  0 Multiplicity = 3

                         Standard orientation:
 ---------------------------------------------------------------------
 Center     Atomic      Atomic             Coordinates (Angstroms)
 Number     Number       Type             X           Y           Z
 ---------------------------------------------------------------------
      1          1           0        1.714036   -1.405618   -0.000000
      2          1           0        1.714036   -2.752965   -0.000000
      3          1           0        0.857018   -0.365973   -0.000000
      4          1           0        0.857018   -1.713319   -0.000000
      5          1           0        0.000000    0.673673    0.000000
      6          1           0       -0.000000   -0.673673    0.000000
      7          1           0       -0.857018    1.713319   -0.000000
      8          1           0       -0.857018    0.365973    0.000000
      9          1           0       -1.714036    2.752965   -0.000000
     10          1           0       -1.714036    1.405618   -0.000000
 ---------------------------------------------------------------------

 SCF Done:  E(UHF) =  -4.91038653928     A.U. after   12 cycles
 E2 =    -0.4006359611D-01 EUMP2 =    -0.49504501353933D+01

 The electronic state is 3-BU.
 Alpha  occ. eigenvalues --   -0.81815  -0.73851  -0.62671  -0.46824  -0.33820
 Alpha  occ. eigenvalues --   -0.30382
 Alpha virt. eigenvalues --    0.15530   0.20909   0.36720   0.59113
  Beta  occ. eigenvalues --   -0.79421  -0.70957  -0.54218  -0.37610
  Beta virt. eigenvalues --    0.11118   0.20113   0.22068   0.26047   0.44391
  Beta virt. eigenvalues --    0.60725

 Mulliken charges and spin densities:
               1          2
     1  H   -0.025803   0.414242
     2  H   -0.076647   0.833932
     3  H    0.035877  -0.515089
     4  H    0.104979  -0.302046
     5  H   -0.038406   0.568961
     6  H   -0.038406   0.568961
     7  H    0.104979  -0.302046
     8  H    0.035877  -0.515089
     9  H   -0.076647   0.833932
    10  H   -0.025803   0.414242
 Sum of Mulliken charges =  -0.00000   2.00000

 Dipole moment (field-independent basis, Debye):
    X=              0.0000    Y=             -0.0000    Z=              0.0000  Tot=              0.0000
 Quadrupole moment (field-independent basis, Debye-Ang):
   XX=            -15.3636   YY=            -19.8835   ZZ=            -12.7112
   XY=              4.6654   XZ=              0.0000   YZ=             -0.0000

 Normal termination of Gaussian 09 at Thu Feb 23 12:19:07 2017.
