 Gaussian 09, Revision E.01,
 Gaussian 09:  ES64L-G09RevE.01 30-Nov-2015

 ----------------------------------------------------------------------
 #uhf/gen scf(tight,novaracc,noincfock,fulldiag, ) stable(crhf) guess=r
 ead geom=nocrowd test
 ----------------------------------------------------------------------

 hf stability analysis of h10 triangular lattice, y= 0.5247684832164858
 4 alpha= 25.500000000000000
 ----------------------------------------------------------------------
 Symbolic Z-matrix:
 Charge =  0 Multiplicity = 3

                         Standard orientation:
 ---------------------------------------------------------------------
 Center     Atomic      Atomic             Coordinates (Angstroms)
 Number     Number       Type             X           Y           Z
 ---------------------------------------------------------------------
      1          1           0        1.894593   -0.924740    0.000000
      2          1           0        1.894593   -2.143683    0.000000
      3          1           0        0.947297   -0.157634    0.000000
      4          1           0        0.947297   -1.376577    0.000000
      5          1           0        0.000000    0.609471   -0.000000
      6          1           0       -0.000000   -0.609471   -0.000000
      7          1           0       -0.947297    1.376577    0.000000
      8          1           0       -0.947297    0.157634   -0.000000
      9          1           0       -1.894593    2.143683    0.000000
     10          1           0       -1.894593    0.924740    0.000000
 ---------------------------------------------------------------------

 SCF Done:  E(UHF) =  -4.85338815659     A.U. after   14 cycles
 E2 =    -0.5950950827D-01 EUMP2 =    -0.49128976648606D+01

 The electronic state is 3-BU.
 Alpha  occ. eigenvalues --   -0.87386  -0.77314  -0.61753  -0.40595  -0.37731
 Alpha  occ. eigenvalues --   -0.29092
 Alpha virt. eigenvalues --    0.15201   0.18438   0.38526   0.53529
  Beta  occ. eigenvalues --   -0.81536  -0.70938  -0.51440  -0.33226
  Beta virt. eigenvalues --    0.03111   0.11940   0.22414   0.31628   0.46799
  Beta virt. eigenvalues --    0.59035

 Mulliken charges and spin densities:
               1          2
     1  H    0.052499   0.481789
     2  H   -0.098566   0.484929
     3  H   -0.100827  -0.311763
     4  H    0.120063  -0.158992
     5  H    0.026831   0.504038
     6  H    0.026831   0.504038
     7  H    0.120063  -0.158992
     8  H   -0.100827  -0.311763
     9  H   -0.098566   0.484929
    10  H    0.052499   0.481789
 Sum of Mulliken charges =  -0.00000   2.00000

 Dipole moment (field-independent basis, Debye):
    X=             -0.0000    Y=              0.0000    Z=             -0.0000  Tot=              0.0000
 Quadrupole moment (field-independent basis, Debye-Ang):
   XX=            -15.7110   YY=            -17.4799   ZZ=            -12.9034
   XY=              2.0910   XZ=             -0.0000   YZ=              0.0000

 Normal termination of Gaussian 09 at Thu Feb 23 12:20:05 2017.
