 Gaussian 09, Revision E.01,
 Gaussian 09:  ES64L-G09RevE.01 30-Nov-2015

 ----------------------------------------------------------------------
 #uhf/gen scf(tight,novaracc,noincfock,fulldiag, ) stable(crhf) guess=r
 ead geom=nocrowd test
 ----------------------------------------------------------------------

 hf stability analysis of h10 triangular lattice, y= 0.4490208748124050
 5 alpha= 19.250000000000000
 ----------------------------------------------------------------------
 Symbolic Z-matrix:
 Charge =  0 Multiplicity = 3

                         Standard orientation:
 ---------------------------------------------------------------------
 Center     Atomic      Atomic             Coordinates (Angstroms)
 Number     Number       Type             X           Y           Z
 ---------------------------------------------------------------------
      1          1           0        1.695663   -1.450767    0.000000
      2          1           0        1.695663   -2.812713    0.000000
      3          1           0        0.847831   -0.384897    0.000000
      4          1           0        0.847831   -1.746843    0.000000
      5          1           0        0.000000    0.680973   -0.000000
      6          1           0       -0.000000   -0.680973   -0.000000
      7          1           0       -0.847831    1.746843    0.000000
      8          1           0       -0.847831    0.384897    0.000000
      9          1           0       -1.695663    2.812713    0.000000
     10          1           0       -1.695663    1.450767    0.000000
 ---------------------------------------------------------------------

 SCF Done:  E(UHF) =  -4.92443220321     A.U. after   12 cycles
 E2 =    -0.4114052105D-01 EUMP2 =    -0.49655727242617D+01

 The electronic state is 3-BU.
 Alpha  occ. eigenvalues --   -0.81181  -0.73521  -0.62661  -0.47373  -0.34494
 Alpha  occ. eigenvalues --   -0.30056
 Alpha virt. eigenvalues --    0.15125   0.21891   0.37619   0.59548
  Beta  occ. eigenvalues --   -0.79038  -0.70669  -0.54396  -0.37971
  Beta virt. eigenvalues --    0.11857   0.20644   0.22550   0.25502   0.44681
  Beta virt. eigenvalues --    0.61012

 Mulliken charges and spin densities:
               1          2
     1  H   -0.029863   0.390301
     2  H   -0.074011   0.855331
     3  H    0.041689  -0.499658
     4  H    0.100212  -0.289041
     5  H   -0.038026   0.543066
     6  H   -0.038026   0.543066
     7  H    0.100212  -0.289041
     8  H    0.041689  -0.499658
     9  H   -0.074011   0.855331
    10  H   -0.029863   0.390301
 Sum of Mulliken charges =  -0.00000   2.00000

 Dipole moment (field-independent basis, Debye):
    X=             -0.0000    Y=              0.0000    Z=             -0.0000  Tot=              0.0000
 Quadrupole moment (field-independent basis, Debye-Ang):
   XX=            -15.2132   YY=            -20.2163   ZZ=            -12.6890
   XY=              4.9580   XZ=              0.0000   YZ=             -0.0000

 Normal termination of Gaussian 09 at Thu Feb 23 12:19:02 2017.
