 Gaussian 09, Revision E.01,
 Gaussian 09:  ES64L-G09RevE.01 30-Nov-2015

 ----------------------------------------------------------------------
 #uhf/gen scf(tight,novaracc,noincfock,fulldiag, ) stable(crhf) guess=r
 ead geom=nocrowd test
 ----------------------------------------------------------------------

 hf stability analysis of h10 triangular lattice, y= 0.3864103211392155
 8 alpha= 14.500000000000000
 ----------------------------------------------------------------------
 Symbolic Z-matrix:
 Charge =  0 Multiplicity = 3

                         Standard orientation:
 ---------------------------------------------------------------------
 Center     Atomic      Atomic             Coordinates (Angstroms)
 Number     Number       Type             X           Y           Z
 ---------------------------------------------------------------------
      1          1           0        1.496409   -1.927945    0.000000
      2          1           0        1.496409   -3.471241    0.000000
      3          1           0        0.748204   -0.578149    0.000000
      4          1           0        0.748204   -2.121444    0.000000
      5          1           0        0.000000    0.771648    0.000000
      6          1           0       -0.000000   -0.771648   -0.000000
      7          1           0       -0.748204    2.121444   -0.000000
      8          1           0       -0.748204    0.578149   -0.000000
      9          1           0       -1.496409    3.471241   -0.000000
     10          1           0       -1.496409    1.927945   -0.000000
 ---------------------------------------------------------------------

 SCF Done:  E(UHF) =  -5.13137247545     A.U. after   10 cycles
 E2 =    -0.5060372218D-01 EUMP2 =    -0.51819761976327D+01

 The electronic state is 3-BU.
 Alpha  occ. eigenvalues --   -0.76026  -0.71186  -0.62742  -0.51831  -0.41262
 Alpha  occ. eigenvalues --   -0.36933
 Alpha virt. eigenvalues --    0.20931   0.31271   0.47422   0.63993
  Beta  occ. eigenvalues --   -0.74970  -0.68315  -0.57576  -0.44657
  Beta virt. eigenvalues --    0.18971   0.19253   0.21965   0.32256   0.48570
  Beta virt. eigenvalues --    0.64667

 Mulliken charges and spin densities:
               1          2
     1  H   -0.007223   0.031776
     2  H   -0.025248   0.973385
     3  H    0.003884  -0.017369
     4  H    0.024893  -0.012556
     5  H    0.003693   0.024763
     6  H    0.003693   0.024763
     7  H    0.024893  -0.012556
     8  H    0.003884  -0.017369
     9  H   -0.025248   0.973385
    10  H   -0.007223   0.031776
 Sum of Mulliken charges =   0.00000   2.00000

 Dipole moment (field-independent basis, Debye):
    X=             -0.0000    Y=             -0.0000    Z=              0.0000  Tot=              0.0000
 Quadrupole moment (field-independent basis, Debye-Ang):
   XX=            -12.7480   YY=            -19.9100   ZZ=            -12.7533
   XY=              3.9236   XZ=              0.0000   YZ=              0.0000

 Normal termination of Gaussian 09 at Thu Feb 23 12:18:16 2017.
