 Gaussian 09, Revision E.01,
 Gaussian 09:  ES64L-G09RevE.01 30-Nov-2015

 ----------------------------------------------------------------------
 #uhf/gen scf(tight,novaracc,noincfock,fulldiag, ) stable(crhf) guess=r
 ead geom=nocrowd test
 ----------------------------------------------------------------------

 hf stability analysis of h10 triangular lattice, y= 0.8753112166669652
 1 alpha= 53.000000000000000
 ----------------------------------------------------------------------
 Symbolic Z-matrix:
 Charge =  0 Multiplicity = 3

                         Standard orientation:
 ---------------------------------------------------------------------
 Center     Atomic      Atomic             Coordinates (Angstroms)
 Number     Number       Type             X           Y           Z
 ---------------------------------------------------------------------
      1          1           0        2.107102    1.152206   -0.000000
      2          1           0        2.107102    0.056198   -0.000000
      3          1           0        1.053551    0.850105   -0.000000
      4          1           0        1.053551   -0.245903   -0.000000
      5          1           0        0.000000    0.548004    0.000000
      6          1           0       -0.000000   -0.548004    0.000000
      7          1           0       -1.053551    0.245903   -0.000000
      8          1           0       -1.053551   -0.850105   -0.000000
      9          1           0       -2.107102   -0.056198   -0.000000
     10          1           0       -2.107102   -1.152206   -0.000000
 ---------------------------------------------------------------------

 SCF Done:  E(UHF) =  -4.91469596766     A.U. after   12 cycles
 E2 =    -0.7375702606D-01 EUMP2 =    -0.49884529937276D+01

 The electronic state is 3-BU.
 Alpha  occ. eigenvalues --   -0.89709  -0.81042  -0.58396  -0.47246  -0.35466
 Alpha  occ. eigenvalues --   -0.35288
 Alpha virt. eigenvalues --    0.15593   0.25943   0.46739   0.76712
  Beta  occ. eigenvalues --   -0.83809  -0.66841  -0.49084  -0.38750
  Beta virt. eigenvalues --    0.03093   0.03486   0.24813   0.37281   0.59351
  Beta virt. eigenvalues --    0.83321

 Mulliken charges and spin densities:
               1          2
     1  H    0.024742   0.407073
     2  H    0.022522   0.221090
     3  H   -0.004335   0.270737
     4  H   -0.014538   0.335578
     5  H   -0.028391  -0.234477
     6  H   -0.028391  -0.234477
     7  H   -0.014538   0.335578
     8  H   -0.004335   0.270737
     9  H    0.022522   0.221090
    10  H    0.024742   0.407073
 Sum of Mulliken charges =  -0.00000   2.00000

 Dipole moment (field-independent basis, Debye):
    X=              0.0000    Y=              0.0000    Z=             -0.0000  Tot=              0.0000
 Quadrupole moment (field-independent basis, Debye-Ang):
   XX=            -13.0716   YY=            -15.2334   ZZ=            -12.8905
   XY=              0.8742   XZ=              0.0000   YZ=             -0.0000

 Normal termination of Gaussian 09 at Thu Feb 23 12:24:40 2017.
