 Gaussian 09, Revision E.01,
 Gaussian 09:  ES64L-G09RevE.01 30-Nov-2015

 ----------------------------------------------------------------------
 #uhf/gen scf(tight,novaracc,noincfock,fulldiag, ) stable(crhf) guess=r
 ead geom=nocrowd test
 ----------------------------------------------------------------------

 hf stability analysis of h10 triangular lattice, y= 0.9384058608233425
 4 alpha= 56.750000000000000
 ----------------------------------------------------------------------
 Symbolic Z-matrix:
 Charge =  0 Multiplicity = 3

                         Standard orientation:
 ---------------------------------------------------------------------
 Center     Atomic      Atomic             Coordinates (Angstroms)
 Number     Number       Type             X           Y           Z
 ---------------------------------------------------------------------
      1          1           0        2.058086    1.455937    0.000000
      2          1           0        2.058086    0.333826    0.000000
      3          1           0        1.029043    1.008496    0.000000
      4          1           0        1.029043   -0.113615   -0.000000
      5          1           0       -0.000000    0.561055    0.000000
      6          1           0       -0.000000   -0.561055    0.000000
      7          1           0       -1.029043    0.113615    0.000000
      8          1           0       -1.029043   -1.008496    0.000000
      9          1           0       -2.058086   -0.333826    0.000000
     10          1           0       -2.058086   -1.455937    0.000000
 ---------------------------------------------------------------------

 SCF Done:  E(UHF) =  -4.89698105206     A.U. after   14 cycles
 E2 =    -0.7568341697D-01 EUMP2 =    -0.49726644690302D+01

 The electronic state is 3-BU.
 Alpha  occ. eigenvalues --   -0.88751  -0.80272  -0.59078  -0.45147  -0.36173
 Alpha  occ. eigenvalues --   -0.33275
 Alpha virt. eigenvalues --    0.16365   0.21383   0.48975   0.65555
  Beta  occ. eigenvalues --   -0.83045  -0.67249  -0.48843  -0.36330
  Beta virt. eigenvalues --    0.01314   0.04555   0.26922   0.33411   0.59641
  Beta virt. eigenvalues --    0.72093

 Mulliken charges and spin densities:
               1          2
     1  H    0.026627   0.452788
     2  H    0.017075   0.249488
     3  H    0.013074   0.180817
     4  H   -0.010265   0.253139
     5  H   -0.046511  -0.136232
     6  H   -0.046511  -0.136232
     7  H   -0.010265   0.253139
     8  H    0.013074   0.180817
     9  H    0.017075   0.249488
    10  H    0.026627   0.452788
 Sum of Mulliken charges =  -0.00000   2.00000

 Dipole moment (field-independent basis, Debye):
    X=             -0.0000    Y=             -0.0000    Z=              0.0000  Tot=              0.0000
 Quadrupole moment (field-independent basis, Debye-Ang):
   XX=            -12.8999   YY=            -14.9683   ZZ=            -12.9337
   XY=              1.5152   XZ=             -0.0000   YZ=             -0.0000

 Normal termination of Gaussian 09 at Thu Feb 23 12:25:17 2017.
