 Gaussian 09, Revision E.01,
 Gaussian 09:  ES64L-G09RevE.01 30-Nov-2015

 ----------------------------------------------------------------------
 #uhf/gen scf(tight,novaracc,noincfock,fulldiag, ) stable(crhf) guess=r
 ead geom=nocrowd test
 ----------------------------------------------------------------------

 hf stability analysis of h10 triangular lattice, y= 1.3961024673370386
  alpha= 73.500000000000000
 ----------------------------------------------------------------------
 Symbolic Z-matrix:
 Charge =  0 Multiplicity = 3

                         Standard orientation:
 ---------------------------------------------------------------------
 Center     Atomic      Atomic             Coordinates (Angstroms)
 Number     Number       Type             X           Y           Z
 ---------------------------------------------------------------------
      1          1           0        1.586058    3.170347    0.000000
      2          1           0        1.586058    1.714283    0.000000
      3          1           0        0.793029    1.949189    0.000000
      4          1           0        0.793029    0.493126    0.000000
      5          1           0       -0.000000    0.728032    0.000000
      6          1           0       -0.000000   -0.728032    0.000000
      7          1           0       -0.793029   -0.493126    0.000000
      8          1           0       -0.793029   -1.949189    0.000000
      9          1           0       -1.586058   -1.714283    0.000000
     10          1           0       -1.586058   -3.170347    0.000000
 ---------------------------------------------------------------------

 SCF Done:  E(UHF) =  -5.04182010294     A.U. after   12 cycles
 E2 =    -0.5537335039D-01 EUMP2 =    -0.50971934533255D+01

 The electronic state is 3-BU.
 Alpha  occ. eigenvalues --   -0.77648  -0.71885  -0.62350  -0.49974  -0.38143
 Alpha  occ. eigenvalues --   -0.31693
 Alpha virt. eigenvalues --    0.15947   0.27067   0.43951   0.61957
  Beta  occ. eigenvalues --   -0.76297  -0.68564  -0.55689  -0.40122
  Beta virt. eigenvalues --    0.16098   0.20535   0.22698   0.28205   0.46192
  Beta virt. eigenvalues --    0.63077

 Mulliken charges and spin densities:
               1          2
     1  H   -0.051905   0.941830
     2  H   -0.016132   0.110376
     3  H    0.052587  -0.067029
     4  H    0.015952  -0.105942
     5  H   -0.000502   0.120765
     6  H   -0.000502   0.120765
     7  H    0.015952  -0.105942
     8  H    0.052587  -0.067029
     9  H   -0.016132   0.110376
    10  H   -0.051905   0.941830
 Sum of Mulliken charges =   0.00000   2.00000

 Dipole moment (field-independent basis, Debye):
    X=              0.0000    Y=              0.0000    Z=             -0.0000  Tot=              0.0000
 Quadrupole moment (field-independent basis, Debye-Ang):
   XX=            -13.7043   YY=            -21.2520   ZZ=            -12.6496
   XY=             -5.4268   XZ=              0.0000   YZ=             -0.0000

 Normal termination of Gaussian 09 at Thu Feb 23 12:28:05 2017.
