 Gaussian 09, Revision E.01,
 Gaussian 09:  ES64L-G09RevE.01 30-Nov-2015

 ----------------------------------------------------------------------
 #uhf/gen scf(tight,novaracc,noincfock,fulldiag, ) stable(crhf) guess=r
 ead geom=nocrowd test
 ----------------------------------------------------------------------

 hf stability analysis of h10 triangular lattice, y= 0.5423787099077283
 0 alpha= 27.000000000000000
 ----------------------------------------------------------------------
 Symbolic Z-matrix:
 Charge =  0 Multiplicity = 3

                         Standard orientation:
 ---------------------------------------------------------------------
 Center     Atomic      Atomic             Coordinates (Angstroms)
 Number     Number       Type             X           Y           Z
 ---------------------------------------------------------------------
      1          1           0        1.933052   -0.807098    0.000000
      2          1           0        1.933052   -2.001790    0.000000
      3          1           0        0.966526   -0.104876   -0.000000
      4          1           0        0.966526   -1.299568    0.000000
      5          1           0        0.000000    0.597346   -0.000000
      6          1           0       -0.000000   -0.597346   -0.000000
      7          1           0       -0.966526    1.299568    0.000000
      8          1           0       -0.966526    0.104876   -0.000000
      9          1           0       -1.933052    2.001790    0.000000
     10          1           0       -1.933052    0.807098    0.000000
 ---------------------------------------------------------------------

 SCF Done:  E(UHF) =  -4.85620164400     A.U. after   14 cycles
 E2 =    -0.6509581524D-01 EUMP2 =    -0.49212974592452D+01

 The electronic state is 3-BU.
 Alpha  occ. eigenvalues --   -0.88153  -0.77995  -0.61304  -0.41025  -0.37644
 Alpha  occ. eigenvalues --   -0.29483
 Alpha virt. eigenvalues --    0.15573   0.17792   0.42560   0.52574
  Beta  occ. eigenvalues --   -0.81790  -0.70273  -0.50780  -0.33039
  Beta virt. eigenvalues --    0.01644   0.10069   0.23921   0.31566   0.50675
  Beta virt. eigenvalues --    0.58916

 Mulliken charges and spin densities:
               1          2
     1  H    0.065382   0.468846
     2  H   -0.087221   0.414134
     3  H   -0.125351  -0.239473
     4  H    0.105063  -0.079172
     5  H    0.042127   0.435665
     6  H    0.042127   0.435665
     7  H    0.105063  -0.079172
     8  H   -0.125351  -0.239473
     9  H   -0.087221   0.414134
    10  H    0.065382   0.468846
 Sum of Mulliken charges =   0.00000   2.00000

 Dipole moment (field-independent basis, Debye):
    X=             -0.0000    Y=             -0.0000    Z=             -0.0000  Tot=              0.0000
 Quadrupole moment (field-independent basis, Debye-Ang):
   XX=            -15.3392   YY=            -16.8666   ZZ=            -12.9263
   XY=              1.3219   XZ=              0.0000   YZ=             -0.0000

 Normal termination of Gaussian 09 at Thu Feb 23 12:20:21 2017.
