 Gaussian 09, Revision E.01,
 Gaussian 09:  ES64L-G09RevE.01 30-Nov-2015

 ----------------------------------------------------------------------
 #uhf/gen scf(tight,novaracc,noincfock,fulldiag, ) stable(crhf) guess=r
 ead geom=nocrowd test
 ----------------------------------------------------------------------

 hf stability analysis of h10 triangular lattice, y= 0.4102222107631511
 3 alpha= 16.250000000000000
 ----------------------------------------------------------------------
 Symbolic Z-matrix:
 Charge =  0 Multiplicity = 3

                         Standard orientation:
 ---------------------------------------------------------------------
 Center     Atomic      Atomic             Coordinates (Angstroms)
 Number     Number       Type             X           Y           Z
 ---------------------------------------------------------------------
      1          1           0        1.575335   -1.739793   -0.000000
      2          1           0        1.575335   -3.205768    0.000000
      3          1           0        0.787668   -0.503403   -0.000000
      4          1           0        0.787668   -1.969378    0.000000
      5          1           0        0.000000    0.732987   -0.000000
      6          1           0       -0.000000   -0.732987    0.000000
      7          1           0       -0.787668    1.969378   -0.000000
      8          1           0       -0.787668    0.503403   -0.000000
      9          1           0       -1.575335    3.205768   -0.000000
     10          1           0       -1.575335    1.739793   -0.000000
 ---------------------------------------------------------------------

 SCF Done:  E(UHF) =  -5.05412481241     A.U. after   12 cycles
 E2 =    -0.5508478924D-01 EUMP2 =    -0.51092096016513D+01

 The electronic state is 3-BU.
 Alpha  occ. eigenvalues --   -0.77413  -0.71785  -0.62373  -0.50203  -0.38527
 Alpha  occ. eigenvalues --   -0.32296
 Alpha virt. eigenvalues --    0.16495   0.27549   0.44435   0.62227
  Beta  occ. eigenvalues --   -0.76101  -0.68485  -0.55902  -0.40616
  Beta virt. eigenvalues --    0.16629   0.20363   0.22429   0.28719   0.46434
  Beta virt. eigenvalues --    0.63295

 Mulliken charges and spin densities:
               1          2
     1  H   -0.014223   0.092517
     2  H   -0.048233   0.946836
     3  H    0.013252  -0.081145
     4  H    0.048062  -0.053113
     5  H    0.001142   0.094905
     6  H    0.001142   0.094905
     7  H    0.048062  -0.053113
     8  H    0.013252  -0.081145
     9  H   -0.048233   0.946836
    10  H   -0.014223   0.092517
 Sum of Mulliken charges =   0.00000   2.00000

 Dipole moment (field-independent basis, Debye):
    X=             -0.0000    Y=             -0.0000    Z=              0.0000  Tot=              0.0000
 Quadrupole moment (field-independent basis, Debye-Ang):
   XX=            -13.5526   YY=            -21.1163   ZZ=            -12.6594
   XY=              5.2491   XZ=             -0.0000   YZ=              0.0000

 Normal termination of Gaussian 09 at Thu Feb 23 12:18:33 2017.
