 Gaussian 09, Revision E.01,
 Gaussian 09:  ES64L-G09RevE.01 30-Nov-2015

 ----------------------------------------------------------------------
 #uhf/gen scf(tight,novaracc,noincfock,fulldiag, ) stable(crhf) guess=r
 ead geom=nocrowd test
 ----------------------------------------------------------------------

 hf stability analysis of h10 triangular lattice, y= 0.5948114929471706
 2 alpha= 31.500000000000000
 ----------------------------------------------------------------------
 Symbolic Z-matrix:
 Charge =  0 Multiplicity = 3

                         Standard orientation:
 ---------------------------------------------------------------------
 Center     Atomic      Atomic             Coordinates (Angstroms)
 Number     Number       Type             X           Y           Z
 ---------------------------------------------------------------------
      1          1           0        2.028641   -0.464445   -0.000000
      2          1           0        2.028641   -1.602843   -0.000000
      3          1           0        1.014320    0.052377   -0.000000
      4          1           0        1.014320   -1.086021   -0.000000
      5          1           0        0.000000    0.569199    0.000000
      6          1           0       -0.000000   -0.569199    0.000000
      7          1           0       -1.014320    1.086021   -0.000000
      8          1           0       -1.014320   -0.052377   -0.000000
      9          1           0       -2.028641    1.602843   -0.000000
     10          1           0       -2.028641    0.464445   -0.000000
 ---------------------------------------------------------------------

 SCF Done:  E(UHF) =  -4.88422750265     A.U. after   14 cycles
 E2 =    -0.7616308925D-01 EUMP2 =    -0.49603905919028D+01

 The electronic state is 3-BU.
 Alpha  occ. eigenvalues --   -0.88238  -0.79748  -0.59598  -0.43726  -0.36650
 Alpha  occ. eigenvalues --   -0.32254
 Alpha virt. eigenvalues --    0.16594   0.19209   0.50131   0.59592
  Beta  occ. eigenvalues --   -0.82719  -0.67634  -0.48687  -0.35013
  Beta virt. eigenvalues --    0.00487   0.05241   0.28190   0.31126   0.59678
  Beta virt. eigenvalues --    0.66162

 Mulliken charges and spin densities:
               1          2
     1  H    0.022285   0.298199
     2  H    0.018150   0.471967
     3  H   -0.024337   0.156872
     4  H    0.026289   0.113404
     5  H   -0.042387  -0.040443
     6  H   -0.042387  -0.040443
     7  H    0.026289   0.113404
     8  H   -0.024337   0.156872
     9  H    0.018150   0.471967
    10  H    0.022285   0.298199
 Sum of Mulliken charges =  -0.00000   2.00000

 Dipole moment (field-independent basis, Debye):
    X=              0.0000    Y=             -0.0000    Z=             -0.0000  Tot=              0.0000
 Quadrupole moment (field-independent basis, Debye-Ang):
   XX=            -12.9617   YY=            -14.9299   ZZ=            -12.9549
   XY=             -1.6340   XZ=              0.0000   YZ=              0.0000

 Normal termination of Gaussian 09 at Thu Feb 23 12:21:07 2017.
