 Gaussian 09, Revision E.01,
 Gaussian 09:  ES64L-G09RevE.01 30-Nov-2015

 ----------------------------------------------------------------------
 #uhf/gen scf(tight,novaracc,noincfock,fulldiag, ) stable(crhf) guess=r
 ead geom=nocrowd test
 ----------------------------------------------------------------------

 hf stability analysis of h10 triangular lattice, y= 0.5218199625932952
 2 alpha= 25.250000000000000
 ----------------------------------------------------------------------
 Symbolic Z-matrix:
 Charge =  0 Multiplicity = 3

                         Standard orientation:
 ---------------------------------------------------------------------
 Center     Atomic      Atomic             Coordinates (Angstroms)
 Number     Number       Type             X           Y           Z
 ---------------------------------------------------------------------
      1          1           0        1.887851   -0.944576    0.000000
      2          1           0        1.887851   -2.167872    0.000000
      3          1           0        0.943925   -0.166464    0.000000
      4          1           0        0.943925   -1.389760    0.000000
      5          1           0        0.000000    0.611648    0.000000
      6          1           0       -0.000000   -0.611648   -0.000000
      7          1           0       -0.943925    1.389760    0.000000
      8          1           0       -0.943925    0.166464    0.000000
      9          1           0       -1.887851    2.167872    0.000000
     10          1           0       -1.887851    0.944576    0.000000
 ---------------------------------------------------------------------

 SCF Done:  E(UHF) =  -4.85333808471     A.U. after   14 cycles
 E2 =    -0.5828253359D-01 EUMP2 =    -0.49116206183024D+01

 The electronic state is 3-BU.
 Alpha  occ. eigenvalues --   -0.87209  -0.77180  -0.61840  -0.40729  -0.37550
 Alpha  occ. eigenvalues --   -0.29113
 Alpha virt. eigenvalues --    0.15217   0.18528   0.37976   0.53744
  Beta  occ. eigenvalues --   -0.81507  -0.71041  -0.51544  -0.33318
  Beta virt. eigenvalues --    0.03392   0.12241   0.22264   0.31573   0.46283
  Beta virt. eigenvalues --    0.59057

 Mulliken charges and spin densities:
               1          2
     1  H    0.049801   0.483308
     2  H   -0.099314   0.502978
     3  H   -0.095278  -0.325694
     4  H    0.121316  -0.174182
     5  H    0.023475   0.513591
     6  H    0.023475   0.513591
     7  H    0.121316  -0.174182
     8  H   -0.095278  -0.325694
     9  H   -0.099314   0.502978
    10  H    0.049801   0.483308
 Sum of Mulliken charges =   0.00000   2.00000

 Dipole moment (field-independent basis, Debye):
    X=             -0.0000    Y=             -0.0000    Z=             -0.0000  Tot=              0.0000
 Quadrupole moment (field-independent basis, Debye-Ang):
   XX=            -15.7395   YY=            -17.5818   ZZ=            -12.8979
   XY=              2.2026   XZ=              0.0000   YZ=             -0.0000

 Normal termination of Gaussian 09 at Thu Feb 23 12:20:03 2017.
