 Gaussian 09, Revision E.01,
 Gaussian 09:  ES64L-G09RevE.01 30-Nov-2015

 ----------------------------------------------------------------------
 #uhf/gen scf(tight,novaracc,noincfock,fulldiag, ) stable(crhf) guess=r
 ead geom=nocrowd test
 ----------------------------------------------------------------------

 hf stability analysis of h10 triangular lattice, y= 1.5217180473945009
  alpha= 76.000000000000000
 ----------------------------------------------------------------------
 Symbolic Z-matrix:
 Charge =  0 Multiplicity = 3

                         Standard orientation:
 ---------------------------------------------------------------------
 Center     Atomic      Atomic             Coordinates (Angstroms)
 Number     Number       Type             X           Y           Z
 ---------------------------------------------------------------------
      1          1           0        1.472548    3.553611    0.000000
      2          1           0        1.472548    1.985308    0.000000
      3          1           0        0.736274    2.168881    0.000000
      4          1           0        0.736274    0.600578    0.000000
      5          1           0        0.000000    0.784152    0.000000
      6          1           0       -0.000000   -0.784152    0.000000
      7          1           0       -0.736274   -0.600578    0.000000
      8          1           0       -0.736274   -2.168881    0.000000
      9          1           0       -1.472548   -1.985308    0.000000
     10          1           0       -1.472548   -3.553611    0.000000
 ---------------------------------------------------------------------

 SCF Done:  E(UHF) =  -5.14940672955     A.U. after   10 cycles
 E2 =    -0.4914917417D-01 EUMP2 =    -0.51985559037187D+01

 The electronic state is 3-BU.
 Alpha  occ. eigenvalues --   -0.75683  -0.71044  -0.62899  -0.52339  -0.42026
 Alpha  occ. eigenvalues --   -0.38260
 Alpha virt. eigenvalues --    0.22296   0.32418   0.48244   0.64438
  Beta  occ. eigenvalues --   -0.74699  -0.68336  -0.58110  -0.45916
  Beta virt. eigenvalues --    0.18547   0.18978   0.22976   0.33318   0.49255
  Beta virt. eigenvalues --    0.65020

 Mulliken charges and spin densities:
               1          2
     1  H   -0.019960   0.979038
     2  H   -0.006251   0.023668
     3  H    0.020085  -0.008728
     4  H    0.002667  -0.011907
     5  H    0.003459   0.017929
     6  H    0.003459   0.017929
     7  H    0.002667  -0.011907
     8  H    0.020085  -0.008728
     9  H   -0.006251   0.023668
    10  H   -0.019960   0.979038
 Sum of Mulliken charges =  -0.00000   2.00000

 Dipole moment (field-independent basis, Debye):
    X=             -0.0000    Y=             -0.0000    Z=             -0.0000  Tot=              0.0000
 Quadrupole moment (field-independent basis, Debye-Ang):
   XX=            -12.5894   YY=            -19.5451   ZZ=            -12.7850
   XY=             -3.5709   XZ=             -0.0000   YZ=             -0.0000

 Normal termination of Gaussian 09 at Thu Feb 23 12:28:30 2017.
