 Gaussian 09, Revision E.01,
 Gaussian 09:  ES64L-G09RevE.01 30-Nov-2015

 ----------------------------------------------------------------------
 #uhf/gen scf(tight,novaracc,noincfock,fulldiag, ) stable(crhf) guess=r
 ead geom=nocrowd test
 ----------------------------------------------------------------------

 hf stability analysis of h10 triangular lattice, y= 0.6446958471815459
 3 alpha= 35.750000000000000
 ----------------------------------------------------------------------
 Symbolic Z-matrix:
 Charge =  0 Multiplicity = 3

                         Standard orientation:
 ---------------------------------------------------------------------
 Center     Atomic      Atomic             Coordinates (Angstroms)
 Number     Number       Type             X           Y           Z
 ---------------------------------------------------------------------
      1          1           0        2.092873   -0.148536    0.000000
      2          1           0        2.092873   -1.251995    0.000000
      3          1           0        1.046437    0.201597    0.000000
      4          1           0        1.046437   -0.901863    0.000000
      5          1           0        0.000000    0.551730    0.000000
      6          1           0       -0.000000   -0.551730    0.000000
      7          1           0       -1.046437    0.901863    0.000000
      8          1           0       -1.046437   -0.201597    0.000000
      9          1           0       -2.092873    1.251995    0.000000
     10          1           0       -2.092873    0.148536    0.000000
 ---------------------------------------------------------------------

 SCF Done:  E(UHF) =  -4.91013242003     A.U. after   14 cycles
 E2 =    -0.7434725619D-01 EUMP2 =    -0.49844796762232D+01

 The electronic state is 3-BU.
 Alpha  occ. eigenvalues --   -0.89431  -0.80826  -0.58593  -0.46653  -0.35685
 Alpha  occ. eigenvalues --   -0.34675
 Alpha virt. eigenvalues --    0.15861   0.24486   0.47464   0.73246
  Beta  occ. eigenvalues --   -0.83572  -0.66956  -0.49019  -0.38034
  Beta virt. eigenvalues --    0.02533   0.03782   0.25442   0.36146   0.59427
  Beta virt. eigenvalues --    0.79850

 Mulliken charges and spin densities:
               1          2
     1  H    0.020428   0.224177
     2  H    0.025869   0.422402
     3  H   -0.011748   0.316560
     4  H    0.000724   0.245570
     5  H   -0.035274  -0.208709
     6  H   -0.035274  -0.208709
     7  H    0.000724   0.245570
     8  H   -0.011748   0.316560
     9  H    0.025869   0.422402
    10  H    0.020428   0.224177
 Sum of Mulliken charges =   0.00000   2.00000

 Dipole moment (field-independent basis, Debye):
    X=             -0.0000    Y=              0.0000    Z=              0.0000  Tot=              0.0000
 Quadrupole moment (field-independent basis, Debye-Ang):
   XX=            -13.0008   YY=            -15.1638   ZZ=            -12.9036
   XY=             -1.0835   XZ=              0.0000   YZ=              0.0000

 Normal termination of Gaussian 09 at Thu Feb 23 12:21:49 2017.
