 Gaussian 09, Revision E.01,
 Gaussian 09:  ES64L-G09RevE.01 30-Nov-2015

 ----------------------------------------------------------------------
 #uhf/gen scf(tight,novaracc,noincfock,fulldiag, ) stable(crhf) guess=r
 ead geom=nocrowd test
 ----------------------------------------------------------------------

 hf stability analysis of h10 triangular lattice, y= 0.5540600992415728
 5 alpha= 28.000000000000000
 ----------------------------------------------------------------------
 Symbolic Z-matrix:
 Charge =  0 Multiplicity = 3

                         Standard orientation:
 ---------------------------------------------------------------------
 Center     Atomic      Atomic             Coordinates (Angstroms)
 Number     Number       Type             X           Y           Z
 ---------------------------------------------------------------------
      1          1           0        1.956824   -0.729805    0.000000
      2          1           0        1.956824   -1.909984    0.000000
      3          1           0        0.978412   -0.069858    0.000000
      4          1           0        0.978412   -1.250036    0.000000
      5          1           0        0.000000    0.590089    0.000000
      6          1           0       -0.000000   -0.590089   -0.000000
      7          1           0       -0.978412    1.250036    0.000000
      8          1           0       -0.978412    0.069858    0.000000
      9          1           0       -1.956824    1.909984    0.000000
     10          1           0       -1.956824    0.729805    0.000000
 ---------------------------------------------------------------------

 SCF Done:  E(UHF) =  -4.85999680273     A.U. after   15 cycles
 E2 =    -0.6743447364D-01 EUMP2 =    -0.49274312763738D+01

 The electronic state is 3-BU.
 Alpha  occ. eigenvalues --   -0.88262  -0.78343  -0.61108  -0.41405  -0.37591
 Alpha  occ. eigenvalues --   -0.30130
 Alpha virt. eigenvalues --    0.16153   0.17360   0.45959   0.52223
  Beta  occ. eigenvalues --   -0.82101  -0.69786  -0.50140  -0.33278
  Beta virt. eigenvalues --    0.00919   0.08675   0.25448   0.31182   0.53806
  Beta virt. eigenvalues --    0.58902

 Mulliken charges and spin densities:
               1          2
     1  H    0.066987   0.455555
     2  H   -0.069404   0.421206
     3  H   -0.123629  -0.193889
     4  H    0.087777  -0.049437
     5  H    0.038269   0.366565
     6  H    0.038269   0.366565
     7  H    0.087777  -0.049437
     8  H   -0.123629  -0.193889
     9  H   -0.069404   0.421206
    10  H    0.066987   0.455555
 Sum of Mulliken charges =  -0.00000   2.00000

 Dipole moment (field-independent basis, Debye):
    X=              0.0000    Y=             -0.0000    Z=             -0.0000  Tot=              0.0000
 Quadrupole moment (field-independent basis, Debye-Ang):
   XX=            -14.7921   YY=            -16.4111   ZZ=            -12.9372
   XY=              0.5940   XZ=              0.0000   YZ=             -0.0000

 Normal termination of Gaussian 09 at Thu Feb 23 12:20:31 2017.
