 Gaussian 09, Revision E.01,
 Gaussian 09:  ES64L-G09RevE.01 30-Nov-2015

 ----------------------------------------------------------------------
 #uhf/gen scf(tight,novaracc,noincfock,fulldiag, ) stable(crhf) guess=r
 ead geom=nocrowd test
 ----------------------------------------------------------------------

 hf stability analysis of h10 triangular lattice, y= 1.3850361609029067
  alpha= 73.250000000000000
 ----------------------------------------------------------------------
 Symbolic Z-matrix:
 Charge =  0 Multiplicity = 3

                         Standard orientation:
 ---------------------------------------------------------------------
 Center     Atomic      Atomic             Coordinates (Angstroms)
 Number     Number       Type             X           Y           Z
 ---------------------------------------------------------------------
      1          1           0        1.596649    3.135476    0.000000
      2          1           0        1.596649    1.689071    0.000000
      3          1           0        0.798324    1.929339    0.000000
      4          1           0        0.798324    0.482934    0.000000
      5          1           0        0.000000    0.723203    0.000000
      6          1           0       -0.000000   -0.723203    0.000000
      7          1           0       -0.798324   -0.482934    0.000000
      8          1           0       -0.798324   -1.929339    0.000000
      9          1           0       -1.596649   -1.689071    0.000000
     10          1           0       -1.596649   -3.135476    0.000000
 ---------------------------------------------------------------------

 SCF Done:  E(UHF) =  -5.02938247228     A.U. after   13 cycles
 E2 =    -0.5535187061D-01 EUMP2 =    -0.50847343428848D+01

 The electronic state is 3-BU.
 Alpha  occ. eigenvalues --   -0.77901  -0.71992  -0.62343  -0.49742  -0.37769
 Alpha  occ. eigenvalues --   -0.31145
 Alpha virt. eigenvalues --    0.15457   0.26601   0.43428   0.61691
  Beta  occ. eigenvalues --   -0.76508  -0.68673  -0.55488  -0.39678
  Beta virt. eigenvalues --    0.15591   0.20692   0.22960   0.27671   0.45983
  Beta virt. eigenvalues --    0.62854

 Mulliken charges and spin densities:
               1          2
     1  H   -0.055502   0.936343
     2  H   -0.018411   0.132811
     3  H    0.057534  -0.085067
     4  H    0.019299  -0.139547
     5  H   -0.002919   0.155460
     6  H   -0.002919   0.155460
     7  H    0.019299  -0.139547
     8  H    0.057534  -0.085067
     9  H   -0.018411   0.132811
    10  H   -0.055502   0.936343
 Sum of Mulliken charges =  -0.00000   2.00000

 Dipole moment (field-independent basis, Debye):
    X=             -0.0000    Y=             -0.0000    Z=             -0.0000  Tot=              0.0000
 Quadrupole moment (field-independent basis, Debye-Ang):
   XX=            -13.8653   YY=            -21.3587   ZZ=            -12.6417
   XY=             -5.5824   XZ=             -0.0000   YZ=             -0.0000

 Normal termination of Gaussian 09 at Thu Feb 23 12:28:03 2017.
