 Gaussian 09, Revision E.01,
 Gaussian 09:  ES64L-G09RevE.01 30-Nov-2015

 ----------------------------------------------------------------------
 #uhf/gen scf(tight,novaracc,noincfock,fulldiag, ) stable(crhf) guess=r
 ead geom=nocrowd test
 ----------------------------------------------------------------------

 hf stability analysis of h10 triangular lattice, y= 0.5188669005588153
 5 alpha= 25.000000000000000
 ----------------------------------------------------------------------
 Symbolic Z-matrix:
 Charge =  0 Multiplicity = 3

                         Standard orientation:
 ---------------------------------------------------------------------
 Center     Atomic      Atomic             Coordinates (Angstroms)
 Number     Number       Type             X           Y           Z
 ---------------------------------------------------------------------
      1          1           0        1.881012   -0.964485    0.000000
      2          1           0        1.881012   -2.192229    0.000000
      3          1           0        0.940506   -0.175307   -0.000000
      4          1           0        0.940506   -1.403050    0.000000
      5          1           0        0.000000    0.613872   -0.000000
      6          1           0       -0.000000   -0.613872   -0.000000
      7          1           0       -0.940506    1.403050   -0.000000
      8          1           0       -0.940506    0.175307   -0.000000
      9          1           0       -1.881012    2.192229   -0.000000
     10          1           0       -1.881012    0.964485   -0.000000
 ---------------------------------------------------------------------

 SCF Done:  E(UHF) =  -4.85343681918     A.U. after   14 cycles
 E2 =    -0.5702659369D-01 EUMP2 =    -0.49104634128650D+01

 The electronic state is 3-BU.
 Alpha  occ. eigenvalues --   -0.87025  -0.77044  -0.61925  -0.40920  -0.37309
 Alpha  occ. eigenvalues --   -0.29154
 Alpha virt. eigenvalues --    0.15253   0.18605   0.37459   0.53968
  Beta  occ. eigenvalues --   -0.81475  -0.71137  -0.51653  -0.33423
  Beta virt. eigenvalues --    0.03682   0.12544   0.22135   0.31493   0.45810
  Beta virt. eigenvalues --    0.59080

 Mulliken charges and spin densities:
               1          2
     1  H    0.047025   0.484433
     2  H   -0.099859   0.521332
     3  H   -0.089598  -0.339619
     4  H    0.122300  -0.188825
     5  H    0.020133   0.522679
     6  H    0.020133   0.522679
     7  H    0.122300  -0.188825
     8  H   -0.089598  -0.339619
     9  H   -0.099859   0.521332
    10  H    0.047025   0.484433
 Sum of Mulliken charges =   0.00000   2.00000

 Dipole moment (field-independent basis, Debye):
    X=              0.0000    Y=              0.0000    Z=              0.0000  Tot=              0.0000
 Quadrupole moment (field-independent basis, Debye-Ang):
   XX=            -15.7633   YY=            -17.6841   ZZ=            -12.8920
   XY=              2.3140   XZ=             -0.0000   YZ=              0.0000

 Normal termination of Gaussian 09 at Thu Feb 23 12:20:01 2017.
