 Gaussian 09, Revision E.01,
 Gaussian 09:  ES64L-G09RevE.01 30-Nov-2015

 ----------------------------------------------------------------------
 #uhf/gen scf(tight,novaracc,noincfock,fulldiag, ) stable(crhf) guess=r
 ead geom=nocrowd test
 ----------------------------------------------------------------------

 hf stability analysis of h10 triangular lattice, y= 0.9519760744589420
 6 alpha= 57.500000000000000
 ----------------------------------------------------------------------
 Symbolic Z-matrix:
 Charge =  0 Multiplicity = 3

                         Standard orientation:
 ---------------------------------------------------------------------
 Center     Atomic      Atomic             Coordinates (Angstroms)
 Number     Number       Type             X           Y           Z
 ---------------------------------------------------------------------
      1          1           0        2.045985    1.518432   -0.000000
      2          1           0        2.045985    0.389685   -0.000000
      3          1           0        1.022993    1.041403   -0.000000
      4          1           0        1.022993   -0.087344   -0.000000
      5          1           0        0.000000    0.564374   -0.000000
      6          1           0       -0.000000   -0.564374   -0.000000
      7          1           0       -1.022993    0.087344   -0.000000
      8          1           0       -1.022993   -1.041403   -0.000000
      9          1           0       -2.045985   -0.389685   -0.000000
     10          1           0       -2.045985   -1.518432   -0.000000
 ---------------------------------------------------------------------

 SCF Done:  E(UHF) =  -4.89185546664     A.U. after   14 cycles
 E2 =    -0.7603020711D-01 EUMP2 =    -0.49678856737512D+01

 The electronic state is 3-BU.
 Alpha  occ. eigenvalues --   -0.88524  -0.80066  -0.59269  -0.44589  -0.36348
 Alpha  occ. eigenvalues --   -0.32831
 Alpha virt. eigenvalues --    0.16484   0.20437   0.49454   0.63073
  Beta  occ. eigenvalues --   -0.82892  -0.67377  -0.48774  -0.35765
  Beta virt. eigenvalues --    0.00944   0.04831   0.27433   0.32472   0.59689
  Beta virt. eigenvalues --    0.69598

 Mulliken charges and spin densities:
               1          2
     1  H    0.024948   0.461806
     2  H    0.017627   0.265331
     3  H    0.017931   0.155305
     4  H   -0.013196   0.221043
     5  H   -0.047310  -0.103485
     6  H   -0.047310  -0.103485
     7  H   -0.013196   0.221043
     8  H    0.017931   0.155305
     9  H    0.017627   0.265331
    10  H    0.024948   0.461806
 Sum of Mulliken charges =  -0.00000   2.00000

 Dipole moment (field-independent basis, Debye):
    X=              0.0000    Y=              0.0000    Z=             -0.0000  Tot=              0.0000
 Quadrupole moment (field-independent basis, Debye-Ang):
   XX=            -12.8993   YY=            -14.9202   ZZ=            -12.9432
   XY=              1.6119   XZ=             -0.0000   YZ=              0.0000

 Normal termination of Gaussian 09 at Thu Feb 23 12:25:25 2017.
