 Gaussian 09, Revision E.01,
 Gaussian 09:  ES64L-G09RevE.01 30-Nov-2015

 ----------------------------------------------------------------------
 #uhf/gen scf(tight,novaracc,noincfock,fulldiag, ) stable(crhf) guess=r
 ead geom=nocrowd test
 ----------------------------------------------------------------------

 hf stability analysis of h10 triangular lattice, y= 0.8258291078557595
 8 alpha= 49.750000000000000
 ----------------------------------------------------------------------
 Symbolic Z-matrix:
 Charge =  0 Multiplicity = 3

                         Standard orientation:
 ---------------------------------------------------------------------
 Center     Atomic      Atomic             Coordinates (Angstroms)
 Number     Number       Type             X           Y           Z
 ---------------------------------------------------------------------
      1          1           0        2.134352    0.898176    0.000000
      2          1           0        2.134352   -0.183840    0.000000
      3          1           0        1.067176    0.719592    0.000000
      4          1           0        1.067176   -0.362424    0.000000
      5          1           0        0.000000    0.541008    0.000000
      6          1           0       -0.000000   -0.541008   -0.000000
      7          1           0       -1.067176    0.362424    0.000000
      8          1           0       -1.067176   -0.719592   -0.000000
      9          1           0       -2.134352    0.183840    0.000000
     10          1           0       -2.134352   -0.898176   -0.000000
 ---------------------------------------------------------------------

 SCF Done:  E(UHF) =  -4.92194217133     A.U. after   12 cycles
 E2 =    -0.7261823268D-01 EUMP2 =    -0.49945604040128D+01

 The electronic state is 3-BU.
 Alpha  occ. eigenvalues --   -0.90230  -0.81444  -0.57983  -0.48349  -0.36523
 Alpha  occ. eigenvalues --   -0.34984
 Alpha virt. eigenvalues --    0.14980   0.29198   0.45003   0.84014
  Beta  occ. eigenvalues --   -0.84285  -0.66589  -0.49207  -0.40139
  Beta virt. eigenvalues --    0.02978   0.04270   0.23554   0.39453   0.59297
  Beta virt. eigenvalues --    0.90564

 Mulliken charges and spin densities:
               1          2
     1  H    0.023331   0.363810
     2  H    0.026054   0.233533
     3  H   -0.015532   0.321757
     4  H   -0.021794   0.363838
     5  H   -0.012059  -0.282937
     6  H   -0.012059  -0.282937
     7  H   -0.021794   0.363838
     8  H   -0.015532   0.321757
     9  H    0.026054   0.233533
    10  H    0.023331   0.363810
 Sum of Mulliken charges =  -0.00000   2.00000

 Dipole moment (field-independent basis, Debye):
    X=              0.0000    Y=             -0.0000    Z=             -0.0000  Tot=              0.0000
 Quadrupole moment (field-independent basis, Debye-Ang):
   XX=            -13.2465   YY=            -15.3145   ZZ=            -12.8642
   XY=              0.4303   XZ=              0.0000   YZ=             -0.0000

 Normal termination of Gaussian 09 at Thu Feb 23 12:24:09 2017.
