 Gaussian 09, Revision E.01,
 Gaussian 09:  ES64L-G09RevE.01 30-Nov-2015

 ----------------------------------------------------------------------
 #uhf/gen scf(tight,novaracc,noincfock,fulldiag, ) stable(crhf) guess=r
 ead geom=nocrowd test
 ----------------------------------------------------------------------

 hf stability analysis of h10 triangular lattice, y= 0.4298968291512300
 1 alpha= 17.750000000000000
 ----------------------------------------------------------------------
 Symbolic Z-matrix:
 Charge =  0 Multiplicity = 3

                         Standard orientation:
 ---------------------------------------------------------------------
 Center     Atomic      Atomic             Coordinates (Angstroms)
 Number     Number       Type             X           Y           Z
 ---------------------------------------------------------------------
      1          1           0        1.637728   -1.590947    0.000000
      2          1           0        1.637728   -3.001072    0.000000
      3          1           0        0.818864   -0.442942    0.000000
      4          1           0        0.818864   -1.853067    0.000000
      5          1           0        0.000000    0.705063    0.000000
      6          1           0       -0.000000   -0.705063   -0.000000
      7          1           0       -0.818864    1.853067    0.000000
      8          1           0       -0.818864    0.442942    0.000000
      9          1           0       -1.637728    3.001072    0.000000
     10          1           0       -1.637728    1.590947    0.000000
 ---------------------------------------------------------------------

 SCF Done:  E(UHF) =  -4.98109714701     A.U. after   13 cycles
 E2 =    -0.5022474681D-01 EUMP2 =    -0.50313218938209D+01

 The electronic state is 3-BU.
 Alpha  occ. eigenvalues --   -0.79148  -0.72532  -0.62472  -0.48829  -0.36423
 Alpha  occ. eigenvalues --   -0.29910
 Alpha virt. eigenvalues --    0.14525   0.24807   0.40982   0.60774
  Beta  occ. eigenvalues --   -0.77546  -0.69446  -0.54896  -0.38686
  Beta virt. eigenvalues --    0.13956   0.21059   0.23936   0.25353   0.45455
  Beta virt. eigenvalues --    0.61998

 Mulliken charges and spin densities:
               1          2
     1  H   -0.028605   0.256899
     2  H   -0.066199   0.909107
     3  H    0.036472  -0.336207
     4  H    0.078606  -0.187956
     5  H   -0.020274   0.358157
     6  H   -0.020274   0.358157
     7  H    0.078606  -0.187956
     8  H    0.036472  -0.336207
     9  H   -0.066199   0.909107
    10  H   -0.028605   0.256899
 Sum of Mulliken charges =  -0.00000   2.00000

 Dipole moment (field-independent basis, Debye):
    X=             -0.0000    Y=              0.0000    Z=             -0.0000  Tot=              0.0000
 Quadrupole moment (field-independent basis, Debye-Ang):
   XX=            -14.5209   YY=            -21.2528   ZZ=            -12.6381
   XY=              5.7173   XZ=              0.0000   YZ=             -0.0000

 Normal termination of Gaussian 09 at Thu Feb 23 12:18:47 2017.
