 Gaussian 09, Revision E.01,
 Gaussian 09:  ES64L-G09RevE.01 30-Nov-2015

 ----------------------------------------------------------------------
 #uhf/gen scf(tight,novaracc,noincfock,fulldiag, ) stable(crhf) guess=r
 ead geom=nocrowd test
 ----------------------------------------------------------------------

 hf stability analysis of h10 triangular lattice, y= 0.8443744677903469
 7 alpha= 51.000000000000000
 ----------------------------------------------------------------------
 Symbolic Z-matrix:
 Charge =  0 Multiplicity = 3

                         Standard orientation:
 ---------------------------------------------------------------------
 Center     Atomic      Atomic             Coordinates (Angstroms)
 Number     Number       Type             X           Y           Z
 ---------------------------------------------------------------------
      1          1           0        2.125528    0.995048    0.000000
      2          1           0        2.125528   -0.091458   -0.000000
      3          1           0        1.062764    0.769151    0.000000
      4          1           0        1.062764   -0.317356   -0.000000
      5          1           0       -0.000000    0.543253    0.000000
      6          1           0       -0.000000   -0.543253    0.000000
      7          1           0       -1.062764    0.317356   -0.000000
      8          1           0       -1.062764   -0.769151    0.000000
      9          1           0       -2.125528    0.091458   -0.000000
     10          1           0       -2.125528   -0.995048    0.000000
 ---------------------------------------------------------------------

 SCF Done:  E(UHF) =  -4.91981965533     A.U. after   12 cycles
 E2 =    -0.7298675029D-01 EUMP2 =    -0.49928064056256D+01

 The electronic state is 3-BU.
 Alpha  occ. eigenvalues --   -0.90063  -0.81315  -0.58124  -0.47997  -0.36114
 Alpha  occ. eigenvalues --   -0.35151
 Alpha virt. eigenvalues --    0.15194   0.28059   0.45634   0.81544
  Beta  occ. eigenvalues --   -0.84128  -0.66677  -0.49167  -0.39686
  Beta virt. eigenvalues --    0.03132   0.03873   0.23970   0.38753   0.59296
  Beta virt. eigenvalues --    0.88126

 Mulliken charges and spin densities:
               1          2
     1  H    0.023530   0.381207
     2  H    0.025096   0.225567
     3  H   -0.011552   0.304331
     4  H   -0.019238   0.356031
     5  H   -0.017836  -0.267136
     6  H   -0.017836  -0.267136
     7  H   -0.019238   0.356031
     8  H   -0.011552   0.304331
     9  H    0.025096   0.225567
    10  H    0.023530   0.381207
 Sum of Mulliken charges =   0.00000   2.00000

 Dipole moment (field-independent basis, Debye):
    X=              0.0000    Y=              0.0000    Z=              0.0000  Tot=              0.0000
 Quadrupole moment (field-independent basis, Debye-Ang):
   XX=            -13.1844   YY=            -15.2974   ZZ=            -12.8729
   XY=              0.5829   XZ=             -0.0000   YZ=              0.0000

 Normal termination of Gaussian 09 at Thu Feb 23 12:24:21 2017.
