 Gaussian 09, Revision E.01,
 Gaussian 09:  ES64L-G09RevE.01 30-Nov-2015

 ----------------------------------------------------------------------
 #uhf/gen scf(tight,novaracc,noincfock,fulldiag, ) stable(crhf) guess=r
 ead geom=nocrowd test
 ----------------------------------------------------------------------

 hf stability analysis of h10 triangular lattice, y= 1.1454817383776770
  alpha= 66.250000000000000
 ----------------------------------------------------------------------
 Symbolic Z-matrix:
 Charge =  0 Multiplicity = 3

                         Standard orientation:
 ---------------------------------------------------------------------
 Center     Atomic      Atomic             Coordinates (Angstroms)
 Number     Number       Type             X           Y           Z
 ---------------------------------------------------------------------
      1          1           0        1.845356    2.316690    0.000000
      2          1           0        1.845356    1.065224    0.000000
      3          1           0        0.922678    1.471212    0.000000
      4          1           0        0.922678    0.219745    0.000000
      5          1           0        0.000000    0.625733    0.000000
      6          1           0       -0.000000   -0.625733   -0.000000
      7          1           0       -0.922678   -0.219745    0.000000
      8          1           0       -0.922678   -1.471212    0.000000
      9          1           0       -1.845356   -1.065224    0.000000
     10          1           0       -1.845356   -2.316690    0.000000
 ---------------------------------------------------------------------

 SCF Done:  E(UHF) =  -4.85654089731     A.U. after   13 cycles
 E2 =    -0.5084020851D-01 EUMP2 =    -0.49073811058207D+01

 The electronic state is 3-BU.
 Alpha  occ. eigenvalues --   -0.86017  -0.76332  -0.62271  -0.42231  -0.35650
 Alpha  occ. eigenvalues --   -0.29628
 Alpha virt. eigenvalues --    0.15725   0.18699   0.35422   0.55169
  Beta  occ. eigenvalues --   -0.81233  -0.71492  -0.52261  -0.34105
  Beta virt. eigenvalues --    0.05243   0.14135   0.21728   0.30699   0.44129
  Beta virt. eigenvalues --    0.59243

 Mulliken charges and spin densities:
               1          2
     1  H   -0.099784   0.610322
     2  H    0.031932   0.483117
     3  H    0.123914  -0.248722
     4  H   -0.059999  -0.405096
     5  H    0.003937   0.560378
     6  H    0.003937   0.560378
     7  H   -0.059999  -0.405096
     8  H    0.123914  -0.248722
     9  H    0.031932   0.483117
    10  H   -0.099784   0.610322
 Sum of Mulliken charges =   0.00000   2.00000

 Dipole moment (field-independent basis, Debye):
    X=              0.0000    Y=              0.0000    Z=             -0.0000  Tot=              0.0000
 Quadrupole moment (field-independent basis, Debye-Ang):
   XX=            -15.8264   YY=            -18.1893   ZZ=            -12.8587
   XY=             -2.8678   XZ=             -0.0000   YZ=             -0.0000

 Normal termination of Gaussian 09 at Thu Feb 23 12:26:53 2017.
