 Gaussian 09, Revision E.01,
 Gaussian 09:  ES64L-G09RevE.01 30-Nov-2015

 ----------------------------------------------------------------------
 #uhf/gen scf(tight,novaracc,noincfock,fulldiag, ) stable(crhf) guess=r
 ead geom=nocrowd test
 ----------------------------------------------------------------------

 hf stability analysis of h10 triangular lattice, y= 1.9654877006520655
  alpha= 81.500000000000000
 ----------------------------------------------------------------------
 Symbolic Z-matrix:
 Charge =  0 Multiplicity = 3

                         Standard orientation:
 ---------------------------------------------------------------------
 Center     Atomic      Atomic             Coordinates (Angstroms)
 Number     Number       Type             X           Y           Z
 ---------------------------------------------------------------------
      1          1           0        1.162070    4.794619    0.000000
      2          1           0        1.162070    2.807302    0.000000
      3          1           0        0.581035    2.894139    0.000000
      4          1           0        0.581035    0.906822    0.000000
      5          1           0        0.000000    0.993658    0.000000
      6          1           0       -0.000000   -0.993658    0.000000
      7          1           0       -0.581035   -0.906822    0.000000
      8          1           0       -0.581035   -2.894139    0.000000
      9          1           0       -1.162070   -2.807302    0.000000
     10          1           0       -1.162070   -4.794619    0.000000
 ---------------------------------------------------------------------

 SCF Done:  E(UHF) =  -5.10950349178     A.U. after    7 cycles
 E2 =    -0.3382289460D-01 EUMP2 =    -0.51433263863798D+01

 The electronic state is 3-BU.
 Alpha  occ. eigenvalues --   -0.73354  -0.70931  -0.66880  -0.62136  -0.48518
 Alpha  occ. eigenvalues --   -0.48400
 Alpha virt. eigenvalues --    0.40963   0.48082   0.58521   0.68544
  Beta  occ. eigenvalues --   -0.73059  -0.70091  -0.65769  -0.61467
  Beta virt. eigenvalues --    0.14426   0.14456   0.41052   0.48297   0.58739
  Beta virt. eigenvalues --    0.68639

 Mulliken charges and spin densities:
               1          2
     1  H    0.004550   1.004525
     2  H   -0.001994  -0.002067
     3  H   -0.002738  -0.002656
     4  H   -0.000264  -0.000172
     5  H    0.000447   0.000370
     6  H    0.000447   0.000370
     7  H   -0.000264  -0.000172
     8  H   -0.002738  -0.002656
     9  H   -0.001994  -0.002067
    10  H    0.004550   1.004525
 Sum of Mulliken charges =   0.00000   2.00000

 Dipole moment (field-independent basis, Debye):
    X=              0.0000    Y=             -0.0000    Z=              0.0000  Tot=              0.0000
 Quadrupole moment (field-independent basis, Debye-Ang):
   XX=            -12.2656   YY=            -15.9559   ZZ=            -13.2311
   XY=             -0.8934   XZ=              0.0000   YZ=             -0.0000

 Normal termination of Gaussian 09 at Thu Feb 23 12:29:22 2017.
