 Gaussian 09, Revision E.01,
 Gaussian 09:  ES64L-G09RevE.01 30-Nov-2015

 ----------------------------------------------------------------------
 #uhf/gen scf(tight,novaracc,noincfock,fulldiag, ) stable(crhf) guess=r
 ead geom=nocrowd test
 ----------------------------------------------------------------------

 hf stability analysis of h10 triangular lattice, y= 1.5813852119866876
  alpha= 77.000000000000000
 ----------------------------------------------------------------------
 Symbolic Z-matrix:
 Charge =  0 Multiplicity = 3

                         Standard orientation:
 ---------------------------------------------------------------------
 Center     Atomic      Atomic             Coordinates (Angstroms)
 Number     Number       Type             X           Y           Z
 ---------------------------------------------------------------------
      1          1           0        1.422937    3.728944    0.000000
      2          1           0        1.422937    2.105962    0.000000
      3          1           0        0.711469    2.270218    0.000000
      4          1           0        0.711469    0.647236    0.000000
      5          1           0       -0.000000    0.811491    0.000000
      6          1           0       -0.000000   -0.811491    0.000000
      7          1           0       -0.711469   -0.647236   -0.000000
      8          1           0       -0.711469   -2.270218   -0.000000
      9          1           0       -1.422937   -2.105962   -0.000000
     10          1           0       -1.422937   -3.728944   -0.000000
 ---------------------------------------------------------------------

 SCF Done:  E(UHF) =  -5.17826072867     A.U. after   10 cycles
 E2 =    -0.4622874391D-01 EUMP2 =    -0.52244894725763D+01

 The electronic state is 3-BU.
 Alpha  occ. eigenvalues --   -0.75059  -0.70807  -0.63283  -0.53471  -0.43503
 Alpha  occ. eigenvalues --   -0.40816
 Alpha virt. eigenvalues --    0.25142   0.34817   0.49906   0.65255
  Beta  occ. eigenvalues --   -0.74217  -0.68444  -0.59255  -0.48536
  Beta virt. eigenvalues --    0.17701   0.18063   0.25557   0.35552   0.50694
  Beta virt. eigenvalues --    0.65686

 Mulliken charges and spin densities:
               1          2
     1  H   -0.011150   0.988302
     2  H   -0.004883   0.012566
     3  H    0.012175  -0.004714
     4  H    0.001099  -0.005771
     5  H    0.002759   0.009618
     6  H    0.002759   0.009618
     7  H    0.001099  -0.005771
     8  H    0.012175  -0.004714
     9  H   -0.004883   0.012566
    10  H   -0.011150   0.988302
 Sum of Mulliken charges =  -0.00000   2.00000

 Dipole moment (field-independent basis, Debye):
    X=              0.0000    Y=              0.0000    Z=              0.0000  Tot=              0.0000
 Quadrupole moment (field-independent basis, Debye-Ang):
   XX=            -12.3518   YY=            -18.8215   ZZ=            -12.8536
   XY=             -2.9200   XZ=              0.0000   YZ=             -0.0000

 Normal termination of Gaussian 09 at Thu Feb 23 12:28:39 2017.
