 Gaussian 09, Revision E.01,
 Gaussian 09:  ES64L-G09RevE.01 30-Nov-2015

 ----------------------------------------------------------------------
 #uhf/gen scf(tight,novaracc,noincfock,fulldiag, ) stable(crhf) guess=r
 ead geom=nocrowd test
 ----------------------------------------------------------------------

 hf stability analysis of h10 triangular lattice, y= 0.9251794552834028
 4 alpha= 56.000000000000000
 ----------------------------------------------------------------------
 Symbolic Z-matrix:
 Charge =  0 Multiplicity = 3

                         Standard orientation:
 ---------------------------------------------------------------------
 Center     Atomic      Atomic             Coordinates (Angstroms)
 Number     Number       Type             X           Y           Z
 ---------------------------------------------------------------------
      1          1           0        2.069415    1.394082    0.000000
      2          1           0        2.069415    0.278114    0.000000
      3          1           0        1.034708    0.976033    0.000000
      4          1           0        1.034708   -0.139935    0.000000
      5          1           0       -0.000000    0.557984    0.000000
      6          1           0       -0.000000   -0.557984   -0.000000
      7          1           0       -1.034708    0.139935    0.000000
      8          1           0       -1.034708   -0.976033    0.000000
      9          1           0       -2.069415   -0.278114    0.000000
     10          1           0       -2.069415   -1.394082    0.000000
 ---------------------------------------------------------------------

 SCF Done:  E(UHF) =  -4.90154806439     A.U. after   14 cycles
 E2 =    -0.7528038447D-01 EUMP2 =    -0.49768284488621D+01

 The electronic state is 3-BU.
 Alpha  occ. eigenvalues --   -0.88971  -0.80458  -0.58914  -0.45649  -0.36017
 Alpha  occ. eigenvalues --   -0.33713
 Alpha virt. eigenvalues --    0.16226   0.22330   0.48511   0.67955
  Beta  occ. eigenvalues --   -0.83206  -0.67147  -0.48904  -0.36875
  Beta virt. eigenvalues --    0.01688   0.04299   0.26445   0.34295   0.59576
  Beta virt. eigenvalues --    0.74517

 Mulliken charges and spin densities:
               1          2
     1  H    0.026983   0.443625
     2  H    0.017640   0.238379
     3  H    0.008906   0.202905
     4  H   -0.009570   0.277368
     5  H   -0.043959  -0.162277
     6  H   -0.043959  -0.162277
     7  H   -0.009570   0.277368
     8  H    0.008906   0.202905
     9  H    0.017640   0.238379
    10  H    0.026983   0.443625
 Sum of Mulliken charges =  -0.00000   2.00000

 Dipole moment (field-independent basis, Debye):
    X=             -0.0000    Y=             -0.0000    Z=              0.0000  Tot=              0.0000
 Quadrupole moment (field-independent basis, Debye-Ang):
   XX=            -12.9195   YY=            -15.0297   ZZ=            -12.9242
   XY=              1.3925   XZ=             -0.0000   YZ=             -0.0000

 Normal termination of Gaussian 09 at Thu Feb 23 12:25:10 2017.
