 Gaussian 09, Revision E.01,
 Gaussian 09:  ES64L-G09RevE.01 30-Nov-2015

 ----------------------------------------------------------------------
 #uhf/gen scf(tight,novaracc,noincfock,fulldiag, ) stable(crhf) guess=r
 ead geom=nocrowd test
 ----------------------------------------------------------------------

 hf stability analysis of h10 triangular lattice, y= 1.4189643903365978
  alpha= 74.000000000000000
 ----------------------------------------------------------------------
 Symbolic Z-matrix:
 Charge =  0 Multiplicity = 3

                         Standard orientation:
 ---------------------------------------------------------------------
 Center     Atomic      Atomic             Coordinates (Angstroms)
 Number     Number       Type             X           Y           Z
 ---------------------------------------------------------------------
      1          1           0        1.564478    3.241763    0.000000
      2          1           0        1.564478    1.765615    0.000000
      3          1           0        0.782239    1.989918    0.000000
      4          1           0        0.782239    0.513770    0.000000
      5          1           0        0.000000    0.738074    0.000000
      6          1           0       -0.000000   -0.738074    0.000000
      7          1           0       -0.782239   -0.513770    0.000000
      8          1           0       -0.782239   -1.989918    0.000000
      9          1           0       -1.564478   -1.765615    0.000000
     10          1           0       -1.564478   -3.241763    0.000000
 ---------------------------------------------------------------------

 SCF Done:  E(UHF) =  -5.06621140657     A.U. after   12 cycles
 E2 =    -0.5461462386D-01 EUMP2 =    -0.51208260304305D+01

 The electronic state is 3-BU.
 Alpha  occ. eigenvalues --   -0.77192  -0.71690  -0.62406  -0.50430  -0.38916
 Alpha  occ. eigenvalues --   -0.32930
 Alpha virt. eigenvalues --    0.17079   0.28047   0.44893   0.62497
  Beta  occ. eigenvalues --   -0.75917  -0.68427  -0.56123  -0.41143
  Beta virt. eigenvalues --    0.17168   0.20181   0.22163   0.29223   0.46700
  Beta virt. eigenvalues --    0.63507

 Mulliken charges and spin densities:
               1          2
     1  H   -0.044592   0.951445
     2  H   -0.012641   0.078260
     3  H    0.043932  -0.042427
     4  H    0.011072  -0.062999
     5  H    0.002230   0.075721
     6  H    0.002230   0.075721
     7  H    0.011072  -0.062999
     8  H    0.043932  -0.042427
     9  H   -0.012641   0.078260
    10  H   -0.044592   0.951445
 Sum of Mulliken charges =  -0.00000   2.00000

 Dipole moment (field-independent basis, Debye):
    X=             -0.0000    Y=              0.0000    Z=             -0.0000  Tot=              0.0000
 Quadrupole moment (field-independent basis, Debye-Ang):
   XX=            -13.4107   YY=            -20.9629   ZZ=            -12.6706
   XY=             -5.0606   XZ=              0.0000   YZ=              0.0000

 Normal termination of Gaussian 09 at Thu Feb 23 12:28:10 2017.
