 Gaussian 09, Revision E.01,
 Gaussian 09:  ES64L-G09RevE.01 30-Nov-2015

 ----------------------------------------------------------------------
 #uhf/gen scf(tight,novaracc,noincfock,fulldiag, ) stable(crhf) guess=r
 ead geom=nocrowd test
 ----------------------------------------------------------------------

 hf stability analysis of h10 triangular lattice, y= 0.9208433600613213
 9 alpha= 55.750000000000000
 ----------------------------------------------------------------------
 Symbolic Z-matrix:
 Charge =  0 Multiplicity = 3

                         Standard orientation:
 ---------------------------------------------------------------------
 Center     Atomic      Atomic             Coordinates (Angstroms)
 Number     Number       Type             X           Y           Z
 ---------------------------------------------------------------------
      1          1           0        2.073021    1.373598    0.000000
      2          1           0        2.073021    0.259571    0.000000
      3          1           0        1.036510    0.965306    0.000000
      4          1           0        1.036510   -0.148721    0.000000
      5          1           0       -0.000000    0.557014   -0.000000
      6          1           0       -0.000000   -0.557014   -0.000000
      7          1           0       -1.036510    0.148721    0.000000
      8          1           0       -1.036510   -0.965306    0.000000
      9          1           0       -2.073021   -0.259571    0.000000
     10          1           0       -2.073021   -1.373598    0.000000
 ---------------------------------------------------------------------

 SCF Done:  E(UHF) =  -4.90294752496     A.U. after   14 cycles
 E2 =    -0.7514311190D-01 EUMP2 =    -0.49780906368634D+01

 The electronic state is 3-BU.
 Alpha  occ. eigenvalues --   -0.89042  -0.80515  -0.58864  -0.45806  -0.35967
 Alpha  occ. eigenvalues --   -0.33857
 Alpha virt. eigenvalues --    0.16177   0.22643   0.48359   0.68738
  Beta  occ. eigenvalues --   -0.83259  -0.67116  -0.48922  -0.37051
  Beta virt. eigenvalues --    0.01812   0.04218   0.26293   0.34577   0.59553
  Beta virt. eigenvalues --    0.75308

 Mulliken charges and spin densities:
               1          2
     1  H    0.026935   0.440579
     2  H    0.017962   0.235467
     3  H    0.007626   0.209674
     4  H   -0.009640   0.284214
     5  H   -0.042883  -0.169935
     6  H   -0.042883  -0.169935
     7  H   -0.009640   0.284214
     8  H    0.007626   0.209674
     9  H    0.017962   0.235467
    10  H    0.026935   0.440579
 Sum of Mulliken charges =   0.00000   2.00000

 Dipole moment (field-independent basis, Debye):
    X=             -0.0000    Y=              0.0000    Z=              0.0000  Tot=              0.0000
 Quadrupole moment (field-independent basis, Debye-Ang):
   XX=            -12.9287   YY=            -15.0505   ZZ=            -12.9212
   XY=              1.3490   XZ=             -0.0000   YZ=              0.0000

 Normal termination of Gaussian 09 at Thu Feb 23 12:25:08 2017.
