 Gaussian 09, Revision E.01,
 Gaussian 09:  ES64L-G09RevE.01 30-Nov-2015

 ----------------------------------------------------------------------
 #uhf/gen scf(tight,novaracc,noincfock,fulldiag, ) stable(crhf) guess=r
 ead geom=nocrowd test
 ----------------------------------------------------------------------

 hf stability analysis of h10 triangular lattice, y= 0.2463370865798451
 8 alpha= 6.0000000000000000
 ----------------------------------------------------------------------
 Symbolic Z-matrix:
 Charge =  0 Multiplicity = 3

                         Standard orientation:
 ---------------------------------------------------------------------
 Center     Atomic      Atomic             Coordinates (Angstroms)
 Number     Number       Type             X           Y           Z
 ---------------------------------------------------------------------
      1          1           0        0.979950   -3.431979   -0.000000
      2          1           0        0.979950   -5.788630   -0.000000
      3          1           0        0.489975   -1.126827   -0.000000
      4          1           0        0.489975   -3.483478   -0.000000
      5          1           0        0.000000    1.178325    0.000000
      6          1           0       -0.000000   -1.178325    0.000000
      7          1           0       -0.489975    3.483478   -0.000000
      8          1           0       -0.489975    1.126827   -0.000000
      9          1           0       -0.979950    5.788630   -0.000000
     10          1           0       -0.979950    3.431979   -0.000000
 ---------------------------------------------------------------------

 SCF Done:  E(UHF) =  -4.78762692286     A.U. after    6 cycles
 E2 =    -0.2782039788D-01 EUMP2 =    -0.48154473207378D+01

 The electronic state is 3-BU.
 Alpha  occ. eigenvalues --   -0.73673  -0.72498  -0.70743  -0.69017  -0.49694
 Alpha  occ. eigenvalues --   -0.49690
 Alpha virt. eigenvalues --    0.53775   0.58681   0.65474   0.71638
  Beta  occ. eigenvalues --   -0.73570  -0.72217  -0.70430  -0.68879
  Beta virt. eigenvalues --    0.13239   0.13241   0.53804   0.58754   0.65548
  Beta virt. eigenvalues --    0.71668

 Mulliken charges and spin densities:
               1          2
     1  H   -0.000961  -0.001543
     2  H    0.003114   1.003113
     3  H   -0.000088  -0.000011
     4  H   -0.002156  -0.001574
     5  H    0.000091   0.000016
     6  H    0.000091   0.000016
     7  H   -0.002156  -0.001574
     8  H   -0.000088  -0.000011
     9  H    0.003114   1.003113
    10  H   -0.000961  -0.001543
 Sum of Mulliken charges =  -0.00000   2.00000

 Dipole moment (field-independent basis, Debye):
    X=             -0.0000    Y=             -0.0000    Z=             -0.0000  Tot=              0.0000
 Quadrupole moment (field-independent basis, Debye-Ang):
   XX=            -12.6393   YY=            -14.7351   ZZ=            -13.4518
   XY=              0.3234   XZ=             -0.0000   YZ=              0.0000

 Normal termination of Gaussian 09 at Thu Feb 23 12:16:55 2017.
