 Gaussian 09, Revision E.01,
 Gaussian 09:  ES64L-G09RevE.01 30-Nov-2015

 ----------------------------------------------------------------------
 #uhf/gen scf(tight,novaracc,noincfock,fulldiag, ) stable(crhf) guess=r
 ead geom=nocrowd test
 ----------------------------------------------------------------------

 hf stability analysis of h10 triangular lattice, y= 1.0879998015825072
  alpha= 64.000000000000000
 ----------------------------------------------------------------------
 Symbolic Z-matrix:
 Charge =  0 Multiplicity = 3

                         Standard orientation:
 ---------------------------------------------------------------------
 Center     Atomic      Atomic             Coordinates (Angstroms)
 Number     Number       Type             X           Y           Z
 ---------------------------------------------------------------------
      1          1           0        1.907791    2.095785    0.000000
      2          1           0        1.907791    0.885274    0.000000
      3          1           0        0.953895    1.350520    0.000000
      4          1           0        0.953895    0.140009    0.000000
      5          1           0        0.000000    0.605255    0.000000
      6          1           0       -0.000000   -0.605255    0.000000
      7          1           0       -0.953895   -0.140009    0.000000
      8          1           0       -0.953895   -1.350520    0.000000
      9          1           0       -1.907791   -0.885274    0.000000
     10          1           0       -1.907791   -2.095785    0.000000
 ---------------------------------------------------------------------

 SCF Done:  E(UHF) =  -4.85388869420     A.U. after   15 cycles
 E2 =    -0.6178377479D-01 EUMP2 =    -0.49156724689911D+01

 The electronic state is 3-BU.
 Alpha  occ. eigenvalues --   -0.87711  -0.77568  -0.61579  -0.40550  -0.37867
 Alpha  occ. eigenvalues --   -0.29120
 Alpha virt. eigenvalues --    0.15236   0.18233   0.39724   0.53135
  Beta  occ. eigenvalues --   -0.81593  -0.70720  -0.51239  -0.33086
  Beta virt. eigenvalues --    0.02577   0.11339   0.22792   0.31675   0.47953
  Beta virt. eigenvalues --    0.58995

 Mulliken charges and spin densities:
               1          2
     1  H   -0.096344   0.451660
     2  H    0.057601   0.477881
     3  H    0.116615  -0.128385
     4  H   -0.111237  -0.284770
     5  H    0.033365   0.483614
     6  H    0.033365   0.483614
     7  H   -0.111237  -0.284770
     8  H    0.116615  -0.128385
     9  H    0.057601   0.477881
    10  H   -0.096344   0.451660
 Sum of Mulliken charges =  -0.00000   2.00000

 Dipole moment (field-independent basis, Debye):
    X=             -0.0000    Y=              0.0000    Z=             -0.0000  Tot=              0.0000
 Quadrupole moment (field-independent basis, Debye-Ang):
   XX=            -15.6349   YY=            -17.2775   ZZ=            -12.9129
   XY=             -1.8628   XZ=             -0.0000   YZ=             -0.0000

 Normal termination of Gaussian 09 at Thu Feb 23 12:26:31 2017.
