 Gaussian 09, Revision E.01,
 Gaussian 09:  ES64L-G09RevE.01 30-Nov-2015

 ----------------------------------------------------------------------
 #uhf/gen scf(tight,novaracc,noincfock,fulldiag, ) stable(crhf) guess=r
 ead geom=nocrowd test
 ----------------------------------------------------------------------

 hf stability analysis of h10 triangular lattice, y= 0.4615146431802063
 0 alpha= 20.250000000000000
 ----------------------------------------------------------------------
 Symbolic Z-matrix:
 Charge =  0 Multiplicity = 3

                         Standard orientation:
 ---------------------------------------------------------------------
 Center     Atomic      Atomic             Coordinates (Angstroms)
 Number     Number       Type             X           Y           Z
 ---------------------------------------------------------------------
      1          1           0        1.731956   -1.361157    0.000000
      2          1           0        1.731956   -2.694563    0.000000
      3          1           0        0.865978   -0.347227    0.000000
      4          1           0        0.865978   -1.680633    0.000000
      5          1           0        0.000000    0.666703    0.000000
      6          1           0       -0.000000   -0.666703   -0.000000
      7          1           0       -0.865978    1.680633    0.000000
      8          1           0       -0.865978    0.347227   -0.000000
      9          1           0       -1.731956    2.694563    0.000000
     10          1           0       -1.731956    1.361157    0.000000
 ---------------------------------------------------------------------

 SCF Done:  E(UHF) =  -4.89846669520     A.U. after   13 cycles
 E2 =    -0.3987068656D-01 EUMP2 =    -0.49383373817567D+01

 The electronic state is 3-BU.
 Alpha  occ. eigenvalues --   -0.82425  -0.74176  -0.62662  -0.46255  -0.33144
 Alpha  occ. eigenvalues --   -0.30818
 Alpha virt. eigenvalues --    0.15992   0.19964   0.35952   0.58659
  Beta  occ. eigenvalues --   -0.79753  -0.71184  -0.54020  -0.37182
  Beta virt. eigenvalues --    0.10361   0.19401   0.21809   0.26610   0.44112
  Beta virt. eigenvalues --    0.60456

 Mulliken charges and spin densities:
               1          2
     1  H   -0.020032   0.431392
     2  H   -0.079678   0.810881
     3  H    0.027153  -0.518563
     4  H    0.108978  -0.307852
     5  H   -0.036420   0.584142
     6  H   -0.036420   0.584142
     7  H    0.108978  -0.307852
     8  H    0.027153  -0.518563
     9  H   -0.079678   0.810881
    10  H   -0.020032   0.431392
 Sum of Mulliken charges =  -0.00000   2.00000

 Dipole moment (field-independent basis, Debye):
    X=              0.0000    Y=             -0.0000    Z=              0.0000  Tot=              0.0000
 Quadrupole moment (field-independent basis, Debye-Ang):
   XX=            -15.4845   YY=            -19.5916   ZZ=            -12.7337
   XY=              4.3905   XZ=              0.0000   YZ=             -0.0000

 Normal termination of Gaussian 09 at Thu Feb 23 12:19:12 2017.
