 Gaussian 09, Revision E.01,
 Gaussian 09:  ES64L-G09RevE.01 30-Nov-2015

 ----------------------------------------------------------------------
 #uhf/gen scf(tight,novaracc,noincfock,fulldiag, ) stable(crhf) guess=r
 ead geom=nocrowd test
 ----------------------------------------------------------------------

 hf stability analysis of h10 triangular lattice, y= 0.7598357022583297
 5 alpha= 45.000000000000000
 ----------------------------------------------------------------------
 Symbolic Z-matrix:
 Charge =  0 Multiplicity = 3

                         Standard orientation:
 ---------------------------------------------------------------------
 Center     Atomic      Atomic             Coordinates (Angstroms)
 Number     Number       Type             X           Y           Z
 ---------------------------------------------------------------------
      1          1           0        0.000000    2.149140    0.537285
      2          1           0        0.000000    2.149140   -0.537285
      3          1           0        0.000000    1.074570    0.537285
      4          1           0        0.000000    1.074570   -0.537285
      5          1           0        0.000000    0.000000    0.537285
      6          1           0        0.000000   -0.000000   -0.537285
      7          1           0       -0.000000   -1.074570    0.537285
      8          1           0       -0.000000   -1.074570   -0.537285
      9          1           0       -0.000000   -2.149140    0.537285
     10          1           0       -0.000000   -2.149140   -0.537285
 ---------------------------------------------------------------------

 SCF Done:  E(UHF) =  -4.92499229149     A.U. after    7 cycles
 E2 =    -0.7200326363D-01 EUMP2 =    -0.49969955551214D+01

 The electronic state is 3-B1U.
 Alpha  occ. eigenvalues --   -0.90504  -0.81658  -0.57722  -0.48924  -0.37232
 Alpha  occ. eigenvalues --   -0.34675
 Alpha virt. eigenvalues --    0.14583   0.31403   0.43684   0.88412
  Beta  occ. eigenvalues --   -0.84553  -0.66420  -0.49275  -0.40906
  Beta virt. eigenvalues --    0.02752   0.04973   0.22834   0.40609   0.59358
  Beta virt. eigenvalues --    0.94874

 Mulliken charges and spin densities:
               1          2
     1  H    0.025470   0.291281
     2  H    0.025470   0.291281
     3  H   -0.024927   0.363884
     4  H   -0.024927   0.363884
     5  H   -0.001086  -0.310331
     6  H   -0.001086  -0.310331
     7  H   -0.024927   0.363884
     8  H   -0.024927   0.363884
     9  H    0.025470   0.291281
    10  H    0.025470   0.291281
 Sum of Mulliken charges =  -0.00000   2.00000

 Dipole moment (field-independent basis, Debye):
    X=             -0.0000    Y=              0.0000    Z=             -0.0000  Tot=              0.0000
 Quadrupole moment (field-independent basis, Debye-Ang):
   XX=            -12.8492   YY=            -13.3628   ZZ=            -15.3192
   XY=             -0.0000   XZ=              0.0000   YZ=             -0.0000

 Normal termination of Gaussian 09 at Thu Feb 23 12:23:21 2017.
