 Gaussian 09, Revision E.01,
 Gaussian 09:  ES64L-G09RevE.01 30-Nov-2015

 ----------------------------------------------------------------------
 #uhf/gen scf(tight,novaracc,noincfock,fulldiag, ) stable(crhf) guess=r
 ead geom=nocrowd test
 ----------------------------------------------------------------------

 hf stability analysis of h10 triangular lattice, y= 2.2960291063410230
  alpha= 83.750000000000000
 ----------------------------------------------------------------------
 Symbolic Z-matrix:
 Charge =  0 Multiplicity = 3

                         Standard orientation:
 ---------------------------------------------------------------------
 Center     Atomic      Atomic             Coordinates (Angstroms)
 Number     Number       Type             X           Y           Z
 ---------------------------------------------------------------------
      1          1           0        0.999846    5.664893   -0.000000
      2          1           0        0.999846    3.355135    0.000000
      3          1           0        0.499923    3.409886   -0.000000
      4          1           0        0.499923    1.100128    0.000000
      5          1           0       -0.000000    1.154879   -0.000000
      6          1           0       -0.000000   -1.154879   -0.000000
      7          1           0       -0.499923   -1.100128    0.000000
      8          1           0       -0.499923   -3.409886   -0.000000
      9          1           0       -0.999846   -3.355135    0.000000
     10          1           0       -0.999846   -5.664893   -0.000000
 ---------------------------------------------------------------------

 SCF Done:  E(UHF) =  -4.83646363108     A.U. after    6 cycles
 E2 =    -0.2838757202D-01 EUMP2 =    -0.48648512030990D+01

 The electronic state is 3-BU.
 Alpha  occ. eigenvalues --   -0.73570  -0.72266  -0.70292  -0.68313  -0.49626
 Alpha  occ. eigenvalues --   -0.49620
 Alpha virt. eigenvalues --    0.52287   0.57448   0.64640   0.71207
  Beta  occ. eigenvalues --   -0.73453  -0.71944  -0.69927  -0.68148
  Beta virt. eigenvalues --    0.13333   0.13337   0.52319   0.57531   0.64724
  Beta virt. eigenvalues --    0.71241

 Mulliken charges and spin densities:
               1          2
     1  H    0.003385   1.003383
     2  H   -0.001057  -0.001674
     3  H   -0.002335  -0.001718
     4  H   -0.000104  -0.000015
     5  H    0.000110   0.000024
     6  H    0.000110   0.000024
     7  H   -0.000104  -0.000015
     8  H   -0.002335  -0.001718
     9  H   -0.001057  -0.001674
    10  H    0.003385   1.003383
 Sum of Mulliken charges =  -0.00000   2.00000

 Dipole moment (field-independent basis, Debye):
    X=             -0.0000    Y=             -0.0000    Z=             -0.0000  Tot=              0.0000
 Quadrupole moment (field-independent basis, Debye-Ang):
   XX=            -12.5957   YY=            -14.8436   ZZ=            -13.4316
   XY=             -0.3653   XZ=              0.0000   YZ=              0.0000

 Normal termination of Gaussian 09 at Thu Feb 23 12:29:42 2017.
