 Gaussian 09, Revision E.01,
 Gaussian 09:  ES64L-G09RevE.01 30-Nov-2015

 ----------------------------------------------------------------------
 #uhf/gen scf(tight,novaracc,noincfock,fulldiag, ) stable(crhf) guess=r
 ead geom=nocrowd test
 ----------------------------------------------------------------------

 hf stability analysis of h10 triangular lattice, y= 1.4808545702551064
  alpha= 75.250000000000000
 ----------------------------------------------------------------------
 Symbolic Z-matrix:
 Charge =  0 Multiplicity = 3

                         Standard orientation:
 ---------------------------------------------------------------------
 Center     Atomic      Atomic             Coordinates (Angstroms)
 Number     Number       Type             X           Y           Z
 ---------------------------------------------------------------------
      1          1           0        1.508114    3.431241    0.000000
      2          1           0        1.508114    1.899923    0.000000
      3          1           0        0.754057    2.098450    0.000000
      4          1           0        0.754057    0.567132    0.000000
      5          1           0       -0.000000    0.765659    0.000000
      6          1           0       -0.000000   -0.765659   -0.000000
      7          1           0       -0.754057   -0.567132    0.000000
      8          1           0       -0.754057   -2.098450    0.000000
      9          1           0       -1.508114   -1.899923    0.000000
     10          1           0       -1.508114   -3.431241    0.000000
 ---------------------------------------------------------------------

 SCF Done:  E(UHF) =  -5.12157872940     A.U. after   10 cycles
 E2 =    -0.5132365128D-01 EUMP2 =    -0.51729023806783D+01

 The electronic state is 3-BU.
 Alpha  occ. eigenvalues --   -0.76205  -0.71262  -0.62673  -0.51587  -0.40875
 Alpha  occ. eigenvalues --   -0.36263
 Alpha virt. eigenvalues --    0.20262   0.30710   0.47010   0.63760
  Beta  occ. eigenvalues --   -0.75113  -0.68314  -0.57319  -0.44042
  Beta virt. eigenvalues --    0.19181   0.19228   0.21643   0.31738   0.48237
  Beta virt. eigenvalues --    0.64484

 Mulliken charges and spin densities:
               1          2
     1  H   -0.028116   0.970279
     2  H   -0.007815   0.036753
     3  H    0.027541  -0.015190
     4  H    0.004646  -0.021116
     5  H    0.003744   0.029273
     6  H    0.003744   0.029273
     7  H    0.004646  -0.021116
     8  H    0.027541  -0.015190
     9  H   -0.007815   0.036753
    10  H   -0.028116   0.970279
 Sum of Mulliken charges =   0.00000   2.00000

 Dipole moment (field-independent basis, Debye):
    X=              0.0000    Y=              0.0000    Z=             -0.0000  Tot=              0.0000
 Quadrupole moment (field-independent basis, Debye-Ang):
   XX=            -12.8381   YY=            -20.0919   ZZ=            -12.7381
   XY=             -4.1061   XZ=              0.0000   YZ=              0.0000

 Normal termination of Gaussian 09 at Thu Feb 23 12:28:22 2017.
