 Gaussian 09, Revision E.01,
 Gaussian 09:  ES64L-G09RevE.01 30-Nov-2015

 ----------------------------------------------------------------------
 #uhf/gen scf(tight,novaracc,noincfock,fulldiag, ) stable(crhf) guess=r
 ead geom=nocrowd test
 ----------------------------------------------------------------------

 hf stability analysis of h10 triangular lattice, y= 0.5070038553873883
 5 alpha= 24.000000000000000
 ----------------------------------------------------------------------
 Symbolic Z-matrix:
 Charge =  0 Multiplicity = 3

                         Standard orientation:
 ---------------------------------------------------------------------
 Center     Atomic      Atomic             Coordinates (Angstroms)
 Number     Number       Type             X           Y           Z
 ---------------------------------------------------------------------
      1          1           0        1.852684   -1.044906    0.000000
      2          1           0        1.852684   -2.291423    0.000000
      3          1           0        0.926342   -0.210824    0.000000
      4          1           0        0.926342   -1.457340    0.000000
      5          1           0       -0.000000    0.623258    0.000000
      6          1           0       -0.000000   -0.623258   -0.000000
      7          1           0       -0.926342    1.457340    0.000000
      8          1           0       -0.926342    0.210824    0.000000
      9          1           0       -1.852684    2.291423    0.000000
     10          1           0       -1.852684    1.044906    0.000000
 ---------------------------------------------------------------------

 SCF Done:  E(UHF) =  -4.85553780554     A.U. after   13 cycles
 E2 =    -0.5203113186D-01 EUMP2 =    -0.49075689374037D+01

 The electronic state is 3-BU.
 Alpha  occ. eigenvalues --   -0.86229  -0.76477  -0.62213  -0.41948  -0.36015
 Alpha  occ. eigenvalues --   -0.29499
 Alpha virt. eigenvalues --    0.15592   0.18728   0.35749   0.54921
  Beta  occ. eigenvalues --   -0.81294  -0.71440  -0.52132  -0.33948
  Beta virt. eigenvalues --    0.04916   0.13805   0.21785   0.30910   0.44374
  Beta virt. eigenvalues --    0.59202

 Mulliken charges and spin densities:
               1          2
     1  H    0.035133   0.484313
     2  H   -0.100175   0.593228
     3  H   -0.066064  -0.392764
     4  H    0.123979  -0.238698
     5  H    0.007128   0.553921
     6  H    0.007128   0.553921
     7  H    0.123979  -0.238698
     8  H   -0.066064  -0.392764
     9  H   -0.100175   0.593228
    10  H    0.035133   0.484313
 Sum of Mulliken charges =  -0.00000   2.00000

 Dipole moment (field-independent basis, Debye):
    X=             -0.0000    Y=              0.0000    Z=             -0.0000  Tot=              0.0000
 Quadrupole moment (field-independent basis, Debye-Ang):
   XX=            -15.8211   YY=            -18.0904   ZZ=            -12.8658
   XY=              2.7583   XZ=              0.0000   YZ=             -0.0000

 Normal termination of Gaussian 09 at Thu Feb 23 12:19:50 2017.
