 Gaussian 09, Revision E.01,
 Gaussian 09:  ES64L-G09RevE.01 30-Nov-2015

 ----------------------------------------------------------------------
 #uhf/gen scf(tight,novaracc,noincfock,fulldiag, ) stable(crhf) guess=r
 ead geom=nocrowd test
 ----------------------------------------------------------------------

 hf stability analysis of h10 triangular lattice, y= 0.3190649348779894
 3 alpha= 10.000000000000000
 ----------------------------------------------------------------------
 Symbolic Z-matrix:
 Charge =  0 Multiplicity = 3

                         Standard orientation:
 ---------------------------------------------------------------------
 Center     Atomic      Atomic             Coordinates (Angstroms)
 Number     Number       Type             X           Y           Z
 ---------------------------------------------------------------------
      1          1           0        1.256870   -2.534512    0.000000
      2          1           0        1.256870   -4.371934    0.000000
      3          1           0        0.628435   -0.807901    0.000000
      4          1           0        0.628435   -2.645322    0.000000
      5          1           0        0.000000    0.918711    0.000000
      6          1           0       -0.000000   -0.918711    0.000000
      7          1           0       -0.628435    2.645322    0.000000
      8          1           0       -0.628435    0.807901    0.000000
      9          1           0       -1.256870    4.371934    0.000000
     10          1           0       -1.256870    2.534512    0.000000
 ---------------------------------------------------------------------

 SCF Done:  E(UHF) =  -5.18113836693     A.U. after    9 cycles
 E2 =    -0.3776217828D-01 EUMP2 =    -0.52189005452137D+01

 The electronic state is 3-BU.
 Alpha  occ. eigenvalues --   -0.73690  -0.70608  -0.65254  -0.58511  -0.47229
 Alpha  occ. eigenvalues --   -0.46750
 Alpha virt. eigenvalues --    0.34953   0.43076   0.55321   0.67386
  Beta  occ. eigenvalues --   -0.73236  -0.69303  -0.63342  -0.57019
  Beta virt. eigenvalues --    0.15379   0.15461   0.35105   0.43422   0.55675
  Beta virt. eigenvalues --    0.67550

 Mulliken charges and spin densities:
               1          2
     1  H   -0.002710  -0.000659
     2  H    0.002860   1.002779
     3  H   -0.000281  -0.000627
     4  H   -0.000797  -0.002798
     5  H    0.000928   0.001305
     6  H    0.000928   0.001305
     7  H   -0.000797  -0.002798
     8  H   -0.000281  -0.000627
     9  H    0.002860   1.002779
    10  H   -0.002710  -0.000659
 Sum of Mulliken charges =   0.00000   2.00000

 Dipole moment (field-independent basis, Debye):
    X=              0.0000    Y=              0.0000    Z=             -0.0000  Tot=              0.0000
 Quadrupole moment (field-independent basis, Debye-Ang):
   XX=            -12.1518   YY=            -16.8225   ZZ=            -13.0956
   XY=              1.4130   XZ=             -0.0000   YZ=             -0.0000

 Normal termination of Gaussian 09 at Thu Feb 23 12:17:33 2017.
