 Gaussian 09, Revision E.01,
 Gaussian 09:  ES64L-G09RevE.01 30-Nov-2015

 ----------------------------------------------------------------------
 #uhf/gen scf(tight,novaracc,noincfock,fulldiag, ) stable(crhf) guess=r
 ead geom=nocrowd test
 ----------------------------------------------------------------------

 hf stability analysis of h10 triangular lattice, y= 1.0365814879045478
  alpha= 61.750000000000000
 ----------------------------------------------------------------------
 Symbolic Z-matrix:
 Charge =  0 Multiplicity = 3

                         Standard orientation:
 ---------------------------------------------------------------------
 Center     Atomic      Atomic             Coordinates (Angstroms)
 Number     Number       Type             X           Y           Z
 ---------------------------------------------------------------------
      1          1           0        1.962538    1.887346    0.000000
      2          1           0        1.962538    0.710604    0.000000
      3          1           0        0.981269    1.237859    0.000000
      4          1           0        0.981269    0.061116    0.000000
      5          1           0       -0.000000    0.588371    0.000000
      6          1           0       -0.000000   -0.588371    0.000000
      7          1           0       -0.981269   -0.061116    0.000000
      8          1           0       -0.981269   -1.237859    0.000000
      9          1           0       -1.962538   -0.710604    0.000000
     10          1           0       -1.962538   -1.887346    0.000000
 ---------------------------------------------------------------------

 SCF Done:  E(UHF) =  -4.86117956023     A.U. after   15 cycles
 E2 =    -0.6808114457D-01 EUMP2 =    -0.49292607047995D+01

 The electronic state is 3-BU.
 Alpha  occ. eigenvalues --   -0.88253  -0.78430  -0.61050  -0.41470  -0.37602
 Alpha  occ. eigenvalues --   -0.30304
 Alpha virt. eigenvalues --    0.16316   0.17255   0.46874   0.52133
  Beta  occ. eigenvalues --   -0.82179  -0.69645  -0.49962  -0.33362
  Beta virt. eigenvalues --    0.00772   0.08324   0.25859   0.31038   0.54635
  Beta virt. eigenvalues --    0.58920

 Mulliken charges and spin densities:
               1          2
     1  H   -0.063679   0.426504
     2  H    0.066170   0.450384
     3  H    0.082905  -0.042332
     4  H   -0.120467  -0.178928
     5  H    0.035070   0.344372
     6  H    0.035070   0.344372
     7  H   -0.120467  -0.178928
     8  H    0.082905  -0.042332
     9  H    0.066170   0.450384
    10  H   -0.063679   0.426504
 Sum of Mulliken charges =  -0.00000   2.00000

 Dipole moment (field-independent basis, Debye):
    X=              0.0000    Y=              0.0000    Z=              0.0000  Tot=              0.0000
 Quadrupole moment (field-independent basis, Debye-Ang):
   XX=            -14.6277   YY=            -16.2891   ZZ=            -12.9402
   XY=             -0.3913   XZ=              0.0000   YZ=              0.0000

 Normal termination of Gaussian 09 at Thu Feb 23 12:26:09 2017.
