 Gaussian 09, Revision E.01,
 Gaussian 09:  ES64L-G09RevE.01 30-Nov-2015

 ----------------------------------------------------------------------
 #uhf/gen scf(tight,novaracc,noincfock,fulldiag, ) stable(crhf) guess=r
 ead geom=nocrowd test
 ----------------------------------------------------------------------

 hf stability analysis of h10 triangular lattice, y= 0.6387729204659229
 3 alpha= 35.250000000000000
 ----------------------------------------------------------------------
 Symbolic Z-matrix:
 Charge =  0 Multiplicity = 3

                         Standard orientation:
 ---------------------------------------------------------------------
 Center     Atomic      Atomic             Coordinates (Angstroms)
 Number     Number       Type             X           Y           Z
 ---------------------------------------------------------------------
      1          1           0        2.086594   -0.185512    0.000000
      2          1           0        2.086594   -1.292292    0.000000
      3          1           0        1.043297    0.183939    0.000000
      4          1           0        1.043297   -0.922841    0.000000
      5          1           0        0.000000    0.553390   -0.000000
      6          1           0       -0.000000   -0.553390   -0.000000
      7          1           0       -1.043297    0.922841    0.000000
      8          1           0       -1.043297   -0.183939    0.000000
      9          1           0       -2.086594    1.292292    0.000000
     10          1           0       -2.086594    0.185512    0.000000
 ---------------------------------------------------------------------

 SCF Done:  E(UHF) =  -4.90795901633     A.U. after   14 cycles
 E2 =    -0.7460409046D-01 EUMP2 =    -0.49825631067909D+01

 The electronic state is 3-BU.
 Alpha  occ. eigenvalues --   -0.89308  -0.80729  -0.58678  -0.46388  -0.35777
 Alpha  occ. eigenvalues --   -0.34411
 Alpha virt. eigenvalues --    0.15969   0.23881   0.47759   0.71782
  Beta  occ. eigenvalues --   -0.83470  -0.67006  -0.48989  -0.37721
  Beta virt. eigenvalues --    0.02298   0.03918   0.25714   0.35648   0.59466
  Beta virt. eigenvalues --    0.78377

 Mulliken charges and spin densities:
               1          2
     1  H    0.019558   0.226903
     2  H    0.026310   0.428458
     3  H   -0.010816   0.307168
     4  H    0.002901   0.234395
     5  H   -0.037953  -0.196924
     6  H   -0.037953  -0.196924
     7  H    0.002901   0.234395
     8  H   -0.010816   0.307168
     9  H    0.026310   0.428458
    10  H    0.019558   0.226903
 Sum of Mulliken charges =   0.00000   2.00000

 Dipole moment (field-independent basis, Debye):
    X=             -0.0000    Y=             -0.0000    Z=              0.0000  Tot=              0.0000
 Quadrupole moment (field-independent basis, Debye-Ang):
   XX=            -12.9745   YY=            -15.1292   ZZ=            -12.9093
   XY=             -1.1714   XZ=             -0.0000   YZ=             -0.0000

 Normal termination of Gaussian 09 at Thu Feb 23 12:21:44 2017.
