 Gaussian 09, Revision E.01,
 Gaussian 09:  ES64L-G09RevE.01 30-Nov-2015

 ----------------------------------------------------------------------
 #uhf/gen scf(tight,novaracc,noincfock,fulldiag, ) stable(crhf) guess=r
 ead geom=nocrowd test
 ----------------------------------------------------------------------

 hf stability analysis of h10 triangular lattice, y= 1.3135898396745678
  alpha= 71.500000000000000
 ----------------------------------------------------------------------
 Symbolic Z-matrix:
 Charge =  0 Multiplicity = 3

                         Standard orientation:
 ---------------------------------------------------------------------
 Center     Atomic      Atomic             Coordinates (Angstroms)
 Number     Number       Type             X           Y           Z
 ---------------------------------------------------------------------
      1          1           0        1.667233    2.905078    0.000000
      2          1           0        1.667233    1.519907    0.000000
      3          1           0        0.833616    1.798831    0.000000
      4          1           0        0.833616    0.413661    0.000000
      5          1           0        0.000000    0.692585    0.000000
      6          1           0       -0.000000   -0.692585    0.000000
      7          1           0       -0.833616   -0.413661    0.000000
      8          1           0       -0.833616   -1.798831    0.000000
      9          1           0       -1.667233   -1.519907    0.000000
     10          1           0       -1.667233   -2.905078    0.000000
 ---------------------------------------------------------------------

 SCF Done:  E(UHF) =  -4.94995446536     A.U. after   12 cycles
 E2 =    -0.4468208198D-01 EUMP2 =    -0.49946365473446D+01

 The electronic state is 3-BU.
 Alpha  occ. eigenvalues --   -0.80183  -0.73022  -0.62597  -0.48137  -0.35476
 Alpha  occ. eigenvalues --   -0.29802
 Alpha virt. eigenvalues --    0.14672   0.23377   0.39186   0.60170
  Beta  occ. eigenvalues --   -0.78351  -0.70116  -0.54636  -0.38372
  Beta virt. eigenvalues --    0.12923   0.21020   0.23760   0.24704   0.45097
  Beta virt. eigenvalues --    0.61474

 Mulliken charges and spin densities:
               1          2
     1  H   -0.070457   0.884149
     2  H   -0.031914   0.336755
     3  H    0.091042  -0.251561
     4  H    0.043563  -0.444683
     5  H   -0.032234   0.475340
     6  H   -0.032234   0.475340
     7  H    0.043563  -0.444683
     8  H    0.091042  -0.251561
     9  H   -0.031914   0.336755
    10  H   -0.070457   0.884149
 Sum of Mulliken charges =   0.00000   2.00000

 Dipole moment (field-independent basis, Debye):
    X=             -0.0000    Y=             -0.0000    Z=             -0.0000  Tot=              0.0000
 Quadrupole moment (field-independent basis, Debye-Ang):
   XX=            -14.9170   YY=            -20.7618   ZZ=            -12.6589
   XY=             -5.3923   XZ=              0.0000   YZ=              0.0000

 Normal termination of Gaussian 09 at Thu Feb 23 12:27:46 2017.
