 Gaussian 09, Revision E.01,
 Gaussian 09:  ES64L-G09RevE.01 30-Nov-2015

 ----------------------------------------------------------------------
 #uhf/gen scf(tight,novaracc,noincfock,fulldiag, ) stable(crhf) guess=r
 ead geom=nocrowd test
 ----------------------------------------------------------------------

 hf stability analysis of h10 triangular lattice, y= 0.4584084631436424
 2 alpha= 20.000000000000000
 ----------------------------------------------------------------------
 Symbolic Z-matrix:
 Charge =  0 Multiplicity = 3

                         Standard orientation:
 ---------------------------------------------------------------------
 Center     Atomic      Atomic             Coordinates (Angstroms)
 Number     Number       Type             X           Y           Z
 ---------------------------------------------------------------------
      1          1           0        1.723052   -1.383305    0.000000
      2          1           0        1.723052   -2.723602    0.000000
      3          1           0        0.861526   -0.356578    0.000000
      4          1           0        0.861526   -1.696875    0.000000
      5          1           0        0.000000    0.670148   -0.000000
      6          1           0       -0.000000   -0.670148   -0.000000
      7          1           0       -0.861526    1.696875    0.000000
      8          1           0       -0.861526    0.356578    0.000000
      9          1           0       -1.723052    2.723602    0.000000
     10          1           0       -1.723052    1.383305    0.000000
 ---------------------------------------------------------------------

 SCF Done:  E(UHF) =  -4.90417617121     A.U. after   13 cycles
 E2 =    -0.3986750707D-01 EUMP2 =    -0.49440436782723D+01

 The electronic state is 3-BU.
 Alpha  occ. eigenvalues --   -0.82123  -0.74014  -0.62668  -0.46542  -0.33482
 Alpha  occ. eigenvalues --   -0.30587
 Alpha virt. eigenvalues --    0.15755   0.20430   0.36319   0.58888
  Beta  occ. eigenvalues --   -0.79593  -0.71078  -0.54122  -0.37403
  Beta virt. eigenvalues --    0.10741   0.19772   0.21917   0.26326   0.44249
  Beta virt. eigenvalues --    0.60588

 Mulliken charges and spin densities:
               1          2
     1  H   -0.023102   0.423526
     2  H   -0.078111   0.822605
     3  H    0.031832  -0.518091
     4  H    0.107060  -0.305722
     5  H   -0.037678   0.577682
     6  H   -0.037678   0.577682
     7  H    0.107060  -0.305722
     8  H    0.031832  -0.518091
     9  H   -0.078111   0.822605
    10  H   -0.023102   0.423526
 Sum of Mulliken charges =   0.00000   2.00000

 Dipole moment (field-independent basis, Debye):
    X=             -0.0000    Y=              0.0000    Z=             -0.0000  Tot=              0.0000
 Quadrupole moment (field-independent basis, Debye-Ang):
   XX=            -15.4273   YY=            -19.7321   ZZ=            -12.7225
   XY=              4.5251   XZ=              0.0000   YZ=             -0.0000

 Normal termination of Gaussian 09 at Thu Feb 23 12:19:09 2017.
