 Gaussian 09, Revision E.01,
 Gaussian 09:  ES64L-G09RevE.01 30-Nov-2015

 ----------------------------------------------------------------------
 #uhf/gen scf(tight,novaracc,noincfock,fulldiag, ) stable(crhf) guess=r
 ead geom=nocrowd test
 ----------------------------------------------------------------------

 hf stability analysis of h10 triangular lattice, y= 2.3437412473608381
  alpha= 84.000000000000000
 ----------------------------------------------------------------------
 Symbolic Z-matrix:
 Charge =  0 Multiplicity = 3

                         Standard orientation:
 ---------------------------------------------------------------------
 Center     Atomic      Atomic             Coordinates (Angstroms)
 Number     Number       Type             X           Y           Z
 ---------------------------------------------------------------------
      1          1           0        0.979951    5.788631    0.000000
      2          1           0        0.979951    3.431980    0.000000
      3          1           0        0.489975    3.483478    0.000000
      4          1           0        0.489975    1.126827    0.000000
      5          1           0       -0.000000    1.178326    0.000000
      6          1           0       -0.000000   -1.178326    0.000000
      7          1           0       -0.489975   -1.126827    0.000000
      8          1           0       -0.489975   -3.483478    0.000000
      9          1           0       -0.979951   -3.431980    0.000000
     10          1           0       -0.979951   -5.788631    0.000000
 ---------------------------------------------------------------------

 SCF Done:  E(UHF) =  -4.78762742869     A.U. after    6 cycles
 E2 =    -0.2782040099D-01 EUMP2 =    -0.48154478296799D+01

 The electronic state is 3-BU.
 Alpha  occ. eigenvalues --   -0.73673  -0.72498  -0.70743  -0.69017  -0.49694
 Alpha  occ. eigenvalues --   -0.49690
 Alpha virt. eigenvalues --    0.53775   0.58681   0.65474   0.71638
  Beta  occ. eigenvalues --   -0.73570  -0.72217  -0.70430  -0.68879
  Beta virt. eigenvalues --    0.13239   0.13241   0.53804   0.58754   0.65548
  Beta virt. eigenvalues --    0.71668

 Mulliken charges and spin densities:
               1          2
     1  H    0.003114   1.003113
     2  H   -0.000961  -0.001543
     3  H   -0.002156  -0.001574
     4  H   -0.000088  -0.000011
     5  H    0.000091   0.000016
     6  H    0.000091   0.000016
     7  H   -0.000088  -0.000011
     8  H   -0.002156  -0.001574
     9  H   -0.000961  -0.001543
    10  H    0.003114   1.003113
 Sum of Mulliken charges =   0.00000   2.00000

 Dipole moment (field-independent basis, Debye):
    X=              0.0000    Y=              0.0000    Z=              0.0000  Tot=              0.0000
 Quadrupole moment (field-independent basis, Debye-Ang):
   XX=            -12.6393   YY=            -14.7351   ZZ=            -13.4518
   XY=             -0.3234   XZ=              0.0000   YZ=             -0.0000

 Normal termination of Gaussian 09 at Thu Feb 23 12:29:44 2017.
