 Gaussian 09, Revision E.01,
 Gaussian 09:  ES64L-G09RevE.01 30-Nov-2015

 ----------------------------------------------------------------------
 #uhf/gen scf(tight,novaracc,noincfock,fulldiag, ) stable(crhf) guess=r
 ead geom=nocrowd test
 ----------------------------------------------------------------------

 hf stability analysis of h10 triangular lattice, y= 0.3231128888021356
 2 alpha= 10.250000000000000
 ----------------------------------------------------------------------
 Symbolic Z-matrix:
 Charge =  0 Multiplicity = 3

                         Standard orientation:
 ---------------------------------------------------------------------
 Center     Atomic      Atomic             Coordinates (Angstroms)
 Number     Number       Type             X           Y           Z
 ---------------------------------------------------------------------
      1          1           0        1.271825   -2.493742    0.000000
      2          1           0        1.271825   -4.309559    0.000000
      3          1           0        0.635912   -0.792917    0.000000
      4          1           0        0.635912   -2.608734    0.000000
      5          1           0        0.000000    0.907908    0.000000
      6          1           0       -0.000000   -0.907908    0.000000
      7          1           0       -0.635912    2.608734   -0.000000
      8          1           0       -0.635912    0.792917   -0.000000
      9          1           0       -1.271825    4.309559   -0.000000
     10          1           0       -1.271825    2.493742   -0.000000
 ---------------------------------------------------------------------

 SCF Done:  E(UHF) =  -5.18727207288     A.U. after    9 cycles
 E2 =    -0.3844075927D-01 EUMP2 =    -0.52257128321560D+01

 The electronic state is 3-BU.
 Alpha  occ. eigenvalues --   -0.73772  -0.70587  -0.65030  -0.57972  -0.46972
 Alpha  occ. eigenvalues --   -0.46390
 Alpha virt. eigenvalues --    0.34039   0.42310   0.54830   0.67210
  Beta  occ. eigenvalues --   -0.73289  -0.69198  -0.62963  -0.56286
  Beta virt. eigenvalues --    0.15554   0.15648   0.34204   0.42682   0.55210
  Beta virt. eigenvalues --    0.67389

 Mulliken charges and spin densities:
               1          2
     1  H   -0.002842  -0.000203
     2  H    0.002294   1.002198
     3  H   -0.000261  -0.000764
     4  H   -0.000227  -0.002802
     5  H    0.001036   0.001572
     6  H    0.001036   0.001572
     7  H   -0.000227  -0.002802
     8  H   -0.000261  -0.000764
     9  H    0.002294   1.002198
    10  H   -0.002842  -0.000203
 Sum of Mulliken charges =  -0.00000   2.00000

 Dipole moment (field-independent basis, Debye):
    X=              0.0000    Y=              0.0000    Z=              0.0000  Tot=              0.0000
 Quadrupole moment (field-independent basis, Debye-Ang):
   XX=            -12.1444   YY=            -16.9761   ZZ=            -13.0737
   XY=              1.5140   XZ=              0.0000   YZ=              0.0000

 Normal termination of Gaussian 09 at Thu Feb 23 12:17:35 2017.
