 Gaussian 09, Revision E.01,
 Gaussian 09:  ES64L-G09RevE.01 30-Nov-2015

 ----------------------------------------------------------------------
 #uhf/gen scf(tight,novaracc,noincfock,fulldiag, ) stable(crhf) guess=r
 ead geom=nocrowd test
 ----------------------------------------------------------------------

 hf stability analysis of h10 triangular lattice, y= 0.9165423628436679
 7 alpha= 55.500000000000000
 ----------------------------------------------------------------------
 Symbolic Z-matrix:
 Charge =  0 Multiplicity = 3

                         Standard orientation:
 ---------------------------------------------------------------------
 Center     Atomic      Atomic             Coordinates (Angstroms)
 Number     Number       Type             X           Y           Z
 ---------------------------------------------------------------------
      1          1           0        2.076541    1.353179    0.000000
      2          1           0        2.076541    0.241040    0.000000
      3          1           0        1.038271    0.954624    0.000000
      4          1           0        1.038271   -0.157514    0.000000
      5          1           0       -0.000000    0.556069   -0.000000
      6          1           0       -0.000000   -0.556069    0.000000
      7          1           0       -1.038271    0.157514    0.000000
      8          1           0       -1.038271   -0.954624    0.000000
      9          1           0       -2.076541   -0.241040    0.000000
     10          1           0       -2.076541   -1.353179    0.000000
 ---------------------------------------------------------------------

 SCF Done:  E(UHF) =  -4.90428708290     A.U. after   14 cycles
 E2 =    -0.7500621057D-01 EUMP2 =    -0.49792932934780D+01

 The electronic state is 3-BU.
 Alpha  occ. eigenvalues --   -0.89111  -0.80571  -0.58815  -0.45958  -0.35919
 Alpha  occ. eigenvalues --   -0.33998
 Alpha virt. eigenvalues --    0.16126   0.22956   0.48208   0.69513
  Beta  occ. eigenvalues --   -0.83313  -0.67087  -0.48940  -0.37224
  Beta virt. eigenvalues --    0.01935   0.04139   0.26144   0.34854   0.59531
  Beta virt. eigenvalues --    0.76090

 Mulliken charges and spin densities:
               1          2
     1  H    0.026832   0.437541
     2  H    0.018325   0.232890
     3  H    0.006390   0.216188
     4  H   -0.009817   0.290567
     5  H   -0.041730  -0.177186
     6  H   -0.041730  -0.177186
     7  H   -0.009817   0.290567
     8  H    0.006390   0.216188
     9  H    0.018325   0.232890
    10  H    0.026832   0.437541
 Sum of Mulliken charges =  -0.00000   2.00000

 Dipole moment (field-independent basis, Debye):
    X=              0.0000    Y=              0.0000    Z=              0.0000  Tot=              0.0000
 Quadrupole moment (field-independent basis, Debye-Ang):
   XX=            -12.9390   YY=            -15.0711   ZZ=            -12.9181
   XY=              1.3049   XZ=             -0.0000   YZ=              0.0000

 Normal termination of Gaussian 09 at Thu Feb 23 12:25:05 2017.
