 Gaussian 09, Revision E.01,
 Gaussian 09:  ES64L-G09RevE.01 30-Nov-2015

 ----------------------------------------------------------------------
 #uhf/gen scf(tight,novaracc,noincfock,fulldiag, ) stable(crhf) guess=r
 ead geom=nocrowd test
 ----------------------------------------------------------------------

 hf stability analysis of h10 triangular lattice, y= 1.3330047374615932
  alpha= 72.000000000000000
 ----------------------------------------------------------------------
 Symbolic Z-matrix:
 Charge =  0 Multiplicity = 3

                         Standard orientation:
 ---------------------------------------------------------------------
 Center     Atomic      Atomic             Coordinates (Angstroms)
 Number     Number       Type             X           Y           Z
 ---------------------------------------------------------------------
      1          1           0        1.647684    2.968645    0.000000
      2          1           0        1.647684    1.567041   -0.000000
      3          1           0        0.823842    1.834724    0.000000
      4          1           0        0.823842    0.433119   -0.000000
      5          1           0        0.000000    0.700802    0.000000
      6          1           0       -0.000000   -0.700802   -0.000000
      7          1           0       -0.823842   -0.433119   -0.000000
      8          1           0       -0.823842   -1.834724   -0.000000
      9          1           0       -1.647684   -1.567041   -0.000000
     10          1           0       -1.647684   -2.968645   -0.000000
 ---------------------------------------------------------------------

 SCF Done:  E(UHF) =  -4.97010597081     A.U. after   13 cycles
 E2 =    -0.4824725293D-01 EUMP2 =    -0.50183532237438D+01

 The electronic state is 3-BU.
 Alpha  occ. eigenvalues --   -0.79494  -0.72692  -0.62519  -0.48604  -0.36109
 Alpha  occ. eigenvalues --   -0.29822
 Alpha virt. eigenvalues --    0.14525   0.24341   0.40361   0.60572
  Beta  occ. eigenvalues --   -0.77823  -0.69678  -0.54801  -0.38576
  Beta virt. eigenvalues --    0.13611   0.21076   0.24187   0.24792   0.45344
  Beta virt. eigenvalues --    0.61813

 Mulliken charges and spin densities:
               1          2
     1  H   -0.067822   0.901196
     2  H   -0.030299   0.286550
     3  H    0.083167  -0.212132
     4  H    0.039793  -0.379232
     5  H   -0.024838   0.403618
     6  H   -0.024838   0.403618
     7  H    0.039793  -0.379232
     8  H    0.083167  -0.212132
     9  H   -0.030299   0.286550
    10  H   -0.067822   0.901196
 Sum of Mulliken charges =   0.00000   2.00000

 Dipole moment (field-independent basis, Debye):
    X=             -0.0000    Y=             -0.0000    Z=              0.0000  Tot=              0.0000
 Quadrupole moment (field-independent basis, Debye-Ang):
   XX=            -14.6647   YY=            -21.1078   ZZ=            -12.6435
   XY=             -5.6323   XZ=             -0.0000   YZ=             -0.0000

 Normal termination of Gaussian 09 at Thu Feb 23 12:27:51 2017.
