 Gaussian 09, Revision E.01,
 Gaussian 09:  ES64L-G09RevE.01 30-Nov-2015

 ----------------------------------------------------------------------
 #uhf/gen scf(tight,novaracc,noincfock,fulldiag, ) stable(crhf) guess=r
 ead geom=nocrowd test
 ----------------------------------------------------------------------

 hf stability analysis of h10 triangular lattice, y= 1.2948927059181552
  alpha= 71.000000000000000
 ----------------------------------------------------------------------
 Symbolic Z-matrix:
 Charge =  0 Multiplicity = 3

                         Standard orientation:
 ---------------------------------------------------------------------
 Center     Atomic      Atomic             Coordinates (Angstroms)
 Number     Number       Type             X           Y           Z
 ---------------------------------------------------------------------
      1          1           0        1.686303    2.843122   -0.000000
      2          1           0        1.686303    1.473617   -0.000000
      3          1           0        0.843152    1.763938   -0.000000
      4          1           0        0.843152    0.394432   -0.000000
      5          1           0        0.000000    0.684753    0.000000
      6          1           0       -0.000000   -0.684753    0.000000
      7          1           0       -0.843152   -0.394432   -0.000000
      8          1           0       -0.843152   -1.763938   -0.000000
      9          1           0       -1.686303   -1.473617   -0.000000
     10          1           0       -1.686303   -2.843122   -0.000000
 ---------------------------------------------------------------------

 SCF Done:  E(UHF) =  -4.93232382841     A.U. after   12 cycles
 E2 =    -0.4205668325D-01 EUMP2 =    -0.49743805116645D+01

 The electronic state is 3-BU.
 Alpha  occ. eigenvalues --   -0.80854  -0.73355  -0.62647  -0.47637  -0.34826
 Alpha  occ. eigenvalues --   -0.29938
 Alpha virt. eigenvalues --    0.14950   0.22388   0.38113   0.59759
  Beta  occ. eigenvalues --   -0.78824  -0.70500  -0.54478  -0.38123
  Beta virt. eigenvalues --    0.12219   0.20820   0.22895   0.25234   0.44824
  Beta virt. eigenvalues --    0.61161

 Mulliken charges and spin densities:
               1          2
     1  H   -0.072806   0.865378
     2  H   -0.031122   0.375076
     3  H    0.097460  -0.279191
     4  H    0.043287  -0.486185
     5  H   -0.036820   0.524922
     6  H   -0.036820   0.524922
     7  H    0.043287  -0.486185
     8  H    0.097460  -0.279191
     9  H   -0.031122   0.375076
    10  H   -0.072806   0.865378
 Sum of Mulliken charges =  -0.00000   2.00000

 Dipole moment (field-independent basis, Debye):
    X=             -0.0000    Y=              0.0000    Z=              0.0000  Tot=              0.0000
 Quadrupole moment (field-independent basis, Debye-Ang):
   XX=            -15.1246   YY=            -20.3948   ZZ=            -12.6783
   XY=             -5.1064   XZ=             -0.0000   YZ=             -0.0000

 Normal termination of Gaussian 09 at Thu Feb 23 12:27:41 2017.
