 Gaussian 09, Revision E.01,
 Gaussian 09:  ES64L-G09RevE.01 30-Nov-2015

 ----------------------------------------------------------------------
 #uhf/gen scf(tight,novaracc,noincfock,fulldiag, ) stable(crhf) guess=r
 ead geom=nocrowd test
 ----------------------------------------------------------------------

 hf stability analysis of h10 triangular lattice, y= 1.1733815430447392
  alpha= 67.250000000000000
 ----------------------------------------------------------------------
 Symbolic Z-matrix:
 Charge =  0 Multiplicity = 3

                         Standard orientation:
 ---------------------------------------------------------------------
 Center     Atomic      Atomic             Coordinates (Angstroms)
 Number     Number       Type             X           Y           Z
 ---------------------------------------------------------------------
      1          1           0        1.815038    2.419818   -0.000000
      2          1           0        1.815038    1.147448   -0.000000
      3          1           0        0.907519    1.528002   -0.000000
      4          1           0        0.907519    0.255631   -0.000000
      5          1           0        0.000000    0.636185    0.000000
      6          1           0       -0.000000   -0.636185   -0.000000
      7          1           0       -0.907519   -0.255631   -0.000000
      8          1           0       -0.907519   -1.528002   -0.000000
      9          1           0       -1.815038   -1.147448   -0.000000
     10          1           0       -1.815038   -2.419818   -0.000000
 ---------------------------------------------------------------------

 SCF Done:  E(UHF) =  -4.86276213975     A.U. after   13 cycles
 E2 =    -0.4646099410D-01 EUMP2 =    -0.49092231338421D+01

 The electronic state is 3-BU.
 Alpha  occ. eigenvalues --   -0.85112  -0.75738  -0.62448  -0.43372  -0.34138
 Alpha  occ. eigenvalues --   -0.30315
 Alpha virt. eigenvalues --    0.16463   0.18301   0.34596   0.56179
  Beta  occ. eigenvalues --   -0.80927  -0.71604  -0.52791  -0.34838
  Beta virt. eigenvalues --    0.06611   0.15525   0.21593   0.29651   0.43560
  Beta virt. eigenvalues --    0.59461

 Mulliken charges and spin densities:
               1          2
     1  H   -0.096318   0.674642
     2  H    0.018052   0.474482
     3  H    0.122046  -0.279778
     4  H   -0.034917  -0.450060
     5  H   -0.008862   0.580713
     6  H   -0.008862   0.580713
     7  H   -0.034917  -0.450060
     8  H    0.122046  -0.279778
     9  H    0.018052   0.474482
    10  H   -0.096318   0.674642
 Sum of Mulliken charges =  -0.00000   2.00000

 Dipole moment (field-independent basis, Debye):
    X=              0.0000    Y=              0.0000    Z=              0.0000  Tot=              0.0000
 Quadrupole moment (field-independent basis, Debye-Ang):
   XX=            -15.8076   YY=            -18.5681   ZZ=            -12.8286
   XY=             -3.2911   XZ=             -0.0000   YZ=             -0.0000

 Normal termination of Gaussian 09 at Thu Feb 23 12:27:03 2017.
