 Gaussian 09, Revision E.01,
 Gaussian 09:  ES64L-G09RevE.01 30-Nov-2015

 ----------------------------------------------------------------------
 #uhf/gen scf(tight,novaracc,noincfock,fulldiag, ) stable(crhf) guess=r
 ead geom=nocrowd test
 ----------------------------------------------------------------------

 hf stability analysis of h10 triangular lattice, y= 0.9080427759821990
 7 alpha= 55.000000000000000
 ----------------------------------------------------------------------
 Symbolic Z-matrix:
 Charge =  0 Multiplicity = 3

                         Standard orientation:
 ---------------------------------------------------------------------
 Center     Atomic      Atomic             Coordinates (Angstroms)
 Number     Number       Type             X           Y           Z
 ---------------------------------------------------------------------
      1          1           0        2.083328    1.312527    0.000000
      2          1           0        2.083328    0.204012    0.000000
      3          1           0        1.041664    0.933392    0.000000
      4          1           0        1.041664   -0.175123    0.000000
      5          1           0       -0.000000    0.554258    0.000000
      6          1           0       -0.000000   -0.554258    0.000000
      7          1           0       -1.041664    0.175123    0.000000
      8          1           0       -1.041664   -0.933392    0.000000
      9          1           0       -2.083328   -0.204012    0.000000
     10          1           0       -2.083328   -1.312527    0.000000
 ---------------------------------------------------------------------

 SCF Done:  E(UHF) =  -4.90679145335     A.U. after   14 cycles
 E2 =    -0.7473621432D-01 EUMP2 =    -0.49815276676718D+01

 The electronic state is 3-BU.
 Alpha  occ. eigenvalues --   -0.89244  -0.80678  -0.58723  -0.46249  -0.35824
 Alpha  occ. eigenvalues --   -0.34276
 Alpha virt. eigenvalues --    0.16022   0.23574   0.47908   0.71035
  Beta  occ. eigenvalues --   -0.83418  -0.67032  -0.48974  -0.37559
  Beta virt. eigenvalues --    0.02178   0.03989   0.25854   0.35390   0.59487
  Beta virt. eigenvalues --    0.77625

 Mulliken charges and spin densities:
               1          2
     1  H    0.026510   0.431483
     2  H    0.019131   0.228629
     3  H    0.004032   0.228533
     4  H   -0.010419   0.302002
     5  H   -0.039253  -0.190646
     6  H   -0.039253  -0.190646
     7  H   -0.010419   0.302002
     8  H    0.004032   0.228533
     9  H    0.019131   0.228629
    10  H    0.026510   0.431483
 Sum of Mulliken charges =   0.00000   2.00000

 Dipole moment (field-independent basis, Debye):
    X=              0.0000    Y=              0.0000    Z=              0.0000  Tot=              0.0000
 Quadrupole moment (field-independent basis, Debye-Ang):
   XX=            -12.9620   YY=            -15.1106   ZZ=            -12.9122
   XY=              1.2159   XZ=              0.0000   YZ=              0.0000

 Normal termination of Gaussian 09 at Thu Feb 23 12:25:00 2017.
