 Gaussian 09, Revision E.01,
 Gaussian 09:  ES64L-G09RevE.01 30-Nov-2015

 ----------------------------------------------------------------------
 #uhf/gen scf(tight,novaracc,noincfock,fulldiag, ) stable(crhf) guess=r
 ead geom=nocrowd test
 ----------------------------------------------------------------------

 hf stability analysis of h10 triangular lattice, y= 0.4799368795303601
 3 alpha= 21.750000000000000
 ----------------------------------------------------------------------
 Symbolic Z-matrix:
 Charge =  0 Multiplicity = 3

                         Standard orientation:
 ---------------------------------------------------------------------
 Center     Atomic      Atomic             Coordinates (Angstroms)
 Number     Number       Type             X           Y           Z
 ---------------------------------------------------------------------
      1          1           0        1.783080   -1.231386   -0.000000
      2          1           0        1.783080   -2.526562   -0.000000
      3          1           0        0.891540   -0.291899   -0.000000
      4          1           0        0.891540   -1.587075   -0.000000
      5          1           0        0.000000    0.647588    0.000000
      6          1           0       -0.000000   -0.647588    0.000000
      7          1           0       -0.891540    1.587075   -0.000000
      8          1           0       -0.891540    0.291899    0.000000
      9          1           0       -1.783080    2.526562   -0.000000
     10          1           0       -1.783080    1.231386   -0.000000
 ---------------------------------------------------------------------

 SCF Done:  E(UHF) =  -4.87305824349     A.U. after   12 cycles
 E2 =    -0.4284066792D-01 EUMP2 =    -0.49158989114068D+01

 The electronic state is 3-BU.
 Alpha  occ. eigenvalues --   -0.84110  -0.75126  -0.62562  -0.44517  -0.32654
 Alpha  occ. eigenvalues --   -0.31280
 Alpha virt. eigenvalues --    0.17498   0.17574   0.34582   0.57197
  Beta  occ. eigenvalues --   -0.80531  -0.71561  -0.53316  -0.35731
  Beta virt. eigenvalues --    0.08073   0.17027   0.21570   0.28424   0.43529
  Beta virt. eigenvalues --    0.59780

 Mulliken charges and spin densities:
               1          2
     1  H    0.002605   0.461467
     2  H   -0.090259   0.733095
     3  H   -0.008824  -0.487533
     4  H    0.118056  -0.299129
     5  H   -0.021578   0.592100
     6  H   -0.021578   0.592100
     7  H    0.118056  -0.299129
     8  H   -0.008824  -0.487533
     9  H   -0.090259   0.733095
    10  H    0.002605   0.461467
 Sum of Mulliken charges =  -0.00000   2.00000

 Dipole moment (field-independent basis, Debye):
    X=             -0.0000    Y=             -0.0000    Z=              0.0000  Tot=              0.0000
 Quadrupole moment (field-independent basis, Debye-Ang):
   XX=            -15.7254   YY=            -18.9319   ZZ=            -12.7947
   XY=              3.6994   XZ=              0.0000   YZ=             -0.0000

 Normal termination of Gaussian 09 at Thu Feb 23 12:19:27 2017.
