 Gaussian 09, Revision E.01,
 Gaussian 09:  ES64L-G09RevE.01 30-Nov-2015

 ----------------------------------------------------------------------
 #uhf/gen scf(tight,novaracc,noincfock,fulldiag, ) stable(crhf) guess=r
 ead geom=nocrowd test
 ----------------------------------------------------------------------

 hf stability analysis of h10 triangular lattice, y= 0.8406196945607729
 0 alpha= 50.750000000000000
 ----------------------------------------------------------------------
 Symbolic Z-matrix:
 Charge =  0 Multiplicity = 3

                         Standard orientation:
 ---------------------------------------------------------------------
 Center     Atomic      Atomic             Coordinates (Angstroms)
 Number     Number       Type             X           Y           Z
 ---------------------------------------------------------------------
      1          1           0        2.127458    0.975597   -0.000000
      2          1           0        2.127458   -0.109924   -0.000000
      3          1           0        1.063729    0.759179   -0.000000
      4          1           0        1.063729   -0.326342   -0.000000
      5          1           0        0.000000    0.542761    0.000000
      6          1           0       -0.000000   -0.542761    0.000000
      7          1           0       -1.063729    0.326342   -0.000000
      8          1           0       -1.063729   -0.759179   -0.000000
      9          1           0       -2.127458    0.109924   -0.000000
     10          1           0       -2.127458   -0.975597   -0.000000
 ---------------------------------------------------------------------

 SCF Done:  E(UHF) =  -4.92030267812     A.U. after   12 cycles
 E2 =    -0.7290608073D-01 EUMP2 =    -0.49932087588434D+01

 The electronic state is 3-BU.
 Alpha  occ. eigenvalues --   -0.90100  -0.81344  -0.58094  -0.48074  -0.36202
 Alpha  occ. eigenvalues --   -0.35115
 Alpha virt. eigenvalues --    0.15148   0.28300   0.45503   0.82075
  Beta  occ. eigenvalues --   -0.84162  -0.66659  -0.49175  -0.39785
  Beta virt. eigenvalues --    0.03097   0.03958   0.23880   0.38906   0.59294
  Beta virt. eigenvalues --    0.88651

 Mulliken charges and spin densities:
               1          2
     1  H    0.023454   0.377810
     2  H    0.025330   0.226860
     3  H   -0.012383   0.308026
     4  H   -0.019785   0.357876
     5  H   -0.016616  -0.270572
     6  H   -0.016616  -0.270572
     7  H   -0.019785   0.357876
     8  H   -0.012383   0.308026
     9  H    0.025330   0.226860
    10  H    0.023454   0.377810
 Sum of Mulliken charges =  -0.00000   2.00000

 Dipole moment (field-independent basis, Debye):
    X=             -0.0000    Y=             -0.0000    Z=             -0.0000  Tot=              0.0000
 Quadrupole moment (field-independent basis, Debye-Ang):
   XX=            -13.1975   YY=            -15.3019   ZZ=            -12.8710
   XY=              0.5506   XZ=             -0.0000   YZ=              0.0000

 Normal termination of Gaussian 09 at Thu Feb 23 12:24:18 2017.
