 Gaussian 09, Revision E.01,
 Gaussian 09:  ES64L-G09RevE.01 30-Nov-2015

 ----------------------------------------------------------------------
 #uhf/gen scf(tight,novaracc,noincfock,fulldiag, ) stable(crhf) guess=r
 ead geom=nocrowd test
 ----------------------------------------------------------------------

 hf stability analysis of h10 triangular lattice, y= 0.4738346202814235
 9 alpha= 21.250000000000000
 ----------------------------------------------------------------------
 Symbolic Z-matrix:
 Charge =  0 Multiplicity = 3

                         Standard orientation:
 ---------------------------------------------------------------------
 Center     Atomic      Atomic             Coordinates (Angstroms)
 Number     Number       Type             X           Y           Z
 ---------------------------------------------------------------------
      1          1           0        1.766470   -1.274087    0.000000
      2          1           0        1.766470   -2.581441    0.000000
      3          1           0        0.883235   -0.310205    0.000000
      4          1           0        0.883235   -1.617559    0.000000
      5          1           0        0.000000    0.653677   -0.000000
      6          1           0       -0.000000   -0.653677   -0.000000
      7          1           0       -0.883235    1.617559    0.000000
      8          1           0       -0.883235    0.310205    0.000000
      9          1           0       -1.766470    2.581441    0.000000
     10          1           0       -1.766470    1.274087    0.000000
 ---------------------------------------------------------------------

 SCF Done:  E(UHF) =  -4.88002650879     A.U. after   12 cycles
 E2 =    -0.4142042023D-01 EUMP2 =    -0.49214469290184D+01

 The electronic state is 3-BU.
 Alpha  occ. eigenvalues --   -0.83572  -0.74814  -0.62604  -0.45095  -0.31971
 Alpha  occ. eigenvalues --   -0.31857
 Alpha virt. eigenvalues --    0.17004   0.18280   0.34868   0.57697
  Beta  occ. eigenvalues --   -0.80300  -0.71480  -0.53566  -0.36218
  Beta virt. eigenvalues --    0.08829   0.17815   0.21602   0.27801   0.43661
  Beta virt. eigenvalues --    0.59980

 Mulliken charges and spin densities:
               1          2
     1  H   -0.005350   0.453505
     2  H   -0.086684   0.760355
     3  H    0.004082  -0.502488
     4  H    0.115430  -0.305146
     5  H   -0.027478   0.593775
     6  H   -0.027478   0.593775
     7  H    0.115430  -0.305146
     8  H    0.004082  -0.502488
     9  H   -0.086684   0.760355
    10  H   -0.005350   0.453505
 Sum of Mulliken charges =   0.00000   2.00000

 Dipole moment (field-independent basis, Debye):
    X=              0.0000    Y=             -0.0000    Z=             -0.0000  Tot=              0.0000
 Quadrupole moment (field-independent basis, Debye-Ang):
   XX=            -15.6616   YY=            -19.1253   ZZ=            -12.7758
   XY=              3.9114   XZ=              0.0000   YZ=             -0.0000

 Normal termination of Gaussian 09 at Thu Feb 23 12:19:22 2017.
