 Gaussian 09, Revision E.01,
 Gaussian 09:  ES64L-G09RevE.01 30-Nov-2015

 ----------------------------------------------------------------------
 #uhf/gen scf(tight,novaracc,noincfock,fulldiag, ) stable(crhf) guess=r
 ead geom=nocrowd test
 ----------------------------------------------------------------------

 hf stability analysis of h10 triangular lattice, y= 1.6845675376176648
  alpha= 78.500000000000000
 ----------------------------------------------------------------------
 Symbolic Z-matrix:
 Charge =  0 Multiplicity = 3

                         Standard orientation:
 ---------------------------------------------------------------------
 Center     Atomic      Atomic             Coordinates (Angstroms)
 Number     Number       Type             X           Y           Z
 ---------------------------------------------------------------------
      1          1           0        1.343395    4.024380    0.000000
      2          1           0        1.343395    2.305301    0.000000
      3          1           0        0.671697    2.441959    0.000000
      4          1           0        0.671697    0.722881    0.000000
      5          1           0        0.000000    0.859539    0.000000
      6          1           0       -0.000000   -0.859539    0.000000
      7          1           0       -0.671697   -0.722881    0.000000
      8          1           0       -0.671697   -2.441959    0.000000
      9          1           0       -1.343395   -2.305301    0.000000
     10          1           0       -1.343395   -4.024380    0.000000
 ---------------------------------------------------------------------

 SCF Done:  E(UHF) =  -5.19856516433     A.U. after    9 cycles
 E2 =    -0.4191567023D-01 EUMP2 =    -0.52404808345588D+01

 The electronic state is 3-BU.
 Alpha  occ. eigenvalues --   -0.74275  -0.70595  -0.64088  -0.55615  -0.45527
 Alpha  occ. eigenvalues --   -0.44198
 Alpha virt. eigenvalues --    0.29761   0.38715   0.52502   0.66348
  Beta  occ. eigenvalues --   -0.73636  -0.68768  -0.61173  -0.52682
  Beta virt. eigenvalues --    0.16483   0.16672   0.30008   0.39234   0.53039
  Beta virt. eigenvalues --    0.66618

 Mulliken charges and spin densities:
               1          2
     1  H   -0.002044   0.997737
     2  H   -0.003594   0.003466
     3  H    0.003909  -0.002965
     4  H    0.000024  -0.001967
     5  H    0.001704   0.003729
     6  H    0.001704   0.003729
     7  H    0.000024  -0.001967
     8  H    0.003909  -0.002965
     9  H   -0.003594   0.003466
    10  H   -0.002044   0.997737
 Sum of Mulliken charges =  -0.00000   2.00000

 Dipole moment (field-independent basis, Debye):
    X=              0.0000    Y=              0.0000    Z=              0.0000  Tot=              0.0000
 Quadrupole moment (field-independent basis, Debye-Ang):
   XX=            -12.1675   YY=            -17.7818   ZZ=            -12.9684
   XY=             -2.0843   XZ=              0.0000   YZ=              0.0000

 Normal termination of Gaussian 09 at Thu Feb 23 12:28:54 2017.
