 Gaussian 09, Revision E.01,
 Gaussian 09:  ES64L-G09RevE.01 30-Nov-2015

 ----------------------------------------------------------------------
 #uhf/gen scf(tight,novaracc,noincfock,fulldiag, ) stable(crhf) guess=r
 ead geom=nocrowd test
 ----------------------------------------------------------------------

 hf stability analysis of h10 triangular lattice, y= 1.4307794800386300
  alpha= 74.250000000000000
 ----------------------------------------------------------------------
 Symbolic Z-matrix:
 Charge =  0 Multiplicity = 3

                         Standard orientation:
 ---------------------------------------------------------------------
 Center     Atomic      Atomic             Coordinates (Angstroms)
 Number     Number       Type             X           Y           Z
 ---------------------------------------------------------------------
      1          1           0        1.553486    3.278355    0.000000
      2          1           0        1.553486    1.791762    0.000000
      3          1           0        0.776743    2.010826    0.000000
      4          1           0        0.776743    0.524232    0.000000
      5          1           0        0.000000    0.743297    0.000000
      6          1           0       -0.000000   -0.743297    0.000000
      7          1           0       -0.776743   -0.524232    0.000000
      8          1           0       -0.776743   -2.010826    0.000000
      9          1           0       -1.553486   -1.791762    0.000000
     10          1           0       -1.553486   -3.278355    0.000000
 ---------------------------------------------------------------------

 SCF Done:  E(UHF) =  -5.07801788280     A.U. after   11 cycles
 E2 =    -0.5403988575D-01 EUMP2 =    -0.51320577685433D+01

 The electronic state is 3-BU.
 Alpha  occ. eigenvalues --   -0.76980  -0.71598  -0.62447  -0.50657  -0.39308
 Alpha  occ. eigenvalues --   -0.33584
 Alpha virt. eigenvalues --    0.17688   0.28559   0.45333   0.62762
  Beta  occ. eigenvalues --   -0.75742  -0.68384  -0.56350  -0.41693
  Beta virt. eigenvalues --    0.17702   0.19991   0.21914   0.29721   0.46985
  Beta virt. eigenvalues --    0.63712

 Mulliken charges and spin densities:
               1          2
     1  H   -0.041037   0.955723
     2  H   -0.011327   0.066713
     3  H    0.040142  -0.034154
     4  H    0.009291  -0.049584
     5  H    0.002932   0.061302
     6  H    0.002932   0.061302
     7  H    0.009291  -0.049584
     8  H    0.040142  -0.034154
     9  H   -0.011327   0.066713
    10  H   -0.041037   0.955723
 Sum of Mulliken charges =  -0.00000   2.00000

 Dipole moment (field-independent basis, Debye):
    X=              0.0000    Y=              0.0000    Z=             -0.0000  Tot=              0.0000
 Quadrupole moment (field-independent basis, Debye-Ang):
   XX=            -13.2786   YY=            -20.7986   ZZ=            -12.6827
   XY=             -4.8678   XZ=             -0.0000   YZ=             -0.0000

 Normal termination of Gaussian 09 at Thu Feb 23 12:28:13 2017.
