 Gaussian 09, Revision E.01,
 Gaussian 09:  ES64L-G09RevE.01 30-Nov-2015

 ----------------------------------------------------------------------
 #uhf/gen scf(tight,novaracc,noincfock,fulldiag, ) stable(crhf) guess=r
 ead geom=nocrowd test
 ----------------------------------------------------------------------

 hf stability analysis of h10 triangular lattice, y= 1.2768661018621295
  alpha= 70.500000000000000
 ----------------------------------------------------------------------
 Symbolic Z-matrix:
 Charge =  0 Multiplicity = 3

                         Standard orientation:
 ---------------------------------------------------------------------
 Center     Atomic      Atomic             Coordinates (Angstroms)
 Number     Number       Type             X           Y           Z
 ---------------------------------------------------------------------
      1          1           0        1.704907    2.782665    0.000000
      2          1           0        1.704907    1.428103    0.000000
      3          1           0        0.852453    1.729973    0.000000
      4          1           0        0.852453    0.375411    0.000000
      5          1           0        0.000000    0.677281    0.000000
      6          1           0       -0.000000   -0.677281    0.000000
      7          1           0       -0.852453   -0.375411   -0.000000
      8          1           0       -0.852453   -1.729973   -0.000000
      9          1           0       -1.704907   -1.428103   -0.000000
     10          1           0       -1.704907   -2.782665   -0.000000
 ---------------------------------------------------------------------

 SCF Done:  E(UHF) =  -4.91712878401     A.U. after   12 cycles
 E2 =    -0.4048130909D-01 EUMP2 =    -0.49576100930951D+01

 The electronic state is 3-BU.
 Alpha  occ. eigenvalues --   -0.81501  -0.73687  -0.62669  -0.47102  -0.34158
 Alpha  occ. eigenvalues --   -0.30204
 Alpha virt. eigenvalues --    0.15319   0.21397   0.37154   0.59333
  Beta  occ. eigenvalues --   -0.79236  -0.70821  -0.54310  -0.37800
  Beta virt. eigenvalues --    0.11490   0.20408   0.22275   0.25773   0.44536
  Beta virt. eigenvalues --    0.60866

 Mulliken charges and spin densities:
               1          2
     1  H   -0.075284   0.844845
     2  H   -0.028075   0.403262
     3  H    0.102707  -0.296572
     4  H    0.039193  -0.509110
     5  H   -0.038541   0.557574
     6  H   -0.038541   0.557574
     7  H    0.039193  -0.509110
     8  H    0.102707  -0.296572
     9  H   -0.028075   0.403262
    10  H   -0.075284   0.844845
 Sum of Mulliken charges =  -0.00000   2.00000

 Dipole moment (field-independent basis, Debye):
    X=              0.0000    Y=              0.0000    Z=              0.0000  Tot=              0.0000
 Quadrupole moment (field-independent basis, Debye-Ang):
   XX=            -15.2925   YY=            -20.0452   ZZ=            -12.7000
   XY=             -4.8102   XZ=             -0.0000   YZ=             -0.0000

 Normal termination of Gaussian 09 at Thu Feb 23 12:27:36 2017.
