 Gaussian 09, Revision E.01,
 Gaussian 09:  ES64L-G09RevE.01 30-Nov-2015

 ----------------------------------------------------------------------
 #rhf/gen scf(symm,tight,novaracc,noincfock,fulldiag) stable(crhf) gues
 s=read geom=nocrowd test
 ----------------------------------------------------------------------

 hf stability analysis of h12 triangular lattice, y= 0.6358183901871248
 3 alpha= 35.000000000000000
 ----------------------------------------------------------------------
 Symbolic Z-matrix:
 Charge =  0 Multiplicity = 1

                         Standard orientation:
 ---------------------------------------------------------------------
 Center     Atomic      Atomic             Coordinates (Angstroms)
 Number     Number       Type             X           Y           Z
 ---------------------------------------------------------------------
      1          1           0        3.124992   -0.583146   -0.000000
      2          1           0        3.124992   -1.691662   -0.000000
      3          1           0        2.083328   -0.204012   -0.000000
      4          1           0        2.083328   -1.312527   -0.000000
      5          1           0        1.041664    0.175123   -0.000000
      6          1           0        1.041664   -0.933392   -0.000000
      7          1           0        0.000000    0.554258   -0.000000
      8          1           0       -0.000000   -0.554258    0.000000
      9          1           0       -1.041664    0.933392   -0.000000
     10          1           0       -1.041664   -0.175123    0.000000
     11          1           0       -2.083328    1.312527   -0.000000
     12          1           0       -2.083328    0.204012   -0.000000
     13          1           0       -3.124992    1.691662   -0.000000
     14          1           0       -3.124992    0.583146   -0.000000
 ---------------------------------------------------------------------

 SCF Done:  E(RHF) =  -6.88059202185     A.U. after   10 cycles
 E2 =    -0.1587676205D+00 EUMP2 =    -0.70393596423481D+01

 The electronic state is 1-AG.
 Alpha  occ. eigenvalues --   -0.88331  -0.81542  -0.70557  -0.54856  -0.43030
 Alpha  occ. eigenvalues --   -0.35743  -0.32883
 Alpha virt. eigenvalues --   -0.00557   0.11133   0.19130   0.42405   0.43005
 Alpha virt. eigenvalues --    0.67418   0.80523

 Mulliken charges:
               1
     1  H    0.052338
     2  H    0.008788
     3  H   -0.101350
     4  H    0.052961
     5  H    0.096203
     6  H   -0.116219
     7  H    0.007279
     8  H    0.007279
     9  H   -0.116219
    10  H    0.096203
    11  H    0.052961
    12  H   -0.101350
    13  H    0.008788
    14  H    0.052338
 Sum of Mulliken charges =  -0.00000

 Dipole moment (field-independent basis, Debye):
    X=              0.0000    Y=              0.0000    Z=             -0.0000  Tot=              0.0000
 Quadrupole moment (field-independent basis, Debye-Ang):
   XX=            -17.8376   YY=            -21.1704   ZZ=            -18.0730
   XY=             -1.3065   XZ=             -0.0000   YZ=              0.0000

 Normal termination of Gaussian 09 at Wed Feb 15 12:32:03 2017.
