 Gaussian 09, Revision E.01,
 Gaussian 09:  ES64L-G09RevE.01 30-Nov-2015

 ----------------------------------------------------------------------
 #rhf/gen scf(symm,tight,novaracc,noincfock,fulldiag) stable(crhf) gues
 s=read geom=nocrowd test
 ----------------------------------------------------------------------

 hf stability analysis of h12 triangular lattice, y= 0.4201353311163031
 9 alpha= 17.000000000000000
 ----------------------------------------------------------------------
 Symbolic Z-matrix:
 Charge =  0 Multiplicity = 1

                         Standard orientation:
 ---------------------------------------------------------------------
 Center     Atomic      Atomic             Coordinates (Angstroms)
 Number     Number       Type             X           Y           Z
 ---------------------------------------------------------------------
      1          1           0        2.410664   -2.855462   -0.000000
      2          1           0        2.410664   -4.292452   -0.000000
      3          1           0        1.607110   -1.664143   -0.000000
      4          1           0        1.607110   -3.101133   -0.000000
      5          1           0        0.803555   -0.472824   -0.000000
      6          1           0        0.803555   -1.909814   -0.000000
      7          1           0        0.000000    0.718495    0.000000
      8          1           0       -0.000000   -0.718495    0.000000
      9          1           0       -0.803555    1.909814   -0.000000
     10          1           0       -0.803555    0.472824   -0.000000
     11          1           0       -1.607110    3.101133   -0.000000
     12          1           0       -1.607110    1.664143   -0.000000
     13          1           0       -2.410664    4.292452   -0.000000
     14          1           0       -2.410664    2.855462   -0.000000
 ---------------------------------------------------------------------

 SCF Done:  E(RHF) =  -6.76978049501     A.U. after    8 cycles
 E2 =    -0.4835103819D+00 EUMP2 =    -0.72532908768967D+01

 The electronic state is 1-AG.
 Alpha  occ. eigenvalues --   -0.79736  -0.76156  -0.69433  -0.60295  -0.49122
 Alpha  occ. eigenvalues --   -0.36109  -0.09093
 Alpha virt. eigenvalues --   -0.02041   0.11613   0.17722   0.28117   0.41113
 Alpha virt. eigenvalues --    0.54502   0.64682

 Mulliken charges:
               1
     1  H    0.020922
     2  H   -0.184662
     3  H    0.021566
     4  H    0.095554
     5  H    0.012402
     6  H    0.012607
     7  H    0.021611
     8  H    0.021611
     9  H    0.012607
    10  H    0.012402
    11  H    0.095554
    12  H    0.021566
    13  H   -0.184662
    14  H    0.020922
 Sum of Mulliken charges =  -0.00000

 Dipole moment (field-independent basis, Debye):
    X=             -0.0000    Y=              0.0000    Z=              0.0000  Tot=              0.0000
 Quadrupole moment (field-independent basis, Debye-Ang):
   XX=            -23.8655   YY=            -45.8678   ZZ=            -17.6845
   XY=             16.8205   XZ=              0.0000   YZ=             -0.0000

 Normal termination of Gaussian 09 at Wed Feb 15 12:28:44 2017.
