 Gaussian 09, Revision E.01,
 Gaussian 09:  ES64L-G09RevE.01 30-Nov-2015

 ----------------------------------------------------------------------
 #rhf/gen scf(symm,tight,novaracc,noincfock,fulldiag) stable(crhf) gues
 s=read geom=nocrowd test
 ----------------------------------------------------------------------

 hf stability analysis of h12 triangular lattice, y= 1.2594669489559134
  alpha= 70.000000000000000
 ----------------------------------------------------------------------
 Symbolic Z-matrix:
 Charge =  0 Multiplicity = 1

                         Standard orientation:
 ---------------------------------------------------------------------
 Center     Atomic      Atomic             Coordinates (Angstroms)
 Number     Number       Type             X           Y           Z
 ---------------------------------------------------------------------
      1          1           0        2.584578    3.750329   -0.000000
      2          1           0        2.584578    2.410032   -0.000000
      3          1           0        1.723052    2.723602   -0.000000
      4          1           0        1.723052    1.383305   -0.000000
      5          1           0        0.861526    1.696875   -0.000000
      6          1           0        0.861526    0.356578   -0.000000
      7          1           0       -0.000000    0.670148   -0.000000
      8          1           0       -0.000000   -0.670148   -0.000000
      9          1           0       -0.861526   -0.356578   -0.000000
     10          1           0       -0.861526   -1.696875   -0.000000
     11          1           0       -1.723052   -1.383305   -0.000000
     12          1           0       -1.723052   -2.723602   -0.000000
     13          1           0       -2.584578   -2.410032   -0.000000
     14          1           0       -2.584578   -3.750329   -0.000000
 ---------------------------------------------------------------------

 SCF Done:  E(RHF) =  -6.59711856148     A.U. after   12 cycles
 E2 =    -0.2348904763D+00 EUMP2 =    -0.68320090377284D+01

 The electronic state is 1-AG.
 Alpha  occ. eigenvalues --   -0.82280  -0.77120  -0.70051  -0.58844  -0.44086
 Alpha  occ. eigenvalues --   -0.28659  -0.09899
 Alpha virt. eigenvalues --   -0.00420   0.09451   0.12912   0.23012   0.36569
 Alpha virt. eigenvalues --    0.52695   0.62520

 Mulliken charges:
               1
     1  H   -0.149200
     2  H   -0.026787
     3  H    0.180435
     4  H   -0.037670
     5  H   -0.088355
     6  H    0.074309
     7  H    0.047269
     8  H    0.047269
     9  H    0.074309
    10  H   -0.088355
    11  H   -0.037670
    12  H    0.180435
    13  H   -0.026787
    14  H   -0.149200
 Sum of Mulliken charges =   0.00000

 Dipole moment (field-independent basis, Debye):
    X=             -0.0000    Y=             -0.0000    Z=              0.0000  Tot=              0.0000
 Quadrupole moment (field-independent basis, Debye-Ang):
   XX=            -26.8788   YY=            -34.6822   ZZ=            -17.8111
   XY=            -13.0458   XZ=              0.0000   YZ=              0.0000

 Normal termination of Gaussian 09 at Wed Feb 15 12:38:34 2017.
