 Gaussian 09, Revision E.01,
 Gaussian 09:  ES64L-G09RevE.01 30-Nov-2015

 ----------------------------------------------------------------------
 #rhf/gen scf(symm,tight,novaracc,noincfock,fulldiag) stable(crhf) gues
 s=read geom=nocrowd test
 ----------------------------------------------------------------------

 hf stability analysis of h12 triangular lattice, y= 0.3933198989211816
 9 alpha= 15.000000000000000
 ----------------------------------------------------------------------
 Symbolic Z-matrix:
 Charge =  0 Multiplicity = 1

                         Standard orientation:
 ---------------------------------------------------------------------
 Center     Atomic      Atomic             Coordinates (Angstroms)
 Number     Number       Type             X           Y           Z
 ---------------------------------------------------------------------
      1          1           0        2.279507   -3.188386   -0.000000
      2          1           0        2.279507   -4.708058   -0.000000
      3          1           0        1.519671   -1.872312   -0.000000
      4          1           0        1.519671   -3.391984   -0.000000
      5          1           0        0.759836   -0.556238   -0.000000
      6          1           0        0.759836   -2.075910   -0.000000
      7          1           0        0.000000    0.759836    0.000000
      8          1           0       -0.000000   -0.759836    0.000000
      9          1           0       -0.759836    2.075910   -0.000000
     10          1           0       -0.759836    0.556238   -0.000000
     11          1           0       -1.519671    3.391984   -0.000000
     12          1           0       -1.519671    1.872312   -0.000000
     13          1           0       -2.279507    4.708058   -0.000000
     14          1           0       -2.279507    3.188386   -0.000000
 ---------------------------------------------------------------------

 SCF Done:  E(RHF) =  -6.89804245063     A.U. after    8 cycles
 E2 =    -0.6654331242D+00 EUMP2 =    -0.75634755748656D+01

 The electronic state is 1-AG.
 Alpha  occ. eigenvalues --   -0.77451  -0.74615  -0.68822  -0.61061  -0.51657
 Alpha  occ. eigenvalues --   -0.40982  -0.12024
 Alpha virt. eigenvalues --   -0.06235   0.17339   0.22709   0.32333   0.44429
 Alpha virt. eigenvalues --    0.56921   0.66943

 Mulliken charges:
               1
     1  H    0.023833
     2  H   -0.119760
     3  H    0.009275
     4  H    0.057556
     5  H    0.004367
     6  H    0.015915
     7  H    0.008814
     8  H    0.008814
     9  H    0.015915
    10  H    0.004367
    11  H    0.057556
    12  H    0.009275
    13  H   -0.119760
    14  H    0.023833
 Sum of Mulliken charges =  -0.00000

 Dipole moment (field-independent basis, Debye):
    X=              0.0000    Y=             -0.0000    Z=              0.0000  Tot=              0.0000
 Quadrupole moment (field-independent basis, Debye-Ang):
   XX=            -20.4456   YY=            -40.8410   ZZ=            -17.8138
   XY=             11.8616   XZ=             -0.0000   YZ=              0.0000

 Normal termination of Gaussian 09 at Wed Feb 15 12:28:23 2017.
