 Gaussian 09, Revision E.01,
 Gaussian 09:  ES64L-G09RevE.01 30-Nov-2015

 ----------------------------------------------------------------------
 #rhf/gen scf(symm,tight,novaracc,noincfock,fulldiag) stable(crhf) gues
 s=read geom=nocrowd test
 ----------------------------------------------------------------------

 hf stability analysis of h12 triangular lattice, y= 0.8149635215757493
 6 alpha= 49.000000000000000
 ----------------------------------------------------------------------
 Symbolic Z-matrix:
 Charge =  0 Multiplicity = 1

                         Standard orientation:
 ---------------------------------------------------------------------
 Center     Atomic      Atomic             Coordinates (Angstroms)
 Number     Number       Type             X           Y           Z
 ---------------------------------------------------------------------
      1          1           0        3.207985    0.990772   -0.000000
      2          1           0        3.207985   -0.089066    0.000000
      3          1           0        2.138657    0.840487   -0.000000
      4          1           0        2.138657   -0.239350    0.000000
      5          1           0        1.069328    0.690203   -0.000000
      6          1           0        1.069328   -0.389634    0.000000
      7          1           0        0.000000    0.539919   -0.000000
      8          1           0       -0.000000   -0.539919   -0.000000
      9          1           0       -1.069328    0.389634    0.000000
     10          1           0       -1.069328   -0.690203   -0.000000
     11          1           0       -2.138657    0.239350    0.000000
     12          1           0       -2.138657   -0.840487   -0.000000
     13          1           0       -3.207985    0.089066   -0.000000
     14          1           0       -3.207985   -0.990772   -0.000000
 ---------------------------------------------------------------------

 SCF Done:  E(RHF) =  -6.89621820447     A.U. after    9 cycles
 E2 =    -0.1577819162D+00 EUMP2 =    -0.70540001206234D+01

 The electronic state is 1-AG.
 Alpha  occ. eigenvalues --   -0.89252  -0.82357  -0.70494  -0.54465  -0.45646
 Alpha  occ. eigenvalues --   -0.36106  -0.34179
 Alpha virt. eigenvalues --   -0.01487   0.14017   0.18481   0.42338   0.44878
 Alpha virt. eigenvalues --    0.71608   0.96447

 Mulliken charges:
               1
     1  H    0.008919
     2  H    0.038263
     3  H    0.009873
     4  H   -0.060256
     5  H   -0.043587
     6  H    0.049011
     7  H   -0.002223
     8  H   -0.002223
     9  H    0.049011
    10  H   -0.043587
    11  H   -0.060256
    12  H    0.009873
    13  H    0.038263
    14  H    0.008919
 Sum of Mulliken charges =  -0.00000

 Dipole moment (field-independent basis, Debye):
    X=             -0.0000    Y=             -0.0000    Z=              0.0000  Tot=              0.0000
 Quadrupole moment (field-independent basis, Debye-Ang):
   XX=            -19.2312   YY=            -21.2990   ZZ=            -17.9942
   XY=              0.1204   XZ=             -0.0000   YZ=              0.0000

 Normal termination of Gaussian 09 at Wed Feb 15 12:34:38 2017.
