 Gaussian 09, Revision E.01,
 Gaussian 09:  ES64L-G09RevE.01 30-Nov-2015

 ----------------------------------------------------------------------
 #rhf/gen scf(symm,tight,novaracc,noincfock,fulldiag) stable(crhf) gues
 s=read geom=nocrowd test
 ----------------------------------------------------------------------

 hf stability analysis of h12 triangular lattice, y= 0.6240414150047446
 4 alpha= 34.000000000000000
 ----------------------------------------------------------------------
 Symbolic Z-matrix:
 Charge =  0 Multiplicity = 1

                         Standard orientation:
 ---------------------------------------------------------------------
 Center     Atomic      Atomic             Coordinates (Angstroms)
 Number     Number       Type             X           Y           Z
 ---------------------------------------------------------------------
      1          1           0        3.104123   -0.696163   -0.000000
      2          1           0        3.104123   -1.812131    0.000000
      3          1           0        2.069415   -0.278114   -0.000000
      4          1           0        2.069415   -1.394082    0.000000
      5          1           0        1.034708    0.139935   -0.000000
      6          1           0        1.034708   -0.976033    0.000000
      7          1           0        0.000000    0.557984   -0.000000
      8          1           0       -0.000000   -0.557984   -0.000000
      9          1           0       -1.034708    0.976033   -0.000000
     10          1           0       -1.034708   -0.139935   -0.000000
     11          1           0       -2.069415    1.394082   -0.000000
     12          1           0       -2.069415    0.278114   -0.000000
     13          1           0       -3.104123    1.812131   -0.000000
     14          1           0       -3.104123    0.696163   -0.000000
 ---------------------------------------------------------------------

 SCF Done:  E(RHF) =  -6.87455215488     A.U. after   10 cycles
 E2 =    -0.1592743028D+00 EUMP2 =    -0.70338264576592D+01

 The electronic state is 1-AG.
 Alpha  occ. eigenvalues --   -0.88084  -0.81326  -0.70552  -0.54939  -0.42357
 Alpha  occ. eigenvalues --   -0.35898  -0.32280
 Alpha virt. eigenvalues --   -0.00352   0.10510   0.19243   0.41663   0.43097
 Alpha virt. eigenvalues --    0.66738   0.77192

 Mulliken charges:
               1
     1  H    0.052355
     2  H    0.012132
     3  H   -0.106317
     4  H    0.058317
     5  H    0.101784
     6  H   -0.127295
     7  H    0.009023
     8  H    0.009023
     9  H   -0.127295
    10  H    0.101784
    11  H    0.058317
    12  H   -0.106317
    13  H    0.012132
    14  H    0.052355
 Sum of Mulliken charges =  -0.00000

 Dipole moment (field-independent basis, Debye):
    X=             -0.0000    Y=              0.0000    Z=             -0.0000  Tot=              0.0000
 Quadrupole moment (field-independent basis, Debye-Ang):
   XX=            -17.5364   YY=            -21.0065   ZZ=            -18.0917
   XY=             -1.6968   XZ=              0.0000   YZ=              0.0000

 Normal termination of Gaussian 09 at Wed Feb 15 12:31:52 2017.
