 Gaussian 09, Revision E.01,
 Gaussian 09:  ES64L-G09RevE.01 30-Nov-2015

 ----------------------------------------------------------------------
 #rhf/gen scf(symm,tight,novaracc,noincfock,fulldiag) stable(crhf) gues
 s=read geom=nocrowd test
 ----------------------------------------------------------------------

 hf stability analysis of h12 triangular lattice, y= 1.5813852119866876
  alpha= 77.000000000000000
 ----------------------------------------------------------------------
 Symbolic Z-matrix:
 Charge =  0 Multiplicity = 1

                         Standard orientation:
 ---------------------------------------------------------------------
 Center     Atomic      Atomic             Coordinates (Angstroms)
 Number     Number       Type             X           Y           Z
 ---------------------------------------------------------------------
      1          1           0        2.134406    5.187671   -0.000000
      2          1           0        2.134406    3.564689   -0.000000
      3          1           0        1.422937    3.728944   -0.000000
      4          1           0        1.422937    2.105962   -0.000000
      5          1           0        0.711469    2.270218   -0.000000
      6          1           0        0.711469    0.647236   -0.000000
      7          1           0        0.000000    0.811491    0.000000
      8          1           0       -0.000000   -0.811491    0.000000
      9          1           0       -0.711469   -0.647236    0.000000
     10          1           0       -0.711469   -2.270218    0.000000
     11          1           0       -1.422937   -2.105962    0.000000
     12          1           0       -1.422937   -3.728944    0.000000
     13          1           0       -2.134406   -3.564689    0.000000
     14          1           0       -2.134406   -5.187671    0.000000
 ---------------------------------------------------------------------

 SCF Done:  E(RHF) =  -6.98844214851     A.U. after    7 cycles
 E2 =    -0.8356087418D+00 EUMP2 =    -0.78240508902709D+01

 The electronic state is 1-AG.
 Alpha  occ. eigenvalues --   -0.75654  -0.73363  -0.68588  -0.62211  -0.54626
 Alpha  occ. eigenvalues --   -0.46467  -0.14849
 Alpha virt. eigenvalues --   -0.09857   0.23429   0.28241   0.36936   0.47927
 Alpha virt. eigenvalues --    0.59302   0.68575

 Mulliken charges:
               1
     1  H   -0.064477
     2  H    0.017028
     3  H    0.031803
     4  H    0.002432
     5  H    0.009348
     6  H    0.000902
     7  H    0.002963
     8  H    0.002963
     9  H    0.000902
    10  H    0.009348
    11  H    0.002432
    12  H    0.031803
    13  H    0.017028
    14  H   -0.064477
 Sum of Mulliken charges =  -0.00000

 Dipole moment (field-independent basis, Debye):
    X=              0.0000    Y=              0.0000    Z=              0.0000  Tot=              0.0000
 Quadrupole moment (field-independent basis, Debye-Ang):
   XX=            -18.3223   YY=            -34.7269   ZZ=            -17.9927
   XY=             -7.4262   XZ=              0.0000   YZ=              0.0000

 Normal termination of Gaussian 09 at Wed Feb 15 12:39:46 2017.
