 Gaussian 09, Revision E.01,
 Gaussian 09:  ES64L-G09RevE.01 30-Nov-2015

 ----------------------------------------------------------------------
 #rhf/gen scf(symm,tight,novaracc,noincfock,fulldiag) stable(crhf) gues
 s=read geom=nocrowd test
 ----------------------------------------------------------------------

 hf stability analysis of h12 triangular lattice, y= 0.8596363675198261
 9 alpha= 52.000000000000000
 ----------------------------------------------------------------------
 Symbolic Z-matrix:
 Charge =  0 Multiplicity = 1

                         Standard orientation:
 ---------------------------------------------------------------------
 Center     Atomic      Atomic             Coordinates (Angstroms)
 Number     Number       Type             X           Y           Z
 ---------------------------------------------------------------------
      1          1           0        3.175470    1.337181    0.000000
      2          1           0        3.175470    0.246286    0.000000
      3          1           0        2.116980    1.073269    0.000000
      4          1           0        2.116980   -0.017625    0.000000
      5          1           0        1.058490    0.809358    0.000000
      6          1           0        1.058490   -0.281536    0.000000
      7          1           0        0.000000    0.545447    0.000000
      8          1           0       -0.000000   -0.545447    0.000000
      9          1           0       -1.058490    0.281536    0.000000
     10          1           0       -1.058490   -0.809358    0.000000
     11          1           0       -2.116980    0.017625    0.000000
     12          1           0       -2.116980   -1.073269    0.000000
     13          1           0       -3.175470   -0.246286    0.000000
     14          1           0       -3.175470   -1.337181    0.000000
 ---------------------------------------------------------------------

 SCF Done:  E(RHF) =  -6.89169940779     A.U. after   10 cycles
 E2 =    -0.1579581921D+00 EUMP2 =    -0.70496575999087D+01

 The electronic state is 1-AG.
 Alpha  occ. eigenvalues --   -0.88904  -0.82046  -0.70535  -0.54631  -0.44631
 Alpha  occ. eigenvalues --   -0.35629  -0.34030
 Alpha virt. eigenvalues --   -0.01112   0.12816   0.18768   0.42648   0.44021
 Alpha virt. eigenvalues --    0.69655   0.89646

 Mulliken charges:
               1
     1  H    0.004924
     2  H    0.047803
     3  H    0.033568
     4  H   -0.083030
     5  H   -0.080888
     6  H    0.075578
     7  H    0.002045
     8  H    0.002045
     9  H    0.075578
    10  H   -0.080888
    11  H   -0.083030
    12  H    0.033568
    13  H    0.047803
    14  H    0.004924
 Sum of Mulliken charges =  -0.00000

 Dipole moment (field-independent basis, Debye):
    X=              0.0000    Y=             -0.0000    Z=              0.0000  Tot=              0.0000
 Quadrupole moment (field-independent basis, Debye-Ang):
   XX=            -18.6477   YY=            -21.3500   ZZ=            -18.0259
   XY=              0.4955   XZ=              0.0000   YZ=             -0.0000

 Normal termination of Gaussian 09 at Wed Feb 15 12:35:14 2017.
