 Gaussian 09, Revision E.01,
 Gaussian 09:  ES64L-G09RevE.01 30-Nov-2015

 ----------------------------------------------------------------------
 #rhf/gen scf(symm,tight,novaracc,noincfock,fulldiag) stable(crhf) gues
 s=read geom=nocrowd test
 ----------------------------------------------------------------------

 hf stability analysis of h12 triangular lattice, y= 0.5540600992415728
 5 alpha= 28.000000000000000
 ----------------------------------------------------------------------
 Symbolic Z-matrix:
 Charge =  0 Multiplicity = 1

                         Standard orientation:
 ---------------------------------------------------------------------
 Center     Atomic      Atomic             Coordinates (Angstroms)
 Number     Number       Type             X           Y           Z
 ---------------------------------------------------------------------
      1          1           0        2.935236   -1.389753    0.000000
      2          1           0        2.935236   -2.569931    0.000000
      3          1           0        1.956824   -0.729805    0.000000
      4          1           0        1.956824   -1.909984    0.000000
      5          1           0        0.978412   -0.069858    0.000000
      6          1           0        0.978412   -1.250036    0.000000
      7          1           0       -0.000000    0.590089    0.000000
      8          1           0       -0.000000   -0.590089   -0.000000
      9          1           0       -0.978412    1.250036    0.000000
     10          1           0       -0.978412    0.069858   -0.000000
     11          1           0       -1.956824    1.909984    0.000000
     12          1           0       -1.956824    0.729805   -0.000000
     13          1           0       -2.935236    2.569931    0.000000
     14          1           0       -2.935236    1.389753   -0.000000
 ---------------------------------------------------------------------

 SCF Done:  E(RHF) =  -6.79470409216     A.U. after   10 cycles
 E2 =    -0.1665455671D+00 EUMP2 =    -0.69612496593071D+01

 The electronic state is 1-AG.
 Alpha  occ. eigenvalues --   -0.85903  -0.79457  -0.70274  -0.55458  -0.37280
 Alpha  occ. eigenvalues --   -0.36662  -0.26893
 Alpha virt. eigenvalues --   -0.00288   0.07878   0.18841   0.35855   0.41222
 Alpha virt. eigenvalues --    0.58546   0.64539

 Mulliken charges:
               1
     1  H    0.031125
     2  H    0.056003
     3  H   -0.123336
     4  H    0.080502
     5  H    0.125646
     6  H   -0.185558
     7  H    0.015619
     8  H    0.015619
     9  H   -0.185558
    10  H    0.125646
    11  H    0.080502
    12  H   -0.123336
    13  H    0.056003
    14  H    0.031125
 Sum of Mulliken charges =   0.00000

 Dipole moment (field-independent basis, Debye):
    X=             -0.0000    Y=             -0.0000    Z=             -0.0000  Tot=              0.0000
 Quadrupole moment (field-independent basis, Debye-Ang):
   XX=            -15.8265   YY=            -17.8531   ZZ=            -18.2276
   XY=             -5.4435   XZ=             -0.0000   YZ=             -0.0000

 Normal termination of Gaussian 09 at Wed Feb 15 12:30:45 2017.
