 Gaussian 09, Revision E.01,
 Gaussian 09:  ES64L-G09RevE.01 30-Nov-2015

 ----------------------------------------------------------------------
 #rhf/gen scf(symm,tight,novaracc,noincfock,fulldiag) stable(crhf) gues
 s=read geom=nocrowd test
 ----------------------------------------------------------------------

 hf stability analysis of h12 triangular lattice, y= 0.6595943070875844
 9 alpha= 37.000000000000000
 ----------------------------------------------------------------------
 Symbolic Z-matrix:
 Charge =  0 Multiplicity = 1

                         Standard orientation:
 ---------------------------------------------------------------------
 Center     Atomic      Atomic             Coordinates (Angstroms)
 Number     Number       Type             X           Y           Z
 ---------------------------------------------------------------------
      1          1           0        3.160653   -0.358298   -0.000000
      2          1           0        3.160653   -1.454307   -0.000000
      3          1           0        2.107102   -0.056198   -0.000000
      4          1           0        2.107102   -1.152206   -0.000000
      5          1           0        1.053551    0.245903   -0.000000
      6          1           0        1.053551   -0.850105   -0.000000
      7          1           0       -0.000000    0.548004    0.000000
      8          1           0       -0.000000   -0.548004    0.000000
      9          1           0       -1.053551    0.850105   -0.000000
     10          1           0       -1.053551   -0.245903   -0.000000
     11          1           0       -2.107102    1.152206   -0.000000
     12          1           0       -2.107102    0.056198   -0.000000
     13          1           0       -3.160653    1.454307   -0.000000
     14          1           0       -3.160653    0.358298   -0.000000
 ---------------------------------------------------------------------

 SCF Done:  E(RHF) =  -6.88895386277     A.U. after   10 cycles
 E2 =    -0.1581315075D+00 EUMP2 =    -0.70470853702988D+01

 The electronic state is 1-AG.
 Alpha  occ. eigenvalues --   -0.88740  -0.81900  -0.70547  -0.54701  -0.44165
 Alpha  occ. eigenvalues --   -0.35587  -0.33776
 Alpha virt. eigenvalues --   -0.00944   0.12298   0.18886   0.42770   0.43579
 Alpha virt. eigenvalues --    0.68904   0.86800

 Mulliken charges:
               1
     1  H    0.049984
     2  H    0.005240
     3  H   -0.089681
     4  H    0.040567
     5  H    0.083117
     6  H   -0.092971
     7  H    0.003743
     8  H    0.003743
     9  H   -0.092971
    10  H    0.083117
    11  H    0.040567
    12  H   -0.089681
    13  H    0.005240
    14  H    0.049984
 Sum of Mulliken charges =  -0.00000

 Dipole moment (field-independent basis, Debye):
    X=             -0.0000    Y=             -0.0000    Z=             -0.0000  Tot=              0.0000
 Quadrupole moment (field-independent basis, Debye-Ang):
   XX=            -18.3978   YY=            -21.3295   ZZ=            -18.0400
   XY=             -0.7102   XZ=             -0.0000   YZ=             -0.0000

 Normal termination of Gaussian 09 at Wed Feb 15 12:32:25 2017.
