 Gaussian 09, Revision E.01,
 Gaussian 09:  ES64L-G09RevE.01 30-Nov-2015

 ----------------------------------------------------------------------
 #rhf/gen scf(symm,tight,novaracc,noincfock,fulldiag) stable(crhf) gues
 s=read geom=nocrowd test
 ----------------------------------------------------------------------

 hf stability analysis of h12 triangular lattice, y= 1.9092530122354845
  alpha= 81.000000000000000
 ----------------------------------------------------------------------
 Symbolic Z-matrix:
 Charge =  0 Multiplicity = 1

                         Standard orientation:
 ---------------------------------------------------------------------
 Center     Atomic      Atomic             Coordinates (Angstroms)
 Number     Number       Type             X           Y           Z
 ---------------------------------------------------------------------
      1          1           0        1.792038    6.481851    0.000000
      2          1           0        1.792038    4.548799    0.000000
      3          1           0        1.194692    4.643410    0.000000
      4          1           0        1.194692    2.710358    0.000000
      5          1           0        0.597346    2.804968    0.000000
      6          1           0        0.597346    0.871916    0.000000
      7          1           0       -0.000000    0.966526    0.000000
      8          1           0       -0.000000   -0.966526    0.000000
      9          1           0       -0.597346   -0.871916    0.000000
     10          1           0       -0.597346   -2.804968    0.000000
     11          1           0       -1.194692   -2.710358    0.000000
     12          1           0       -1.194692   -4.643410    0.000000
     13          1           0       -1.792038   -4.548799    0.000000
     14          1           0       -1.792038   -6.481851    0.000000
 ---------------------------------------------------------------------

 SCF Done:  E(RHF) =  -6.92026423136     A.U. after    5 cycles
 E2 =    -0.1145337746D+01 EUMP2 =    -0.80656019771251D+01

 The electronic state is 1-AG.
 Alpha  occ. eigenvalues --   -0.73698  -0.72275  -0.69622  -0.66187  -0.62429
 Alpha  occ. eigenvalues --   -0.58991  -0.18668
 Alpha virt. eigenvalues --   -0.14712   0.37671   0.41505   0.47929   0.55933
 Alpha virt. eigenvalues --    0.64048   0.70436

 Mulliken charges:
               1
     1  H   -0.008072
     2  H    0.003679
     3  H    0.003389
     4  H   -0.000475
     5  H    0.001386
     6  H   -0.000090
     7  H    0.000183
     8  H    0.000183
     9  H   -0.000090
    10  H    0.001386
    11  H   -0.000475
    12  H    0.003389
    13  H    0.003679
    14  H   -0.008072
 Sum of Mulliken charges =   0.00000

 Dipole moment (field-independent basis, Debye):
    X=             -0.0000    Y=              0.0000    Z=             -0.0000  Tot=              0.0000
 Quadrupole moment (field-independent basis, Debye-Ang):
   XX=            -17.1559   YY=            -25.4108   ZZ=            -18.4614
   XY=             -2.2122   XZ=              0.0000   YZ=              0.0000

 Normal termination of Gaussian 09 at Wed Feb 15 12:40:29 2017.
