 Gaussian 09, Revision E.01,
 Gaussian 09:  ES64L-G09RevE.01 30-Nov-2015

 ----------------------------------------------------------------------
 #rhf/gen scf(symm,tight,novaracc,noincfock,fulldiag) stable(crhf) gues
 s=read geom=nocrowd test
 ----------------------------------------------------------------------

 hf stability analysis of h12 triangular lattice, y= 0.6476646814092581
 5 alpha= 36.000000000000000
 ----------------------------------------------------------------------
 Symbolic Z-matrix:
 Charge =  0 Multiplicity = 1

                         Standard orientation:
 ---------------------------------------------------------------------
 Center     Atomic      Atomic             Coordinates (Angstroms)
 Number     Number       Type             X           Y           Z
 ---------------------------------------------------------------------
      1          1           0        3.143830   -0.470556   -0.000000
      2          1           0        3.143830   -1.572429   -0.000000
      3          1           0        2.095887   -0.130058   -0.000000
      4          1           0        2.095887   -1.231931   -0.000000
      5          1           0        1.047943    0.210439   -0.000000
      6          1           0        1.047943   -0.891434    0.000000
      7          1           0        0.000000    0.550936   -0.000000
      8          1           0       -0.000000   -0.550936   -0.000000
      9          1           0       -1.047943    0.891434    0.000000
     10          1           0       -1.047943   -0.210439   -0.000000
     11          1           0       -2.095887    1.231931   -0.000000
     12          1           0       -2.095887    0.130058   -0.000000
     13          1           0       -3.143830    1.572429   -0.000000
     14          1           0       -3.143830    0.470556   -0.000000
 ---------------------------------------------------------------------

 SCF Done:  E(RHF) =  -6.88531777596     A.U. after   10 cycles
 E2 =    -0.1583941912D+00 EUMP2 =    -0.70437119671582D+01

 The electronic state is 1-AG.
 Alpha  occ. eigenvalues --   -0.88550  -0.81732  -0.70554  -0.54776  -0.43632
 Alpha  occ. eigenvalues --   -0.35632  -0.33388
 Alpha virt. eigenvalues --   -0.00757   0.11734   0.19008   0.42892   0.43043
 Alpha virt. eigenvalues --    0.68149   0.83743

 Mulliken charges:
               1
     1  H    0.051523
     2  H    0.006508
     3  H   -0.095797
     4  H    0.047040
     5  H    0.089989
     6  H   -0.104765
     7  H    0.005503
     8  H    0.005503
     9  H   -0.104765
    10  H    0.089989
    11  H    0.047040
    12  H   -0.095797
    13  H    0.006508
    14  H    0.051523
 Sum of Mulliken charges =  -0.00000

 Dipole moment (field-independent basis, Debye):
    X=             -0.0000    Y=              0.0000    Z=             -0.0000  Tot=              0.0000
 Quadrupole moment (field-independent basis, Debye-Ang):
   XX=            -18.1263   YY=            -21.2737   ZZ=            -18.0558
   XY=             -0.9790   XZ=              0.0000   YZ=             -0.0000

 Normal termination of Gaussian 09 at Wed Feb 15 12:32:14 2017.
