 Gaussian 09, Revision E.01,
 Gaussian 09:  ES64L-G09RevE.01 30-Nov-2015

 ----------------------------------------------------------------------
 #rhf/gen scf(symm,tight,novaracc,noincfock,fulldiag) stable(crhf) gues
 s=read geom=nocrowd test
 ----------------------------------------------------------------------

 hf stability analysis of h12 triangular lattice, y= 0.5070038553873883
 5 alpha= 24.000000000000000
 ----------------------------------------------------------------------
 Symbolic Z-matrix:
 Charge =  0 Multiplicity = 1

                         Standard orientation:
 ---------------------------------------------------------------------
 Center     Atomic      Atomic             Coordinates (Angstroms)
 Number     Number       Type             X           Y           Z
 ---------------------------------------------------------------------
      1          1           0        2.779026   -1.878988    0.000000
      2          1           0        2.779026   -3.125505    0.000000
      3          1           0        1.852684   -1.044906    0.000000
      4          1           0        1.852684   -2.291423    0.000000
      5          1           0        0.926342   -0.210824    0.000000
      6          1           0        0.926342   -1.457340    0.000000
      7          1           0        0.000000    0.623258    0.000000
      8          1           0       -0.000000   -0.623258   -0.000000
      9          1           0       -0.926342    1.457340    0.000000
     10          1           0       -0.926342    0.210824    0.000000
     11          1           0       -1.852684    2.291423    0.000000
     12          1           0       -1.852684    1.044906    0.000000
     13          1           0       -2.779026    3.125505    0.000000
     14          1           0       -2.779026    1.878988    0.000000
 ---------------------------------------------------------------------

 SCF Done:  E(RHF) =  -6.67322347382     A.U. after   11 cycles
 E2 =    -0.1782512780D+00 EUMP2 =    -0.68514747517899D+01

 The electronic state is 1-AG.
 Alpha  occ. eigenvalues --   -0.83858  -0.77613  -0.69753  -0.55865  -0.38447
 Alpha  occ. eigenvalues --   -0.31033  -0.21554
 Alpha virt. eigenvalues --   -0.03282   0.09337   0.15442   0.32437   0.33684
 Alpha virt. eigenvalues --    0.53997   0.64676

 Mulliken charges:
               1
     1  H   -0.014912
     2  H    0.100357
     3  H   -0.125112
     4  H    0.100398
     5  H    0.156806
     6  H   -0.219083
     7  H    0.001547
     8  H    0.001547
     9  H   -0.219083
    10  H    0.156806
    11  H    0.100398
    12  H   -0.125112
    13  H    0.100357
    14  H   -0.014912
 Sum of Mulliken charges =  -0.00000

 Dipole moment (field-independent basis, Debye):
    X=             -0.0000    Y=             -0.0000    Z=              0.0000  Tot=              0.0000
 Quadrupole moment (field-independent basis, Debye-Ang):
   XX=            -15.8581   YY=            -12.7926   ZZ=            -18.3217
   XY=             -8.5078   XZ=             -0.0000   YZ=              0.0000

 Normal termination of Gaussian 09 at Wed Feb 15 12:29:59 2017.
