 Gaussian 09, Revision E.01,
 Gaussian 09:  ES64L-G09RevE.01 30-Nov-2015

 ----------------------------------------------------------------------
 #rhf/gen scf(symm,tight,novaracc,noincfock,fulldiag) stable(crhf) gues
 s=read geom=nocrowd test
 ----------------------------------------------------------------------

 hf stability analysis of h12 triangular lattice, y= 1.2948927059181552
  alpha= 71.000000000000000
 ----------------------------------------------------------------------
 Symbolic Z-matrix:
 Charge =  0 Multiplicity = 1

                         Standard orientation:
 ---------------------------------------------------------------------
 Center     Atomic      Atomic             Coordinates (Angstroms)
 Number     Number       Type             X           Y           Z
 ---------------------------------------------------------------------
      1          1           0        2.529455    3.922307   -0.000000
      2          1           0        2.529455    2.552802   -0.000000
      3          1           0        1.686303    2.843122   -0.000000
      4          1           0        1.686303    1.473617   -0.000000
      5          1           0        0.843152    1.763938   -0.000000
      6          1           0        0.843152    0.394432   -0.000000
      7          1           0        0.000000    0.684753   -0.000000
      8          1           0       -0.000000   -0.684753   -0.000000
      9          1           0       -0.843152   -0.394432   -0.000000
     10          1           0       -0.843152   -1.763938   -0.000000
     11          1           0       -1.686303   -1.473617   -0.000000
     12          1           0       -1.686303   -2.843122   -0.000000
     13          1           0       -2.529455   -2.552802   -0.000000
     14          1           0       -2.529455   -3.922307   -0.000000
 ---------------------------------------------------------------------

 SCF Done:  E(RHF) =  -6.63943795820     A.U. after   11 cycles
 E2 =    -0.2765835730D+00 EUMP2 =    -0.69160215311980D+01

 The electronic state is 1-AG.
 Alpha  occ. eigenvalues --   -0.81645  -0.77097  -0.69967  -0.59416  -0.46053
 Alpha  occ. eigenvalues --   -0.31091  -0.08283
 Alpha virt. eigenvalues --    0.00693   0.08217   0.13877   0.24426   0.38093
 Alpha virt. eigenvalues --    0.52896   0.62846

 Mulliken charges:
               1
     1  H   -0.191212
     2  H   -0.016876
     3  H    0.160483
     4  H    0.014132
     5  H   -0.049077
     6  H    0.035706
     7  H    0.046845
     8  H    0.046845
     9  H    0.035706
    10  H   -0.049077
    11  H    0.014132
    12  H    0.160483
    13  H   -0.016876
    14  H   -0.191212
 Sum of Mulliken charges =  -0.00000

 Dipole moment (field-independent basis, Debye):
    X=             -0.0000    Y=             -0.0000    Z=              0.0000  Tot=              0.0000
 Quadrupole moment (field-independent basis, Debye-Ang):
   XX=            -26.8969   YY=            -41.6462   ZZ=            -17.6987
   XY=            -16.9335   XZ=             -0.0000   YZ=             -0.0000

 Normal termination of Gaussian 09 at Wed Feb 15 12:38:44 2017.
