 Gaussian 09, Revision E.01,
 Gaussian 09:  ES64L-G09RevE.01 30-Nov-2015

 ----------------------------------------------------------------------
 #rhf/gen scf(symm,tight,novaracc,noincfock,fulldiag) stable(crhf) gues
 s=read geom=nocrowd test
 ----------------------------------------------------------------------

 hf stability analysis of h12 triangular lattice, y= 1.1954046164231349
  alpha= 68.000000000000000
 ----------------------------------------------------------------------
 Symbolic Z-matrix:
 Charge =  0 Multiplicity = 1

                         Standard orientation:
 ---------------------------------------------------------------------
 Center     Atomic      Atomic             Coordinates (Angstroms)
 Number     Number       Type             X           Y           Z
 ---------------------------------------------------------------------
      1          1           0        2.686839    3.426946   -0.000000
      2          1           0        2.686839    2.137660   -0.000000
      3          1           0        1.791226    2.499511   -0.000000
      4          1           0        1.791226    1.210226   -0.000000
      5          1           0        0.895613    1.572077   -0.000000
      6          1           0        0.895613    0.282792   -0.000000
      7          1           0       -0.000000    0.644643    0.000000
      8          1           0       -0.000000   -0.644643   -0.000000
      9          1           0       -0.895613   -0.282792   -0.000000
     10          1           0       -0.895613   -1.572077   -0.000000
     11          1           0       -1.791226   -1.210226   -0.000000
     12          1           0       -1.791226   -2.499511   -0.000000
     13          1           0       -2.686839   -2.137660   -0.000000
     14          1           0       -2.686839   -3.426946   -0.000000
 ---------------------------------------------------------------------

 SCF Done:  E(RHF) =  -6.59005041383     A.U. after   13 cycles
 E2 =    -0.1911925314D+00 EUMP2 =    -0.67812429452572D+01

 The electronic state is 1-AG.
 Alpha  occ. eigenvalues --   -0.83875  -0.76984  -0.69648  -0.57019  -0.39735
 Alpha  occ. eigenvalues --   -0.27615  -0.17760
 Alpha virt. eigenvalues --   -0.04837   0.10224   0.12946   0.25740   0.33795
 Alpha virt. eigenvalues --    0.53212   0.63376

 Mulliken charges:
               1
     1  H    0.042301
     2  H   -0.039218
     3  H    0.141693
     4  H   -0.162094
     5  H   -0.183721
     6  H    0.263188
     7  H   -0.062149
     8  H   -0.062149
     9  H    0.263188
    10  H   -0.183721
    11  H   -0.162094
    12  H    0.141693
    13  H   -0.039218
    14  H    0.042301
 Sum of Mulliken charges =  -0.00000

 Dipole moment (field-independent basis, Debye):
    X=              0.0000    Y=              0.0000    Z=             -0.0000  Tot=              0.0000
 Quadrupole moment (field-independent basis, Debye-Ang):
   XX=            -20.5028   YY=            -16.3729   ZZ=            -18.2537
   XY=              3.2104   XZ=              0.0000   YZ=              0.0000

 Normal termination of Gaussian 09 at Wed Feb 15 12:38:12 2017.
