 Gaussian 09, Revision E.01,
 Gaussian 09:  ES64L-G09RevE.01 30-Nov-2015

 ----------------------------------------------------------------------
 #rhf/gen scf(symm,tight,novaracc,noincfock,fulldiag) stable(crhf) gues
 s=read geom=nocrowd test
 ----------------------------------------------------------------------

 hf stability analysis of h12 triangular lattice, y= 0.5889881594497650
 1 alpha= 31.000000000000000
 ----------------------------------------------------------------------
 Symbolic Z-matrix:
 Charge =  0 Multiplicity = 1

                         Standard orientation:
 ---------------------------------------------------------------------
 Center     Atomic      Atomic             Coordinates (Angstroms)
 Number     Number       Type             X           Y           Z
 ---------------------------------------------------------------------
      1          1           0        3.029168   -1.038846   -0.000000
      2          1           0        3.029168   -2.182428   -0.000000
      3          1           0        2.019446   -0.501967   -0.000000
      4          1           0        2.019446   -1.645549   -0.000000
      5          1           0        1.009723    0.034912    0.000000
      6          1           0        1.009723   -1.108670   -0.000000
      7          1           0        0.000000    0.571791    0.000000
      8          1           0       -0.000000   -0.571791    0.000000
      9          1           0       -1.009723    1.108670   -0.000000
     10          1           0       -1.009723   -0.034912   -0.000000
     11          1           0       -2.019446    1.645549   -0.000000
     12          1           0       -2.019446    0.501967   -0.000000
     13          1           0       -3.029168    2.182428   -0.000000
     14          1           0       -3.029168    1.038846   -0.000000
 ---------------------------------------------------------------------

 SCF Done:  E(RHF) =  -6.84590299540     A.U. after   10 cycles
 E2 =    -0.1618361267D+00 EUMP2 =    -0.70077391221093D+01

 The electronic state is 1-AG.
 Alpha  occ. eigenvalues --   -0.87149  -0.80523  -0.70477  -0.55199  -0.39884
 Alpha  occ. eigenvalues --   -0.36522  -0.29959
 Alpha virt. eigenvalues --    0.00129   0.08727   0.19408   0.38881   0.43014
 Alpha virt. eigenvalues --    0.65189   0.67090

 Mulliken charges:
               1
     1  H    0.046856
     2  H    0.028920
     3  H   -0.117584
     4  H    0.071150
     5  H    0.115178
     6  H   -0.158085
     7  H    0.013566
     8  H    0.013566
     9  H   -0.158085
    10  H    0.115178
    11  H    0.071150
    12  H   -0.117584
    13  H    0.028920
    14  H    0.046856
 Sum of Mulliken charges =  -0.00000

 Dipole moment (field-independent basis, Debye):
    X=              0.0000    Y=              0.0000    Z=             -0.0000  Tot=              0.0000
 Quadrupole moment (field-independent basis, Debye-Ang):
   XX=            -16.6157   YY=            -19.9986   ZZ=            -18.1554
   XY=             -3.2701   XZ=              0.0000   YZ=             -0.0000

 Normal termination of Gaussian 09 at Wed Feb 15 12:31:19 2017.
