 Gaussian 09, Revision E.01,
 Gaussian 09:  ES64L-G09RevE.01 30-Nov-2015

 ----------------------------------------------------------------------
 #rhf/gen scf(symm,tight,novaracc,noincfock,fulldiag) stable(crhf) gues
 s=read geom=nocrowd test
 ----------------------------------------------------------------------

 hf stability analysis of h12 triangular lattice, y= 1.6480958607190197
  alpha= 78.000000000000000
 ----------------------------------------------------------------------
 Symbolic Z-matrix:
 Charge =  0 Multiplicity = 1

                         Standard orientation:
 ---------------------------------------------------------------------
 Center     Atomic      Atomic             Coordinates (Angstroms)
 Number     Number       Type             X           Y           Z
 ---------------------------------------------------------------------
      1          1           0        2.055950    5.460198   -0.000000
      2          1           0        2.055950    3.775282   -0.000000
      3          1           0        1.370634    3.920951   -0.000000
      4          1           0        1.370634    2.236036   -0.000000
      5          1           0        0.685317    2.381704   -0.000000
      6          1           0        0.685317    0.696789   -0.000000
      7          1           0       -0.000000    0.842458   -0.000000
      8          1           0       -0.000000   -0.842458   -0.000000
      9          1           0       -0.685317   -0.696789    0.000000
     10          1           0       -0.685317   -2.381704    0.000000
     11          1           0       -1.370634   -2.236036    0.000000
     12          1           0       -1.370634   -3.920951    0.000000
     13          1           0       -2.055950   -3.775282    0.000000
     14          1           0       -2.055950   -5.460198    0.000000
 ---------------------------------------------------------------------

 SCF Done:  E(RHF) =  -7.01032972039     A.U. after    6 cycles
 E2 =    -0.9155917267D+00 EUMP2 =    -0.79259214471332D+01

 The electronic state is 1-AG.
 Alpha  occ. eigenvalues --   -0.74972  -0.72903  -0.68651  -0.62985  -0.56346
 Alpha  occ. eigenvalues --   -0.49451  -0.16056
 Alpha virt. eigenvalues --   -0.11362   0.26635   0.31217   0.39404   0.49755
 Alpha virt. eigenvalues --    0.60449   0.69145

 Mulliken charges:
               1
     1  H   -0.043928
     2  H    0.013054
     3  H    0.021895
     4  H    0.000779
     5  H    0.006376
     6  H    0.000249
     7  H    0.001575
     8  H    0.001575
     9  H    0.000249
    10  H    0.006376
    11  H    0.000779
    12  H    0.021895
    13  H    0.013054
    14  H   -0.043928
 Sum of Mulliken charges =   0.00000

 Dipole moment (field-independent basis, Debye):
    X=              0.0000    Y=             -0.0000    Z=              0.0000  Tot=              0.0000
 Quadrupole moment (field-independent basis, Debye-Ang):
   XX=            -17.7176   YY=            -31.9574   ZZ=            -18.0975
   XY=             -5.6903   XZ=              0.0000   YZ=              0.0000

 Normal termination of Gaussian 09 at Wed Feb 15 12:39:56 2017.
