 Gaussian 09, Revision E.01,
 Gaussian 09:  ES64L-G09RevE.01 30-Nov-2015

 ----------------------------------------------------------------------
 #uhf/gen scf(tight,novaracc,noincfock,fulldiag) stable(crhf) guess=rea
 d geom=nocrowd test
 ----------------------------------------------------------------------

 hf stability analysis of h10 triangular lattice, y= 0.4890138174627491
 3 alpha= 22.498999999999999
 ----------------------------------------------------------------------
 Symbolic Z-matrix:
 Charge =  0 Multiplicity = 1

                         Standard orientation:
 ---------------------------------------------------------------------
 Center     Atomic      Atomic             Coordinates (Angstroms)
 Number     Number       Type             X           Y           Z
 ---------------------------------------------------------------------
      1          1           0        1.807172   -1.168344   -0.000000
      2          1           0        1.807172   -2.446253   -0.000000
      3          1           0        0.903586   -0.264695   -0.000000
      4          1           0        0.903586   -1.542604   -0.000000
      5          1           0        0.000000    0.638954    0.000000
      6          1           0       -0.000000   -0.638954    0.000000
      7          1           0       -0.903586    1.542604   -0.000000
      8          1           0       -0.903586    0.264695   -0.000000
      9          1           0       -1.807172    2.446253   -0.000000
     10          1           0       -1.807172    1.168344   -0.000000
 ---------------------------------------------------------------------

 SCF Done:  E(UHF) =  -4.82856556586     A.U. after   12 cycles
 E2 =    -0.4706229052D-01 EUMP2 =    -0.48756278563793D+01

 Unable to determine electronic state:  partially filled degenerate orbitals.
 Alpha  occ. eigenvalues --   -0.82444  -0.72812  -0.57302  -0.40067  -0.27042
 Alpha virt. eigenvalues --    0.09679   0.13499   0.27058   0.41926   0.59554
  Beta  occ. eigenvalues --   -0.81536  -0.72114  -0.58793  -0.38825  -0.30060
  Beta virt. eigenvalues --    0.08707   0.19371   0.26916   0.40389   0.59448

 Mulliken charges and spin densities:
               1          2
     1  H    0.097896  -0.515552
     2  H    0.007467   0.778132
     3  H   -0.013291   0.606538
     4  H   -0.048128   0.548192
     5  H   -0.091829  -0.423185
     6  H    0.010779  -0.491689
     7  H    0.119312   0.245287
     8  H    0.001990   0.389774
     9  H   -0.063318  -0.687665
    10  H   -0.020877  -0.449833
 Sum of Mulliken charges =  -0.00000   0.00000

 Dipole moment (field-independent basis, Debye):
    X=              0.8524    Y=             -0.5531    Z=             -0.0000  Tot=              1.0161
 Quadrupole moment (field-independent basis, Debye-Ang):
   XX=            -13.8856   YY=            -16.0291   ZZ=            -12.8191
   XY=              0.9810   XZ=             -0.0000   YZ=              0.0000

 Normal termination of Gaussian 09 at Fri Feb 24 12:13:34 2017.
