 Gaussian 09, Revision E.01,
 Gaussian 09:  ES64L-G09RevE.01 30-Nov-2015

 ----------------------------------------------------------------------
 #rhf/gen scf(symm,tight,novaracc,noincfock,fulldiag) stable(crhf) gues
 s=read geom=nocrowd test
 ----------------------------------------------------------------------

 ----------------------------------------------------------------------
 hf stability analysis of h12 triangular lattice, y= 1.2594669489559134
 ----------------------------------------------------------------------
 Symbolic Z-matrix:
 Charge =  0 Multiplicity = 1

                         Standard orientation:
 ---------------------------------------------------------------------
 Center     Atomic      Atomic             Coordinates (Angstroms)
 Number     Number       Type             X           Y           Z
 ---------------------------------------------------------------------
      1          1           0        0.861526    3.037172    0.000000
      2          1           0       -0.000000    2.010445    0.000000
      3          1           0        0.861526    1.696875   -0.000000
      4          1           0       -0.000000    0.670148    0.000000
      5          1           0       -0.861526    0.983718    0.000000
      6          1           0       -0.861526   -0.356578    0.000000
      7          1           0       -0.861526   -1.696875    0.000000
      8          1           0       -0.000000   -0.670148    0.000000
      9          1           0        0.861526    0.356578   -0.000000
     10          1           0        0.861526   -0.983718    0.000000
     11          1           0       -0.000000   -2.010445    0.000000
     12          1           0       -0.861526   -3.037172    0.000000
 ---------------------------------------------------------------------

 SCF Done:  E(RHF) =  -5.90164568303     A.U. after   13 cycles
 E2 =    -0.1100940662D+00 EUMP2 =    -0.60117397492195D+01

 The electronic state is 1-AG.
 Alpha  occ. eigenvalues --   -0.86648  -0.75929  -0.59368  -0.47206  -0.39464
 Alpha  occ. eigenvalues --   -0.26055
 Alpha virt. eigenvalues --    0.03322   0.13544   0.30811   0.38992   0.55387
 Alpha virt. eigenvalues --    0.71281

 Mulliken charges:
               1
     1  H    0.122548
     2  H    0.049482
     3  H    0.084020
     4  H   -0.033408
     5  H   -0.121186
     6  H   -0.101456
     7  H    0.084020
     8  H   -0.033408
     9  H   -0.101456
    10  H   -0.121186
    11  H    0.049482
    12  H    0.122548
 Sum of Mulliken charges =   0.00000

 Dipole moment (field-independent basis, Debye):
    X=             -0.0000    Y=              0.0000    Z=             -0.0000  Tot=              0.0000
 Quadrupole moment (field-independent basis, Debye-Ang):
   XX=            -18.2907   YY=             -4.8676   ZZ=            -15.5095
   XY=              5.3588   XZ=              0.0000   YZ=             -0.0000

 Normal termination of Gaussian 09 at Thu Feb 16 18:53:45 2017.
