 Gaussian 09, Revision E.01,
 Gaussian 09:  ES64L-G09RevE.01 30-Nov-2015

 ----------------------------------------------------------------------
 #rhf/gen scf(symm,tight,novaracc,noincfock,fulldiag) stable(crhf) gues
 s=read geom=nocrowd test
 ----------------------------------------------------------------------

 hf stability analysis of h12 triangular lattice, y= 0.8596363675198261
 9
 ----------------------------------------------------------------------
 Symbolic Z-matrix:
 Charge =  0 Multiplicity = 1

                         Standard orientation:
 ---------------------------------------------------------------------
 Center     Atomic      Atomic             Coordinates (Angstroms)
 Number     Number       Type             X           Y           Z
 ---------------------------------------------------------------------
      1          1           0        1.058490    1.900252    0.000000
      2          1           0        0.000000    1.636341    0.000000
      3          1           0        1.058490    0.809358    0.000000
      4          1           0        0.000000    0.545447    0.000000
      5          1           0       -1.058490    1.372430    0.000000
      6          1           0       -1.058490    0.281536   -0.000000
      7          1           0       -1.058490   -0.809358   -0.000000
      8          1           0       -0.000000   -0.545447   -0.000000
      9          1           0        1.058490   -0.281536   -0.000000
     10          1           0        1.058490   -1.372430   -0.000000
     11          1           0       -0.000000   -1.636341   -0.000000
     12          1           0       -1.058490   -1.900252   -0.000000
 ---------------------------------------------------------------------

 SCF Done:  E(RHF) =  -5.77355508938     A.U. after   16 cycles
 E2 =    -0.1186387750D+00 EUMP2 =    -0.58921938643921D+01

 The electronic state is 1-AG.
 Alpha  occ. eigenvalues --   -1.00433  -0.79101  -0.68434  -0.52368  -0.44809
 Alpha  occ. eigenvalues --   -0.22873
 Alpha virt. eigenvalues --   -0.01057   0.13668   0.23708   0.37888   0.57136
 Alpha virt. eigenvalues --    0.82457

 Mulliken charges:
               1
     1  H   -0.261392
     2  H    0.097488
     3  H    0.073193
     4  H    0.019269
     5  H   -0.065347
     6  H    0.136788
     7  H    0.073193
     8  H    0.019269
     9  H    0.136788
    10  H   -0.065347
    11  H    0.097488
    12  H   -0.261392
 Sum of Mulliken charges =   0.00000

 Dipole moment (field-independent basis, Debye):
    X=             -0.0000    Y=             -0.0000    Z=             -0.0000  Tot=              0.0000
 Quadrupole moment (field-independent basis, Debye-Ang):
   XX=            -17.6932   YY=            -28.3403   ZZ=            -15.1660
   XY=             -4.7581   XZ=             -0.0000   YZ=             -0.0000

 Normal termination of Gaussian 09 at Thu Feb 16 18:53:01 2017.
