 Gaussian 09, Revision E.01,
 Gaussian 09:  ES64L-G09RevE.01 30-Nov-2015

 ----------------------------------------------------------------------
 #rhf/gen scf(symm,tight,novaracc,noincfock,fulldiag) stable(crhf) gues
 s=read geom=nocrowd test
 ----------------------------------------------------------------------

 hf stability analysis of h12 triangular lattice, y= 0.5070038553873883
 5
 ----------------------------------------------------------------------
 Symbolic Z-matrix:
 Charge =  0 Multiplicity = 1

                         Standard orientation:
 ---------------------------------------------------------------------
 Center     Atomic      Atomic             Coordinates (Angstroms)
 Number     Number       Type             X           Y           Z
 ---------------------------------------------------------------------
      1          1           0        0.926342    1.035692    0.000000
      2          1           0        0.000000    1.869774    0.000000
      3          1           0        0.926342   -0.210824   -0.000000
      4          1           0        0.000000    0.623258    0.000000
      5          1           0       -0.926342    2.703857    0.000000
      6          1           0       -0.926342    1.457340    0.000000
      7          1           0       -0.926342    0.210824    0.000000
      8          1           0       -0.000000   -0.623258    0.000000
      9          1           0        0.926342   -1.457340   -0.000000
     10          1           0        0.926342   -2.703857   -0.000000
     11          1           0       -0.000000   -1.869774    0.000000
     12          1           0       -0.926342   -1.035692    0.000000
 ---------------------------------------------------------------------

 SCF Done:  E(RHF) =  -5.96246718068     A.U. after   14 cycles
 E2 =    -0.1106564713D+00 EUMP2 =    -0.60731236519775D+01

 The electronic state is 1-AG.
 Alpha  occ. eigenvalues --   -0.91913  -0.77801  -0.58293  -0.54366  -0.36584
 Alpha  occ. eigenvalues --   -0.32295
 Alpha virt. eigenvalues --    0.11159   0.24223   0.25973   0.30467   0.54510
 Alpha virt. eigenvalues --    0.55137

 Mulliken charges:
               1
     1  H   -0.087901
     2  H    0.069956
     3  H   -0.031834
     4  H   -0.023845
     5  H    0.001135
     6  H    0.072488
     7  H   -0.031834
     8  H   -0.023845
     9  H    0.072488
    10  H    0.001135
    11  H    0.069956
    12  H   -0.087901
 Sum of Mulliken charges =  -0.00000

 Dipole moment (field-independent basis, Debye):
    X=              0.0000    Y=             -0.0000    Z=             -0.0000  Tot=              0.0000
 Quadrupole moment (field-independent basis, Debye-Ang):
   XX=            -18.0463   YY=            -16.5443   ZZ=            -15.4468
   XY=             -1.7878   XZ=              0.0000   YZ=              0.0000

 Normal termination of Gaussian 09 at Thu Feb 16 18:51:51 2017.
