 Gaussian 09, Revision E.01,
 Gaussian 09:  ES64L-G09RevE.01 30-Nov-2015

 ----------------------------------------------------------------------
 #rhf/gen scf(symm,tight,novaracc,noincfock,fulldiag) stable(crhf) gues
 s=read geom=nocrowd test
 ----------------------------------------------------------------------

 hf stability analysis of h12 triangular lattice, y= 0.2247478695127229
 1
 ----------------------------------------------------------------------
 Symbolic Z-matrix:
 Charge =  0 Multiplicity = 1

                         Standard orientation:
 ---------------------------------------------------------------------
 Center     Atomic      Atomic             Coordinates (Angstroms)
 Number     Number       Type             X           Y           Z
 ---------------------------------------------------------------------
      1          1           0        0.447785    1.328522    0.000000
      2          1           0        0.000000    3.868039    0.000000
      3          1           0        0.447785   -1.250170    0.000000
      4          1           0        0.000000    1.289346    0.000000
      5          1           0       -0.447785    6.407555    0.000000
      6          1           0       -0.447785    3.828863    0.000000
      7          1           0       -0.447785    1.250170   -0.000000
      8          1           0       -0.000000   -1.289346    0.000000
      9          1           0        0.447785   -3.828863    0.000000
     10          1           0        0.447785   -6.407555    0.000000
     11          1           0       -0.000000   -3.868039    0.000000
     12          1           0       -0.447785   -1.328522    0.000000
 ---------------------------------------------------------------------

 SCF Done:  E(RHF) =  -4.10558674911     A.U. after   12 cycles
 E2 =    -0.7126366135D+00 EUMP2 =    -0.48182233626373D+01

 The electronic state is 1-AG.
 Alpha  occ. eigenvalues --   -1.04116  -1.04007  -0.74226  -0.74225  -0.21172
 Alpha  occ. eigenvalues --   -0.17320
 Alpha virt. eigenvalues --   -0.12349   0.00657   0.65848   0.65919   1.53047
 Alpha virt. eigenvalues --    1.62057

 Mulliken charges:
               1
     1  H    0.492883
     2  H   -0.001719
     3  H    0.491483
     4  H   -0.819613
     5  H   -0.162092
     6  H   -0.000943
     7  H    0.491483
     8  H   -0.819613
     9  H   -0.000943
    10  H   -0.162092
    11  H   -0.001719
    12  H    0.492883
 Sum of Mulliken charges =  -0.00000

 Dipole moment (field-independent basis, Debye):
    X=             -0.0000    Y=              0.0000    Z=              0.0000  Tot=              0.0000
 Quadrupole moment (field-independent basis, Debye-Ang):
   XX=            -16.3240   YY=            -78.0215   ZZ=            -15.5888
   XY=              4.6694   XZ=             -0.0000   YZ=             -0.0000

 Normal termination of Gaussian 09 at Thu Feb 16 18:51:06 2017.
