 Gaussian 09, Revision E.01,
 Gaussian 09:  ES64L-G09RevE.01 30-Nov-2015

 ----------------------------------------------------------------------
 #rhf/gen scf(symm,tight,novaracc,noincfock,fulldiag) stable(crhf) gues
 s=read geom=nocrowd test
 ----------------------------------------------------------------------

 ----------------------------------------------------------------------
 hf stability analysis of h12 triangular lattice, y= 1.2263967642726714
 ----------------------------------------------------------------------
 Symbolic Z-matrix:
 Charge =  0 Multiplicity = 1

                         Standard orientation:
 ---------------------------------------------------------------------
 Center     Atomic      Atomic             Coordinates (Angstroms)
 Number     Number       Type             X           Y           Z
 ---------------------------------------------------------------------
      1          1           0        0.879003    2.946704    0.000000
      2          1           0        0.000000    1.970473   -0.000000
      3          1           0        0.879003    1.633056    0.000000
      4          1           0        0.000000    0.656824   -0.000000
      5          1           0       -0.879003    0.994242   -0.000000
      6          1           0       -0.879003   -0.319407   -0.000000
      7          1           0       -0.879003   -1.633056    0.000000
      8          1           0       -0.000000   -0.656824   -0.000000
      9          1           0        0.879003    0.319407   -0.000000
     10          1           0        0.879003   -0.994242   -0.000000
     11          1           0       -0.000000   -1.970473   -0.000000
     12          1           0       -0.879003   -2.946704    0.000000
 ---------------------------------------------------------------------

 SCF Done:  E(RHF) =  -5.92564518909     A.U. after   13 cycles
 E2 =    -0.1100619612D+00 EUMP2 =    -0.60357071503116D+01

 The electronic state is 1-AG.
 Alpha  occ. eigenvalues --   -0.88102  -0.76479  -0.59137  -0.48992  -0.38985
 Alpha  occ. eigenvalues --   -0.27783
 Alpha virt. eigenvalues --    0.05305   0.16973   0.29845   0.35830   0.54495
 Alpha virt. eigenvalues --    0.66816

 Mulliken charges:
               1
     1  H    0.090749
     2  H    0.057226
     3  H    0.078773
     4  H   -0.030919
     5  H   -0.113603
     6  H   -0.082225
     7  H    0.078773
     8  H   -0.030919
     9  H   -0.082225
    10  H   -0.113603
    11  H    0.057226
    12  H    0.090749
 Sum of Mulliken charges =  -0.00000

 Dipole moment (field-independent basis, Debye):
    X=             -0.0000    Y=             -0.0000    Z=              0.0000  Tot=              0.0000
 Quadrupole moment (field-independent basis, Debye-Ang):
   XX=            -18.2426   YY=             -8.3706   ZZ=            -15.4969
   XY=              4.4130   XZ=              0.0000   YZ=             -0.0000

 Normal termination of Gaussian 09 at Thu Feb 16 18:53:43 2017.
