 Gaussian 09, Revision E.01,
 Gaussian 09:  ES64L-G09RevE.01 30-Nov-2015

 ----------------------------------------------------------------------
 #rhf/gen scf(symm,tight,novaracc,noincfock,fulldiag) stable(crhf) gues
 s=read geom=nocrowd test
 ----------------------------------------------------------------------

 hf stability analysis of h12 triangular lattice, y= 0.4201353311163031
 9
 ----------------------------------------------------------------------
 Symbolic Z-matrix:
 Charge =  0 Multiplicity = 1

                         Standard orientation:
 ---------------------------------------------------------------------
 Center     Atomic      Atomic             Coordinates (Angstroms)
 Number     Number       Type             X           Y           Z
 ---------------------------------------------------------------------
      1          1           0        0.803555    0.964167   -0.000000
      2          1           0       -0.000000    2.155486   -0.000000
      3          1           0        0.803555   -0.472824   -0.000000
      4          1           0       -0.000000    0.718495   -0.000000
      5          1           0       -0.803555    3.346805   -0.000000
      6          1           0       -0.803555    1.909814   -0.000000
      7          1           0       -0.803555    0.472824    0.000000
      8          1           0       -0.000000   -0.718495   -0.000000
      9          1           0        0.803555   -1.909814   -0.000000
     10          1           0        0.803555   -3.346805   -0.000000
     11          1           0       -0.000000   -2.155486   -0.000000
     12          1           0       -0.803555   -0.964167    0.000000
 ---------------------------------------------------------------------

 SCF Done:  E(RHF) =  -5.77676308936     A.U. after   16 cycles
 E2 =    -0.1321639141D+00 EUMP2 =    -0.59089270034655D+01

 The electronic state is 1-AG.
 Alpha  occ. eigenvalues --   -0.83605  -0.74109  -0.60250  -0.46628  -0.38524
 Alpha  occ. eigenvalues --   -0.19251
 Alpha virt. eigenvalues --   -0.01670   0.02383   0.35422   0.44542   0.61668
 Alpha virt. eigenvalues --    0.84092

 Mulliken charges:
               1
     1  H   -0.161650
     2  H    0.147326
     3  H   -0.004772
     4  H   -0.088393
     5  H    0.157987
     6  H   -0.050498
     7  H   -0.004772
     8  H   -0.088393
     9  H   -0.050498
    10  H    0.157987
    11  H    0.147326
    12  H   -0.161650
 Sum of Mulliken charges =   0.00000

 Dipole moment (field-independent basis, Debye):
    X=             -0.0000    Y=              0.0000    Z=             -0.0000  Tot=              0.0000
 Quadrupole moment (field-independent basis, Debye-Ang):
   XX=            -18.1920   YY=              1.1526   ZZ=            -15.4098
   XY=             -4.4850   XZ=              0.0000   YZ=              0.0000

 Normal termination of Gaussian 09 at Thu Feb 16 18:51:34 2017.
