 Gaussian 09, Revision E.01,
 Gaussian 09:  ES64L-G09RevE.01 30-Nov-2015

 ----------------------------------------------------------------------
 #rhf/gen scf(symm,tight,novaracc,noincfock,fulldiag) stable(crhf) gues
 s=read geom=nocrowd test
 ----------------------------------------------------------------------

 ----------------------------------------------------------------------
 hf stability analysis of h12 triangular lattice, y= 2.1684423371644423
 ----------------------------------------------------------------------
 Symbolic Z-matrix:
 Charge =  0 Multiplicity = 1

                         Standard orientation:
 ---------------------------------------------------------------------
 Center     Atomic      Atomic             Coordinates (Angstroms)
 Number     Number       Type             X           Y           Z
 ---------------------------------------------------------------------
      1          1           0        0.528533    5.396922   -0.000000
      2          1           0        0.000000    3.277090    0.000000
      3          1           0        0.528533    3.212195   -0.000000
      4          1           0        0.000000    1.092363    0.000000
      5          1           0       -0.528533    1.157259    0.000000
      6          1           0       -0.528533   -1.027468    0.000000
      7          1           0       -0.528533   -3.212195    0.000000
      8          1           0       -0.000000   -1.092363    0.000000
      9          1           0        0.528533    1.027468   -0.000000
     10          1           0        0.528533   -1.157259    0.000000
     11          1           0       -0.000000   -3.277090    0.000000
     12          1           0       -0.528533   -5.396922    0.000000
 ---------------------------------------------------------------------

 SCF Done:  E(RHF) =  -4.94490045852     A.U. after   13 cycles
 E2 =    -0.9497866694D+00 EUMP2 =    -0.58946871279236D+01

 The electronic state is 1-AG.
 Alpha  occ. eigenvalues --   -0.91558  -0.88296  -0.70646  -0.70540  -0.24115
 Alpha  occ. eigenvalues --   -0.20421
 Alpha virt. eigenvalues --   -0.15528   0.05270   0.58118   0.58531   1.26130
 Alpha virt. eigenvalues --    1.40114

 Mulliken charges:
               1
     1  H    0.000262
     2  H   -0.004536
     3  H   -0.001188
     4  H   -0.499545
     5  H    0.254160
     6  H    0.250847
     7  H   -0.001188
     8  H   -0.499545
     9  H    0.250847
    10  H    0.254160
    11  H   -0.004536
    12  H    0.000262
 Sum of Mulliken charges =   0.00000

 Dipole moment (field-independent basis, Debye):
    X=              0.0000    Y=              0.0000    Z=              0.0000  Tot=              0.0000
 Quadrupole moment (field-independent basis, Debye-Ang):
   XX=            -16.5569   YY=            -17.6108   ZZ=            -15.5201
   XY=             -0.3764   XZ=              0.0000   YZ=              0.0000

 Normal termination of Gaussian 09 at Mon Feb 13 17:29:18 2017.
