 Gaussian 09, Revision E.01,
 Gaussian 09:  ES64L-G09RevE.01 30-Nov-2015

 ----------------------------------------------------------------------
 #rhf/gen scf(symm,tight,novaracc,noincfock,fulldiag) stable(crhf) gues
 s=read geom=nocrowd test
 ----------------------------------------------------------------------

 hf stability analysis of h12 triangular lattice, y= 0.2848531043101661
 9 alpha= 8.0000000000000000
 ----------------------------------------------------------------------
 Symbolic Z-matrix:
 Charge =  0 Multiplicity = 1

                         Standard orientation:
 ---------------------------------------------------------------------
 Center     Atomic      Atomic             Coordinates (Angstroms)
 Number     Number       Type             X           Y           Z
 ---------------------------------------------------------------------
      1          1           0        4.053670    0.854559   -0.000000
      2          1           0        6.080505    0.569706   -0.000000
      3          1           0        2.026835    0.569706   -0.000000
      4          1           0        4.053670    0.284853   -0.000000
      5          1           0        0.000000    0.284853    0.000000
      6          1           0        2.026835    0.000000   -0.000000
      7          1           0       -2.026835    0.000000    0.000000
      8          1           0       -0.000000   -0.284853   -0.000000
      9          1           0       -4.053670   -0.284853    0.000000
     10          1           0       -2.026835   -0.569706    0.000000
     11          1           0       -6.080505   -0.569706    0.000000
     12          1           0       -4.053670   -0.854559    0.000000
 ---------------------------------------------------------------------

 SCF Done:  E(RHF) =  -5.79488447683     A.U. after    5 cycles
 E2 =    -0.1027223284D+01 EUMP2 =    -0.68221077610690D+01

 The electronic state is 1-AG.
 Alpha  occ. eigenvalues --   -0.73471  -0.71809  -0.69009  -0.65723  -0.62648
 Alpha  occ. eigenvalues --   -0.19527
 Alpha virt. eigenvalues --   -0.15176   0.42472   0.47220   0.54665   0.63098
 Alpha virt. eigenvalues --    0.70153

 Mulliken charges:
               1
     1  H    0.001912
     2  H   -0.003008
     3  H   -0.000350
     4  H    0.000683
     5  H    0.000033
     6  H    0.000731
     7  H    0.000731
     8  H    0.000033
     9  H    0.000683
    10  H   -0.000350
    11  H   -0.003008
    12  H    0.001912
 Sum of Mulliken charges =  -0.00000

 Dipole moment (field-independent basis, Debye):
    X=              0.0000    Y=              0.0000    Z=              0.0000  Tot=              0.0000
 Quadrupole moment (field-independent basis, Debye-Ang):
   XX=            -20.5284   YY=            -14.5793   ZZ=            -15.9459
   XY=             -0.4366   XZ=              0.0000   YZ=              0.0000

 Normal termination of Gaussian 09 at Fri Feb 17 13:56:20 2017.
