 Gaussian 09, Revision E.01,
 Gaussian 09:  ES64L-G09RevE.01 30-Nov-2015

 ----------------------------------------------------------------------
 #rhf/gen scf(symm,tight,novaracc,noincfock,fulldiag) stable(crhf) gues
 s=read geom=nocrowd test
 ----------------------------------------------------------------------

 hf stability analysis of h12 triangular lattice, y= 1.0644781770328475
  alpha= 63.000000000000000
 ----------------------------------------------------------------------
 Symbolic Z-matrix:
 Charge =  0 Multiplicity = 1

                         Standard orientation:
 ---------------------------------------------------------------------
 Center     Atomic      Atomic             Coordinates (Angstroms)
 Number     Number       Type             X           Y           Z
 ---------------------------------------------------------------------
      1          1           0        3.193434    1.084757    0.000000
      2          1           0        2.128956    1.627136    0.000000
      3          1           0        2.128956    0.542379    0.000000
      4          1           0        1.064478    1.084757    0.000000
      5          1           0        1.064478    0.000000    0.000000
      6          1           0        0.000000    0.542379    0.000000
      7          1           0       -0.000000   -0.542379   -0.000000
      8          1           0       -1.064478    0.000000    0.000000
      9          1           0       -1.064478   -1.084757    0.000000
     10          1           0       -2.128956   -0.542379    0.000000
     11          1           0       -2.128956   -1.627136    0.000000
     12          1           0       -3.193434   -1.084757    0.000000
 ---------------------------------------------------------------------

 SCF Done:  E(RHF) =  -5.80242967562     A.U. after   10 cycles
 E2 =    -0.1369127623D+00 EUMP2 =    -0.59393424378781D+01

 The electronic state is 1-AG.
 Alpha  occ. eigenvalues --   -0.85395  -0.77940  -0.65094  -0.45908  -0.34113
 Alpha  occ. eigenvalues --   -0.27014
 Alpha virt. eigenvalues --    0.00553   0.09366   0.25914   0.32896   0.51022
 Alpha virt. eigenvalues --    0.61348

 Mulliken charges:
               1
     1  H   -0.101900
     2  H    0.136564
     3  H    0.186260
     4  H   -0.236144
     5  H   -0.122923
     6  H    0.138142
     7  H    0.138142
     8  H   -0.122923
     9  H   -0.236144
    10  H    0.186260
    11  H    0.136564
    12  H   -0.101900
 Sum of Mulliken charges =  -0.00000

 Dipole moment (field-independent basis, Debye):
    X=             -0.0000    Y=             -0.0000    Z=             -0.0000  Tot=              0.0000
 Quadrupole moment (field-independent basis, Debye-Ang):
   XX=            -17.9969   YY=            -17.4301   ZZ=            -15.6362
   XY=              1.4660   XZ=              0.0000   YZ=             -0.0000

 Normal termination of Gaussian 09 at Fri Feb 17 14:00:25 2017.
