 Gaussian 09, Revision E.01,
 Gaussian 09:  ES64L-G09RevE.01 30-Nov-2015

 ----------------------------------------------------------------------
 #rhf/gen scf(symm,tight,novaracc,noincfock,fulldiag) stable(crhf) gues
 s=read geom=nocrowd test
 ----------------------------------------------------------------------

 hf stability analysis of h12 triangular lattice, y= 0.6240414150047446
 4 alpha= 34.000000000000000
 ----------------------------------------------------------------------
 Symbolic Z-matrix:
 Charge =  0 Multiplicity = 1

                         Standard orientation:
 ---------------------------------------------------------------------
 Center     Atomic      Atomic             Coordinates (Angstroms)
 Number     Number       Type             X           Y           Z
 ---------------------------------------------------------------------
      1          1           0        1.850359    1.872124    0.000000
      2          1           0        2.775538    1.248083    0.000000
      3          1           0        0.925179    1.248083    0.000000
      4          1           0        1.850359    0.624041    0.000000
      5          1           0        0.000000    0.624041    0.000000
      6          1           0        0.925179    0.000000   -0.000000
      7          1           0       -0.925179    0.000000   -0.000000
      8          1           0       -0.000000   -0.624041    0.000000
      9          1           0       -1.850359   -0.624041   -0.000000
     10          1           0       -0.925179   -1.248083   -0.000000
     11          1           0       -2.775538   -1.248083   -0.000000
     12          1           0       -1.850359   -1.872124   -0.000000
 ---------------------------------------------------------------------

 SCF Done:  E(RHF) =  -5.89620368308     A.U. after   10 cycles
 E2 =    -0.1269331260D+00 EUMP2 =    -0.60231368090993D+01

 The electronic state is 1-AG.
 Alpha  occ. eigenvalues --   -0.87687  -0.78745  -0.64014  -0.44636  -0.41930
 Alpha  occ. eigenvalues --   -0.31357
 Alpha virt. eigenvalues --    0.03293   0.06688   0.32934   0.35672   0.61643
 Alpha virt. eigenvalues --    0.74190

 Mulliken charges:
               1
     1  H    0.043261
     2  H    0.021334
     3  H   -0.146777
     4  H    0.088322
     5  H    0.157784
     6  H   -0.163924
     7  H   -0.163924
     8  H    0.157784
     9  H    0.088322
    10  H   -0.146777
    11  H    0.021334
    12  H    0.043261
 Sum of Mulliken charges =  -0.00000

 Dipole moment (field-independent basis, Debye):
    X=             -0.0000    Y=              0.0000    Z=              0.0000  Tot=              0.0000
 Quadrupole moment (field-independent basis, Debye-Ang):
   XX=            -14.3682   YY=            -18.2076   ZZ=            -15.5949
   XY=              2.8880   XZ=              0.0000   YZ=              0.0000

 Normal termination of Gaussian 09 at Fri Feb 17 13:51:11 2017.
