 Gaussian 09, Revision E.01,
 Gaussian 09:  ES64L-G09RevE.01 30-Nov-2015

 ----------------------------------------------------------------------
 #rhf/gen scf(symm,tight,novaracc,noincfock,fulldiag) stable(crhf) gues
 s=read geom=nocrowd test
 ----------------------------------------------------------------------

 hf stability analysis of h12 triangular lattice, y= 1.1127136872907215
  alpha= 65.000000000000000
 ----------------------------------------------------------------------
 Symbolic Z-matrix:
 Charge =  0 Multiplicity = 1

                         Standard orientation:
 ---------------------------------------------------------------------
 Center     Atomic      Atomic             Coordinates (Angstroms)
 Number     Number       Type             X           Y           Z
 ---------------------------------------------------------------------
      1          1           0        3.338141    1.037734    0.000000
      2          1           0        2.225427    1.556601    0.000000
      3          1           0        2.225427    0.518867    0.000000
      4          1           0        1.112714    1.037734    0.000000
      5          1           0        1.112714   -0.000000    0.000000
      6          1           0        0.000000    0.518867   -0.000000
      7          1           0       -0.000000   -0.518867   -0.000000
      8          1           0       -1.112714    0.000000    0.000000
      9          1           0       -1.112714   -1.037734    0.000000
     10          1           0       -2.225427   -0.518867    0.000000
     11          1           0       -2.225427   -1.556601    0.000000
     12          1           0       -3.338141   -1.037734    0.000000
 ---------------------------------------------------------------------

 SCF Done:  E(RHF) =  -5.77932800026     A.U. after   11 cycles
 E2 =    -0.1450818485D+00 EUMP2 =    -0.59244098487295D+01

 The electronic state is 1-AG.
 Alpha  occ. eigenvalues --   -0.84041  -0.77911  -0.65232  -0.46882  -0.29549
 Alpha  occ. eigenvalues --   -0.26549
 Alpha virt. eigenvalues --    0.01157   0.09926   0.24038   0.29528   0.47542
 Alpha virt. eigenvalues --    0.62030

 Mulliken charges:
               1
     1  H   -0.143671
     2  H    0.167597
     3  H    0.191734
     4  H   -0.203303
     5  H   -0.073953
     6  H    0.061596
     7  H    0.061596
     8  H   -0.073953
     9  H   -0.203303
    10  H    0.191734
    11  H    0.167597
    12  H   -0.143671
 Sum of Mulliken charges =  -0.00000

 Dipole moment (field-independent basis, Debye):
    X=              0.0000    Y=              0.0000    Z=             -0.0000  Tot=              0.0000
 Quadrupole moment (field-independent basis, Debye-Ang):
   XX=            -20.2349   YY=            -16.4861   ZZ=            -15.6314
   XY=              0.8394   XZ=              0.0000   YZ=             -0.0000

 Normal termination of Gaussian 09 at Fri Feb 17 14:00:49 2017.
