 Gaussian 09, Revision E.01,
 Gaussian 09:  ES64L-G09RevE.01 30-Nov-2015

 ----------------------------------------------------------------------
 #rhf/gen scf(symm,tight,novaracc,noincfock,fulldiag) stable(crhf) gues
 s=read geom=nocrowd test
 ----------------------------------------------------------------------

 hf stability analysis of h12 triangular lattice, y= 0.5657123745340343
 3 alpha= 29.000000000000000
 ----------------------------------------------------------------------
 Symbolic Z-matrix:
 Charge =  0 Multiplicity = 1

                         Standard orientation:
 ---------------------------------------------------------------------
 Center     Atomic      Atomic             Coordinates (Angstroms)
 Number     Number       Type             X           Y           Z
 ---------------------------------------------------------------------
      1          1           0        2.041144    1.697137   -0.000000
      2          1           0        3.061716    1.131425   -0.000000
      3          1           0        1.020572    1.131425   -0.000000
      4          1           0        2.041144    0.565712   -0.000000
      5          1           0        0.000000    0.565712    0.000000
      6          1           0        1.020572    0.000000   -0.000000
      7          1           0       -1.020572    0.000000    0.000000
      8          1           0       -0.000000   -0.565712   -0.000000
      9          1           0       -2.041144   -0.565712   -0.000000
     10          1           0       -1.020572   -1.131425   -0.000000
     11          1           0       -3.061716   -1.131425   -0.000000
     12          1           0       -2.041144   -1.697137   -0.000000
 ---------------------------------------------------------------------

 SCF Done:  E(RHF) =  -5.83111787400     A.U. after   10 cycles
 E2 =    -0.1318570368D+00 EUMP2 =    -0.59629749107641D+01

 The electronic state is 1-AG.
 Alpha  occ. eigenvalues --   -0.86248  -0.77965  -0.64681  -0.45141  -0.37435
 Alpha  occ. eigenvalues --   -0.28098
 Alpha virt. eigenvalues --    0.00785   0.08456   0.28764   0.34073   0.56962
 Alpha virt. eigenvalues --    0.61309

 Mulliken charges:
               1
     1  H    0.089188
     2  H   -0.039092
     3  H   -0.223635
     4  H    0.159804
     5  H    0.176952
     6  H   -0.163218
     7  H   -0.163218
     8  H    0.176952
     9  H    0.159804
    10  H   -0.223635
    11  H   -0.039092
    12  H    0.089188
 Sum of Mulliken charges =   0.00000

 Dipole moment (field-independent basis, Debye):
    X=             -0.0000    Y=              0.0000    Z=             -0.0000  Tot=              0.0000
 Quadrupole moment (field-independent basis, Debye-Ang):
   XX=            -15.1768   YY=            -18.1934   ZZ=            -15.6381
   XY=              2.2807   XZ=              0.0000   YZ=             -0.0000

 Normal termination of Gaussian 09 at Fri Feb 17 13:52:14 2017.
