 Gaussian 09, Revision E.01,
 Gaussian 09:  ES64L-G09RevE.01 30-Nov-2015

 ----------------------------
 # RHF/6-31G(d) Pop=Full Test
 ----------------------------

 ------------------------------------------------
 single point energy calculation for formaldehyde
 ------------------------------------------------
 Symbolic Z-matrix:
 Charge =  0 Multiplicity = 1

                         Standard orientation:
 ---------------------------------------------------------------------
 Center     Atomic      Atomic             Coordinates (Angstroms)
 Number     Number       Type             X           Y           Z
 ---------------------------------------------------------------------
      1          6           0        0.000000    0.000000   -0.542500
      2          8           0        0.000000    0.000000    0.677500
      3          1           0       -0.000000    0.935307   -1.082500
      4          1           0       -0.000000   -0.935307   -1.082500
 ---------------------------------------------------------------------

 SCF Done:  E(RHF) =  -113.863705049     A.U. after   11 cycles

 The electronic state is 1-A1.
 Alpha  occ. eigenvalues --  -20.58193 -11.33839  -1.39225  -0.87410  -0.69783
 Alpha  occ. eigenvalues --   -0.63943  -0.52280  -0.44074
 Alpha virt. eigenvalues --    0.13577   0.24969   0.33416   0.37335   0.73682
 Alpha virt. eigenvalues --    0.80798   0.84466   0.94734   1.10481   1.10979
 Alpha virt. eigenvalues --    1.14331   1.27169   1.33535   1.62067   1.78180

 Mulliken charges:
               1
     1  C    0.130124
     2  O   -0.441046
     3  H    0.155461
     4  H    0.155461
 Sum of Mulliken charges =   0.00000

 Dipole moment (field-independent basis, Debye):
    X=             -0.0000    Y=              0.0000    Z=             -2.8488  Tot=              2.8488
 Quadrupole moment (field-independent basis, Debye-Ang):
   XX=            -11.5269   YY=            -11.3146   ZZ=            -11.8868
   XY=              0.0000   XZ=              0.0000   YZ=              0.0000

 Normal termination of Gaussian 09 at Tue Nov 22 13:54:16 2016.
