 Gaussian 09, Revision E.01,
 Gaussian 09:  ES64L-G09RevE.01 30-Nov-2015

 ----------------------------
 # RHF/6-31G(d) Pop=Full Test
 ----------------------------

 ------------------------------------------------
 single point energy calculation for formaldehyde
 ------------------------------------------------
 Symbolic Z-matrix:
 Charge =  0 Multiplicity = 1

                         Standard orientation:
 ---------------------------------------------------------------------
 Center     Atomic      Atomic             Coordinates (Angstroms)
 Number     Number       Type             X           Y           Z
 ---------------------------------------------------------------------
      1          6           0       -0.000000   -0.000000   -0.542500
      2          8           0        0.000000    0.000000    0.677500
      3          1           0       -0.000000    0.940000   -1.082500
      4          1           0       -0.000000   -0.940000   -1.082500
 ---------------------------------------------------------------------

 SCF Done:  E(RHF) =  -113.863703683     A.U. after   11 cycles

 The electronic state is 1-A1.
 Alpha  occ. eigenvalues --  -20.58203 -11.33927  -1.39235  -0.87257  -0.69706
 Alpha  occ. eigenvalues --   -0.63916  -0.52290  -0.44043
 Alpha virt. eigenvalues --    0.13577   0.24838   0.33337   0.37335   0.73665
 Alpha virt. eigenvalues --    0.80780   0.84690   0.94701   1.10471   1.10702
 Alpha virt. eigenvalues --    1.13933   1.27161   1.33554   1.62068   1.78202

 Mulliken charges:
               1
     1  C    0.129335
     2  O   -0.440414
     3  H    0.155539
     4  H    0.155539
 Sum of Mulliken charges =   0.00000

 Dipole moment (field-independent basis, Debye):
    X=             -0.0000    Y=             -0.0000    Z=             -2.8449  Tot=              2.8449
 Quadrupole moment (field-independent basis, Debye-Ang):
   XX=            -11.5378   YY=            -11.3104   ZZ=            -11.8997
   XY=              0.0000   XZ=              0.0000   YZ=              0.0000

 Normal termination of Gaussian 09 at Mon Nov 21 14:42:03 2016.
