 Gaussian 09, Revision E.01,
 Gaussian 09:  ES64L-G09RevE.01 30-Nov-2015

 ----------------------------------------------------------------------
 #rhf/gen scf(tight,novaracc,noincfock,fulldiag) stable(crhf) guess=mix
  geom=nocrowd test
 ----------------------------------------------------------------------

 hf stability analysis of h10 triangular lattice, y= 0.7210052279144877
 3
 ----------------------------------------------------------------------
 Symbolic Z-matrix:
 Charge =  0 Multiplicity = 1

                         Standard orientation:
 ---------------------------------------------------------------------
 Center     Atomic      Atomic             Coordinates (Angstroms)
 Number     Number       Type             X           Y           Z
 ---------------------------------------------------------------------
      1          1           0        2.143245    0.313499   -0.000000
      2          1           0        2.143245   -0.764027   -0.000000
      3          1           0        1.071623    0.426131   -0.000000
      4          1           0        1.071623   -0.651395   -0.000000
      5          1           0       -0.000000    0.538763   -0.000000
      6          1           0       -0.000000   -0.538763   -0.000000
      7          1           0       -1.071623    0.651395    0.000000
      8          1           0       -1.071623   -0.426131    0.000000
      9          1           0       -2.143245    0.764027    0.000000
     10          1           0       -2.143245   -0.313499    0.000000
 ---------------------------------------------------------------------

 SCF Done:  E(RHF) =  -4.83207876216     A.U. after   24 cycles
 E2 =    -0.9520058689D-01 EUMP2 =    -0.49272793490529D+01

 Unable to determine electronic state:  partially filled degenerate orbitals.
 Alpha  occ. eigenvalues --   -0.86749  -0.73849  -0.53819  -0.42341  -0.27119
 Alpha virt. eigenvalues --   -0.04940   0.19311   0.34253   0.51802   0.90075

 Mulliken charges:
               1
     1  H    0.294782
     2  H   -0.252256
     3  H   -0.315866
     4  H    0.250579
     5  H    0.120448
     6  H   -0.109323
     7  H   -0.270877
     8  H    0.220471
     9  H    0.249143
    10  H   -0.187101
 Sum of Mulliken charges =   0.00000

 Dipole moment (field-independent basis, Debye):
    X=             -0.2775    Y=              0.4309    Z=              0.0000  Tot=              0.5126
 Quadrupole moment (field-independent basis, Debye-Ang):
   XX=            -14.0858   YY=            -14.7138   ZZ=            -12.8496
   XY=              0.3922   XZ=              0.0000   YZ=              0.0000

 Normal termination of Gaussian 09 at Mon Feb 13 14:08:38 2017.
