 Gaussian 09, Revision E.01,
 Gaussian 09:  ES64L-G09RevE.01 30-Nov-2015

 ----------------------------------------------------------------------
 #rhf/gen scf(tight,novaracc,noincfock,fulldiag) stable(crhf) guess=mix
  geom=nocrowd test
 ----------------------------------------------------------------------

 hf stability analysis of h10 triangular lattice, y= 0.3023959355609886
 5
 ----------------------------------------------------------------------
 Symbolic Z-matrix:
 Charge =  0 Multiplicity = 1

                         Standard orientation:
 ---------------------------------------------------------------------
 Center     Atomic      Atomic             Coordinates (Angstroms)
 Number     Number       Type             X           Y           Z
 ---------------------------------------------------------------------
      1          1           0        1.194692   -2.710357    0.000000
      2          1           0        1.194692   -4.643409    0.000000
      3          1           0        0.597346   -0.871916    0.000000
      4          1           0        0.597346   -2.804967    0.000000
      5          1           0        0.000000    0.966526   -0.000000
      6          1           0       -0.000000   -0.966526   -0.000000
      7          1           0       -0.597346    2.804967    0.000000
      8          1           0       -0.597346    0.871916    0.000000
      9          1           0       -1.194692    4.643409    0.000000
     10          1           0       -1.194692    2.710357    0.000000
 ---------------------------------------------------------------------

 SCF Done:  E(RHF) =  -4.85351979100     A.U. after   19 cycles
 E2 =    -0.7614817781D+00 EUMP2 =    -0.56150015690507D+01

 The electronic state is 1-AG.
 Alpha  occ. eigenvalues --   -0.73548  -0.70487  -0.65706  -0.60508  -0.19515
 Alpha virt. eigenvalues --   -0.13888   0.38563   0.46075   0.57148   0.67831

 Mulliken charges:
               1
     1  H    0.004225
     2  H   -0.009421
     3  H   -0.000049
     4  H    0.003692
     5  H    0.001552
     6  H    0.001552
     7  H    0.003692
     8  H   -0.000049
     9  H   -0.009421
    10  H    0.004225
 Sum of Mulliken charges =  -0.00000

 Dipole moment (field-independent basis, Debye):
    X=              0.0000    Y=              0.0000    Z=             -0.0000  Tot=              0.0000
 Quadrupole moment (field-independent basis, Debye-Ang):
   XX=            -12.3272   YY=            -17.9966   ZZ=            -13.2211
   XY=              1.4484   XZ=              0.0000   YZ=              0.0000

 Normal termination of Gaussian 09 at Mon Feb 13 14:09:33 2017.
