 Gaussian 09, Revision E.01,
 Gaussian 09:  ES64L-G09RevE.01 30-Nov-2015

 ----------------------------------------------------------------------
 #rhf/gen scf(symm,tight,novaracc,noincfock,fulldiag) stable(crhf) gues
 s=read geom=nocrowd test
 ----------------------------------------------------------------------

 ----------------------------------------------------------------------
 hf stability analysis of h10 triangular lattice, y= 2.5688804782633659
 ----------------------------------------------------------------------
 Symbolic Z-matrix:
 Charge =  0 Multiplicity = 1

                         Standard orientation:
 ---------------------------------------------------------------------
 Center     Atomic      Atomic             Coordinates (Angstroms)
 Number     Number       Type             X           Y           Z
 ---------------------------------------------------------------------
      1          1           0        0.000000    0.224748    5.137761
      2          1           0        0.000000    0.449496    2.568880
      3          1           0        0.000000    0.000000    2.568880
      4          1           0        0.000000    0.224748    0.000000
      5          1           0        0.000000    0.000000   -2.568880
      6          1           0       -0.000000   -0.224748   -5.137761
      7          1           0       -0.000000   -0.224748   -0.000000
      8          1           0       -0.000000   -0.449496   -2.568880
      9          1           0       -0.000000   -0.224748    5.137761
     10          1           0       -0.000000   -0.449496    2.568880
     11          1           0        0.000000    0.449496   -2.568880
     12          1           0        0.000000    0.224748   -5.137761
 ---------------------------------------------------------------------

 SCF Done:  E(RHF) =  -2.80410770150     A.U. after   10 cycles
 E2 =    -0.2828175672D+00 EUMP2 =    -0.30869252687226D+01

 The electronic state is 1-AG.
 Alpha  occ. eigenvalues --   -0.80536  -0.79858  -0.73876  -0.69420  -0.16740
 Alpha  occ. eigenvalues --   -0.16501
 Alpha virt. eigenvalues --   -0.65603   0.56718   0.56745   0.71159   1.72815
 Alpha virt. eigenvalues --    1.72955

 Mulliken charges:
               1
     1  H    0.141895
     2  H   -0.108903
     3  H   -0.062305
     4  H   -0.003679
     5  H   -0.062305
     6  H    0.141895
     7  H   -0.003679
     8  H   -0.108903
     9  H    0.141895
    10  H   -0.108903
    11  H   -0.108903
    12  H    0.141895
 Sum of Mulliken charges =  -0.00000

 Dipole moment (field-independent basis, Debye):
    X=              0.0000    Y=              0.0000    Z=              0.0000  Tot=              0.0000
 Quadrupole moment (field-independent basis, Debye-Ang):
   XX=            -14.8714   YY=            -20.8386   ZZ=             39.7440
   XY=             -0.0000   XZ=             -0.0000   YZ=              0.0000

 Normal termination of Gaussian 09 at Sat Feb 18 11:51:14 2017.
