 Gaussian 09, Revision E.01,
 Gaussian 09:  ES64L-G09RevE.01 30-Nov-2015

 ----------------------------------------------------------------------
 #rhf/gen scf(symm,tight,novaracc,noincfock,fulldiag) stable(crhf) geom
 =nocrowd test
 ----------------------------------------------------------------------

 ----------------------------------------------------------------------
 hf stability analysis of h8 triangular lattice, y= 0.50700385538738835
 ----------------------------------------------------------------------
 Symbolic Z-matrix:
 Charge =  0 Multiplicity = 1

                         Standard orientation:
 ---------------------------------------------------------------------
 Center     Atomic      Atomic             Coordinates (Angstroms)
 Number     Number       Type             X           Y           Z
 ---------------------------------------------------------------------
      1          1           0        1.138749    1.014008   -0.000000
      2          1           0        2.277499    0.507004   -0.000000
      3          1           0        0.000000    0.507004   -0.000000
      4          1           0        1.138749    0.000000   -0.000000
      5          1           0       -1.138749    0.000000   -0.000000
      6          1           0       -0.000000   -0.507004   -0.000000
      7          1           0       -2.277499   -0.507004   -0.000000
      8          1           0       -1.138749   -1.014008   -0.000000
 ---------------------------------------------------------------------

 SCF Done:  E(RHF) =  -3.87941697443     A.U. after   10 cycles
 E2 =    -0.8984129383D-01 EUMP2 =    -0.39692582682582D+01

 The electronic state is 1-AG.
 Alpha  occ. eigenvalues --   -0.80221  -0.66526  -0.41901  -0.26394
 Alpha virt. eigenvalues --    0.07739   0.12440   0.35110   0.51801

 Mulliken charges:
               1
     1  H    0.053628
     2  H   -0.009571
     3  H   -0.220897
     4  H    0.176841
     5  H    0.176841
     6  H   -0.220897
     7  H   -0.009571
     8  H    0.053628
 Sum of Mulliken charges =   0.00000

 Dipole moment (field-independent basis, Debye):
    X=             -0.0000    Y=             -0.0000    Z=             -0.0000  Tot=              0.0000
 Quadrupole moment (field-independent basis, Debye-Ang):
   XX=             -9.1054   YY=            -12.0285   ZZ=            -10.5984
   XY=              1.1448   XZ=              0.0000   YZ=             -0.0000

 Normal termination of Gaussian 09 at Fri Feb 10 11:45:59 2017.
