 Gaussian 09, Revision E.01,
 Gaussian 09:  ES64L-G09RevE.01 30-Nov-2015

 ----------------------------------------------------------------------
 #rhf/gen scf(symm,tight,novaracc,noincfock,fulldiag) stable(crhf) geom
 =nocrowd test
 ----------------------------------------------------------------------

 ----------------------------------------------------------------------
 hf stability analysis of h8 triangular lattice, y= 0.39331989892118169
 ----------------------------------------------------------------------
 Symbolic Z-matrix:
 Charge =  0 Multiplicity = 1

                         Standard orientation:
 ---------------------------------------------------------------------
 Center     Atomic      Atomic             Coordinates (Angstroms)
 Number     Number       Type             X           Y           Z
 ---------------------------------------------------------------------
      1          1           0        1.467890    0.786640   -0.000000
      2          1           0        2.935780    0.393320   -0.000000
      3          1           0        0.000000    0.393320   -0.000000
      4          1           0        1.467890    0.000000   -0.000000
      5          1           0       -1.467890    0.000000   -0.000000
      6          1           0       -0.000000   -0.393320   -0.000000
      7          1           0       -2.935780   -0.393320   -0.000000
      8          1           0       -1.467890   -0.786640   -0.000000
 ---------------------------------------------------------------------

 SCF Done:  E(RHF) =  -3.86433417627     A.U. after   10 cycles
 E2 =    -0.2460521180D+00 EUMP2 =    -0.41103862943010D+01

 The electronic state is 1-AG.
 Alpha  occ. eigenvalues --   -0.78917  -0.67760  -0.52075  -0.16726
 Alpha virt. eigenvalues --   -0.03240   0.17565   0.34796   0.55316

 Mulliken charges:
               1
     1  H    0.049047
     2  H   -0.142493
     3  H    0.027619
     4  H    0.065827
     5  H    0.065827
     6  H    0.027619
     7  H   -0.142493
     8  H    0.049047
 Sum of Mulliken charges =  -0.00000

 Dipole moment (field-independent basis, Debye):
    X=             -0.0000    Y=              0.0000    Z=              0.0000  Tot=              0.0000
 Quadrupole moment (field-independent basis, Debye-Ang):
   XX=            -23.7154   YY=             -9.1845   ZZ=            -10.4338
   XY=             -1.7703   XZ=             -0.0000   YZ=             -0.0000

 Normal termination of Gaussian 09 at Fri Feb 10 11:46:15 2017.
