 Gaussian 09, Revision E.01,
 Gaussian 09:  ES64L-G09RevE.01 30-Nov-2015

 ----------------------------------------------------------------------
 #rhf/gen scf(symm,tight,novaracc,noincfock,fulldiag) stable(crhf) gues
 s=read geom=nocrowd test
 ----------------------------------------------------------------------

 ----------------------------------------------------------------------
 hf stability analysis of h10 triangular lattice, y= 1.5217180473945009
 ----------------------------------------------------------------------
 Symbolic Z-matrix:
 Charge =  0 Multiplicity = 1

                         Standard orientation:
 ---------------------------------------------------------------------
 Center     Atomic      Atomic             Coordinates (Angstroms)
 Number     Number       Type             X           Y           Z
 ---------------------------------------------------------------------
      1          1           0        4.565154    0.758814    0.000000
      2          1           0        3.043436    1.138221    0.000000
      3          1           0        3.043436    0.379407    0.000000
      4          1           0        1.521718    0.758814    0.000000
      5          1           0        1.521718    0.000000    0.000000
      6          1           0        0.000000    0.379407   -0.000000
      7          1           0       -0.000000   -0.379407   -0.000000
      8          1           0       -1.521718    0.000000    0.000000
      9          1           0       -1.521718   -0.758814    0.000000
     10          1           0       -3.043436   -0.379407    0.000000
     11          1           0       -3.043436   -1.138221    0.000000
     12          1           0       -4.565154   -0.758814    0.000000
 ---------------------------------------------------------------------

 SCF Done:  E(RHF) =  -5.91871190334     A.U. after    8 cycles
 E2 =    -0.5937827614D+00 EUMP2 =    -0.65124946647040D+01

 The electronic state is 1-AG.
 Alpha  occ. eigenvalues --   -0.76931  -0.72991  -0.65839  -0.56626  -0.45823
 Alpha  occ. eigenvalues --   -0.14118
 Alpha virt. eigenvalues --   -0.07554   0.20206   0.27474   0.39483   0.53468
 Alpha virt. eigenvalues --    0.65625

 Mulliken charges:
               1
     1  H   -0.095845
     2  H    0.023145
     3  H    0.044289
     4  H    0.007207
     5  H    0.014086
     6  H    0.007119
     7  H    0.007119
     8  H    0.014086
     9  H    0.007207
    10  H    0.044289
    11  H    0.023145
    12  H   -0.095845
 Sum of Mulliken charges =  -0.00000

 Dipole moment (field-independent basis, Debye):
    X=             -0.0000    Y=             -0.0000    Z=             -0.0000  Tot=              0.0000
 Quadrupole moment (field-independent basis, Debye-Ang):
   XX=            -35.1601   YY=            -13.6339   ZZ=            -15.4062
   XY=             -3.2404   XZ=             -0.0000   YZ=             -0.0000

 Normal termination of Gaussian 09 at Thu Feb  9 18:44:24 2017.
