 Gaussian 09, Revision E.01,
 Gaussian 09:  ES64L-G09RevE.01 30-Nov-2015

 ----------------------------------------------------------------------
 #rhf/gen scf(symm,tight,novaracc,noincfock,fulldiag) stable(crhf) gues
 s=read geom=nocrowd test
 ----------------------------------------------------------------------

 ----------------------------------------------------------------------
 hf stability analysis of h10 triangular lattice, y= 1.1954046164231349
 ----------------------------------------------------------------------
 Symbolic Z-matrix:
 Charge =  0 Multiplicity = 1

                         Standard orientation:
 ---------------------------------------------------------------------
 Center     Atomic      Atomic             Coordinates (Angstroms)
 Number     Number       Type             X           Y           Z
 ---------------------------------------------------------------------
      1          1           0        3.586214    0.965950    0.000000
      2          1           0        2.390809    1.448924    0.000000
      3          1           0        2.390809    0.482975    0.000000
      4          1           0        1.195405    0.965950    0.000000
      5          1           0        1.195405    0.000000    0.000000
      6          1           0        0.000000    0.482975    0.000000
      7          1           0       -0.000000   -0.482975    0.000000
      8          1           0       -1.195405    0.000000    0.000000
      9          1           0       -1.195405   -0.965950    0.000000
     10          1           0       -2.390809   -0.482975    0.000000
     11          1           0       -2.390809   -1.448924    0.000000
     12          1           0       -3.586214   -0.965950    0.000000
 ---------------------------------------------------------------------

 SCF Done:  E(RHF) =  -5.74691016424     A.U. after   12 cycles
 E2 =    -0.1599217287D+00 EUMP2 =    -0.59068318929716D+01

 The electronic state is 1-AG.
 Alpha  occ. eigenvalues --   -0.81523  -0.77029  -0.64738  -0.48058  -0.27639
 Alpha  occ. eigenvalues --   -0.22235
 Alpha virt. eigenvalues --    0.03817   0.07850   0.21645   0.24844   0.46692
 Alpha virt. eigenvalues --    0.64134

 Mulliken charges:
               1
     1  H   -0.104530
     2  H    0.130577
     3  H    0.172779
     4  H   -0.125097
     5  H   -0.058597
     6  H   -0.015132
     7  H   -0.015132
     8  H   -0.058597
     9  H   -0.125097
    10  H    0.172779
    11  H    0.130577
    12  H   -0.104530
 Sum of Mulliken charges =  -0.00000

 Dipole moment (field-independent basis, Debye):
    X=             -0.0000    Y=              0.0000    Z=              0.0000  Tot=              0.0000
 Quadrupole moment (field-independent basis, Debye-Ang):
   XX=            -17.6432   YY=            -16.1315   ZZ=            -15.6615
   XY=              1.1393   XZ=              0.0000   YZ=             -0.0000

 Normal termination of Gaussian 09 at Thu Feb  9 18:44:06 2017.
