 Gaussian 09, Revision E.01,
 Gaussian 09:  ES64L-G09RevE.01 30-Nov-2015

 ----------------------------------------------------------------------
 #rhf/gen scf(symm,tight,novaracc,noincfock,fulldiag) stable(crhf) gues
 s=read geom=nocrowd test
 ----------------------------------------------------------------------

 ----------------------------------------------------------------------
 hf stability analysis of h10 triangular lattice, y= 2.0268354180156947
 ----------------------------------------------------------------------
 Symbolic Z-matrix:
 Charge =  0 Multiplicity = 1

                         Standard orientation:
 ---------------------------------------------------------------------
 Center     Atomic      Atomic             Coordinates (Angstroms)
 Number     Number       Type             X           Y           Z
 ---------------------------------------------------------------------
      1          1           0        6.080506    0.569706    0.000000
      2          1           0        4.053671    0.854559    0.000000
      3          1           0        4.053671    0.284853    0.000000
      4          1           0        2.026835    0.569706    0.000000
      5          1           0        2.026835   -0.000000    0.000000
      6          1           0        0.000000    0.284853   -0.000000
      7          1           0       -0.000000   -0.284853   -0.000000
      8          1           0       -2.026835    0.000000    0.000000
      9          1           0       -2.026835   -0.569706    0.000000
     10          1           0       -4.053671   -0.284853    0.000000
     11          1           0       -4.053671   -0.854559    0.000000
     12          1           0       -6.080506   -0.569706    0.000000
 ---------------------------------------------------------------------

 SCF Done:  E(RHF) =  -5.79488481446     A.U. after    6 cycles
 E2 =    -0.1027223435D+01 EUMP2 =    -0.68221082497327D+01

 The electronic state is 1-AG.
 Alpha  occ. eigenvalues --   -0.73471  -0.71809  -0.69009  -0.65723  -0.62648
 Alpha  occ. eigenvalues --   -0.19527
 Alpha virt. eigenvalues --   -0.15176   0.42472   0.47220   0.54665   0.63098
 Alpha virt. eigenvalues --    0.70153

 Mulliken charges:
               1
     1  H   -0.003008
     2  H    0.001912
     3  H    0.000683
     4  H   -0.000350
     5  H    0.000731
     6  H    0.000033
     7  H    0.000033
     8  H    0.000731
     9  H   -0.000350
    10  H    0.000683
    11  H    0.001912
    12  H   -0.003008
 Sum of Mulliken charges =  -0.00000

 Dipole moment (field-independent basis, Debye):
    X=             -0.0000    Y=             -0.0000    Z=             -0.0000  Tot=              0.0000
 Quadrupole moment (field-independent basis, Debye-Ang):
   XX=            -20.5284   YY=            -14.5793   ZZ=            -15.9459
   XY=             -0.4366   XZ=             -0.0000   YZ=             -0.0000

 Normal termination of Gaussian 09 at Thu Feb  9 18:44:37 2017.
