 Gaussian 09, Revision E.01,
 Gaussian 09:  ES64L-G09RevE.01 30-Nov-2015

 ----------------------------------------------------------------------
 #rhf/gen scf(symm,tight,novaracc,noincfock,fulldiag) stable(crhf) gues
 s=read geom=nocrowd test
 ----------------------------------------------------------------------

 ----------------------------------------------------------------------
 hf stability analysis of h10 triangular lattice, y= 2.5688804782633659
 ----------------------------------------------------------------------
 Symbolic Z-matrix:
 Charge =  0 Multiplicity = 1

                         Standard orientation:
 ---------------------------------------------------------------------
 Center     Atomic      Atomic             Coordinates (Angstroms)
 Number     Number       Type             X           Y           Z
 ---------------------------------------------------------------------
      1          1           0        7.706641    0.449496    0.000000
      2          1           0        5.137761    0.674244    0.000000
      3          1           0        5.137761    0.224748    0.000000
      4          1           0        2.568880    0.449496    0.000000
      5          1           0        2.568880   -0.000000    0.000000
      6          1           0        0.000000    0.224748   -0.000000
      7          1           0       -0.000000   -0.224748   -0.000000
      8          1           0       -2.568880    0.000000    0.000000
      9          1           0       -2.568880   -0.449496    0.000000
     10          1           0       -5.137761   -0.224748    0.000000
     11          1           0       -5.137761   -0.674244    0.000000
     12          1           0       -7.706641   -0.449496    0.000000
 ---------------------------------------------------------------------

 SCF Done:  E(RHF) =  -5.12288365081     A.U. after    5 cycles
 E2 =    -0.1317547865D+01 EUMP2 =    -0.64404315162106D+01

 The electronic state is 1-AG.
 Alpha  occ. eigenvalues --   -0.74353  -0.73842  -0.73086  -0.72307  -0.71692
 Alpha  occ. eigenvalues --   -0.20194
 Alpha virt. eigenvalues --   -0.16767   0.59927   0.62667   0.66682   0.70996
 Alpha virt. eigenvalues --    0.74387

 Mulliken charges:
               1
     1  H    0.001228
     2  H   -0.000229
     3  H   -0.000998
     4  H   -0.000058
     5  H    0.000057
     6  H    0.000000
     7  H    0.000000
     8  H    0.000057
     9  H   -0.000058
    10  H   -0.000998
    11  H   -0.000229
    12  H    0.001228
 Sum of Mulliken charges =  -0.00000

 Dipole moment (field-independent basis, Debye):
    X=             -0.0000    Y=              0.0000    Z=              0.0000  Tot=              0.0000
 Quadrupole moment (field-independent basis, Debye-Ang):
   XX=            -17.4709   YY=            -15.3281   ZZ=            -16.2363
   XY=             -0.0768   XZ=              0.0000   YZ=              0.0000

 Normal termination of Gaussian 09 at Thu Feb  9 18:44:43 2017.
