 Gaussian 09, Revision E.01,
 Gaussian 09:  ES64L-G09RevE.01 30-Nov-2015

 ----------------------------------------------------------------------
 #rhf/gen scf(symm,tight,novaracc,noincfock,fulldiag) stable(crhf) gues
 s=read geom=nocrowd test
 ----------------------------------------------------------------------

 hf stability analysis of h10 triangular lattice, y= 0.6006400760937612
 4
 ----------------------------------------------------------------------
 Symbolic Z-matrix:
 Charge =  0 Multiplicity = 1

                         Standard orientation:
 ---------------------------------------------------------------------
 Center     Atomic      Atomic             Coordinates (Angstroms)
 Number     Number       Type             X           Y           Z
 ---------------------------------------------------------------------
      1          1           0        1.922450    1.801920   -0.000000
      2          1           0        2.883675    1.201280   -0.000000
      3          1           0        0.961225    1.201280   -0.000000
      4          1           0        1.922450    0.600640   -0.000000
      5          1           0        0.000000    0.600640    0.000000
      6          1           0        0.961225    0.000000   -0.000000
      7          1           0       -0.961225    0.000000   -0.000000
      8          1           0       -0.000000   -0.600640   -0.000000
      9          1           0       -1.922450   -0.600640   -0.000000
     10          1           0       -0.961225   -1.201280   -0.000000
     11          1           0       -2.883675   -1.201280   -0.000000
     12          1           0       -1.922450   -1.801920   -0.000000
 ---------------------------------------------------------------------

 SCF Done:  E(RHF) =  -5.87362151083     A.U. after   11 cycles
 E2 =    -0.1280689854D+00 EUMP2 =    -0.60016904962056D+01

 The electronic state is 1-AG.
 Alpha  occ. eigenvalues --   -0.87163  -0.78378  -0.64209  -0.44618  -0.40622
 Alpha  occ. eigenvalues --   -0.30087
 Alpha virt. eigenvalues --    0.02134   0.07327   0.33138   0.33657   0.61454
 Alpha virt. eigenvalues --    0.67355

 Mulliken charges:
               1
     1  H    0.051640
     2  H    0.011261
     3  H   -0.175484
     4  H    0.113300
     5  H    0.175194
     6  H   -0.175911
     7  H   -0.175911
     8  H    0.175194
     9  H    0.113300
    10  H   -0.175484
    11  H    0.011261
    12  H    0.051640
 Sum of Mulliken charges =   0.00000

 Dipole moment (field-independent basis, Debye):
    X=             -0.0000    Y=             -0.0000    Z=             -0.0000  Tot=              0.0000
 Quadrupole moment (field-independent basis, Debye-Ang):
   XX=            -13.9903   YY=            -18.3802   ZZ=            -15.6165
   XY=              2.8533   XZ=              0.0000   YZ=             -0.0000

 Normal termination of Gaussian 09 at Thu Feb  9 18:42:44 2017.
