 Gaussian 09, Revision E.01,
 Gaussian 09:  ES64L-G09RevE.01 30-Nov-2015

 ----------------------------------------------------------------------
 #rhf/gen scf(symm,tight,novaracc,noincfock,fulldiag) stable(crhf) gues
 s=read geom=nocrowd test
 ----------------------------------------------------------------------

 hf stability analysis of h10 triangular lattice, y= 0.9080427759821990
 7
 ----------------------------------------------------------------------
 Symbolic Z-matrix:
 Charge =  0 Multiplicity = 1

                         Standard orientation:
 ---------------------------------------------------------------------
 Center     Atomic      Atomic             Coordinates (Angstroms)
 Number     Number       Type             X           Y           Z
 ---------------------------------------------------------------------
      1          1           0        2.724128    1.271637   -0.000000
      2          1           0        1.816086    1.907455   -0.000000
      3          1           0        1.816086    0.635818   -0.000000
      4          1           0        0.908043    1.271637   -0.000000
      5          1           0        0.908043    0.000000    0.000000
      6          1           0       -0.000000    0.635818   -0.000000
      7          1           0       -0.000000   -0.635818   -0.000000
      8          1           0       -0.908043    0.000000    0.000000
      9          1           0       -0.908043   -1.271637    0.000000
     10          1           0       -1.816086   -0.635818    0.000000
     11          1           0       -1.816086   -1.907455    0.000000
     12          1           0       -2.724128   -1.271637    0.000000
 ---------------------------------------------------------------------

 SCF Done:  E(RHF) =  -5.90544513497     A.U. after   10 cycles
 E2 =    -0.1266093193D+00 EUMP2 =    -0.60320544542822D+01

 The electronic state is 1-AG.
 Alpha  occ. eigenvalues --   -0.87922  -0.78921  -0.63936  -0.44782  -0.42342
 Alpha  occ. eigenvalues --   -0.31934
 Alpha virt. eigenvalues --    0.03875   0.06399   0.32546   0.36780   0.61783
 Alpha virt. eigenvalues --    0.77456

 Mulliken charges:
               1
     1  H    0.023275
     2  H    0.041045
     3  H    0.077360
     4  H   -0.133981
     5  H   -0.154621
     6  H    0.146921
     7  H    0.146921
     8  H   -0.154621
     9  H   -0.133981
    10  H    0.077360
    11  H    0.041045
    12  H    0.023275
 Sum of Mulliken charges =  -0.00000

 Dipole moment (field-independent basis, Debye):
    X=              0.0000    Y=              0.0000    Z=             -0.0000  Tot=              0.0000
 Quadrupole moment (field-independent basis, Debye-Ang):
   XX=            -14.6578   YY=            -18.0989   ZZ=            -15.5842
   XY=              2.8564   XZ=             -0.0000   YZ=             -0.0000

 Normal termination of Gaussian 09 at Thu Feb  9 18:43:36 2017.
