 Gaussian 09, Revision E.01,
 Gaussian 09:  ES64L-G09RevE.01 30-Nov-2015

 ----------------------------------------------------------------------
 #rhf/gen scf(symm,tight,novaracc,noincfock,fulldiag) stable(crhf) gues
 s=read geom=nocrowd test
 ----------------------------------------------------------------------

 hf stability analysis of h10 triangular lattice, y= 0.6960275979088506
 0
 ----------------------------------------------------------------------
 Symbolic Z-matrix:
 Charge =  0 Multiplicity = 1

                         Standard orientation:
 ---------------------------------------------------------------------
 Center     Atomic      Atomic             Coordinates (Angstroms)
 Number     Number       Type             X           Y           Z
 ---------------------------------------------------------------------
      1          1           0        1.658987    2.088083    0.000000
      2          1           0        2.488480    1.392055   -0.000000
      3          1           0        0.829493    1.392055    0.000000
      4          1           0        1.658987    0.696028   -0.000000
      5          1           0        0.000000    0.696028    0.000000
      6          1           0        0.829493    0.000000   -0.000000
      7          1           0       -0.829493    0.000000   -0.000000
      8          1           0       -0.000000   -0.696028    0.000000
      9          1           0       -1.658987   -0.696028   -0.000000
     10          1           0       -0.829493   -1.392055   -0.000000
     11          1           0       -2.488480   -1.392055   -0.000000
     12          1           0       -1.658987   -2.088083   -0.000000
 ---------------------------------------------------------------------

 SCF Done:  E(RHF) =  -5.93426232303     A.U. after   10 cycles
 E2 =    -0.1262937380D+00 EUMP2 =    -0.60605560610368D+01

 The electronic state is 1-AG.
 Alpha  occ. eigenvalues --   -0.88773  -0.79589  -0.63662  -0.46193  -0.42825
 Alpha  occ. eigenvalues --   -0.34048
 Alpha virt. eigenvalues --    0.05325   0.06301   0.30829   0.40595   0.62796
 Alpha virt. eigenvalues --    0.90828

 Mulliken charges:
               1
     1  H    0.034527
     2  H    0.024915
     3  H   -0.077008
     4  H    0.027695
     5  H    0.078458
     6  H   -0.088587
     7  H   -0.088587
     8  H    0.078458
     9  H    0.027695
    10  H   -0.077008
    11  H    0.024915
    12  H    0.034527
 Sum of Mulliken charges =   0.00000

 Dipole moment (field-independent basis, Debye):
    X=              0.0000    Y=             -0.0000    Z=             -0.0000  Tot=              0.0000
 Quadrupole moment (field-independent basis, Debye-Ang):
   XX=            -16.0600   YY=            -17.5464   ZZ=            -15.5417
   XY=              2.5761   XZ=             -0.0000   YZ=              0.0000

 Normal termination of Gaussian 09 at Thu Feb  9 18:43:02 2017.
