 Gaussian 09, Revision E.01,
 Gaussian 09:  ES64L-G09RevE.01 30-Nov-2015

 ----------------------------------------------------------------------
 #rhf/gen scf(symm,tight,novaracc,noincfock,fulldiag) stable(crhf) gues
 s=read geom=nocrowd test
 ----------------------------------------------------------------------

 hf stability analysis of h10 triangular lattice, y= 0.7084369783301545
 1
 ----------------------------------------------------------------------
 Symbolic Z-matrix:
 Charge =  0 Multiplicity = 1

                         Standard orientation:
 ---------------------------------------------------------------------
 Center     Atomic      Atomic             Coordinates (Angstroms)
 Number     Number       Type             X           Y           Z
 ---------------------------------------------------------------------
      1          1           0        1.629927    2.125311   -0.000000
      2          1           0        2.444890    1.416874   -0.000000
      3          1           0        0.814963    1.416874   -0.000000
      4          1           0        1.629927    0.708437   -0.000000
      5          1           0        0.000000    0.708437    0.000000
      6          1           0        0.814963    0.000000   -0.000000
      7          1           0       -0.814963    0.000000   -0.000000
      8          1           0       -0.000000   -0.708437    0.000000
      9          1           0       -1.629927   -0.708437   -0.000000
     10          1           0       -0.814963   -1.416874   -0.000000
     11          1           0       -2.444890   -1.416874   -0.000000
     12          1           0       -1.629927   -2.125311   -0.000000
 ---------------------------------------------------------------------

 SCF Done:  E(RHF) =  -5.93723436911     A.U. after   10 cycles
 E2 =    -0.1263495557D+00 EUMP2 =    -0.60635839247717D+01

 The electronic state is 1-AG.
 Alpha  occ. eigenvalues --   -0.88875  -0.79671  -0.63627  -0.46421  -0.42814
 Alpha  occ. eigenvalues --   -0.34306
 Alpha virt. eigenvalues --    0.05193   0.06631   0.30586   0.41024   0.62992
 Alpha virt. eigenvalues --    0.92648

 Mulliken charges:
               1
     1  H    0.033283
     2  H    0.025229
     3  H   -0.066138
     4  H    0.017786
     5  H    0.062556
     6  H   -0.072716
     7  H   -0.072716
     8  H    0.062556
     9  H    0.017786
    10  H   -0.066138
    11  H    0.025229
    12  H    0.033283
 Sum of Mulliken charges =  -0.00000

 Dipole moment (field-independent basis, Debye):
    X=             -0.0000    Y=             -0.0000    Z=             -0.0000  Tot=              0.0000
 Quadrupole moment (field-independent basis, Debye-Ang):
   XX=            -16.2797   YY=            -17.4379   ZZ=            -15.5363
   XY=              2.5282   XZ=             -0.0000   YZ=              0.0000

 Normal termination of Gaussian 09 at Thu Feb  9 18:43:04 2017.
