 Gaussian 09, Revision E.01,
 Gaussian 09:  ES64L-G09RevE.01 30-Nov-2015

 ----------------------------------------------------------------------
 #rhf/gen scf(symm,tight,novaracc,noincfock,fulldiag) stable(crhf) gues
 s=read geom=nocrowd test
 ----------------------------------------------------------------------

 hf stability analysis of h10 triangular lattice, y= 0.6716215332591580
 8
 ----------------------------------------------------------------------
 Symbolic Z-matrix:
 Charge =  0 Multiplicity = 1

                         Standard orientation:
 ---------------------------------------------------------------------
 Center     Atomic      Atomic             Coordinates (Angstroms)
 Number     Number       Type             X           Y           Z
 ---------------------------------------------------------------------
      1          1           0        1.719273    2.014865   -0.000000
      2          1           0        2.578909    1.343243   -0.000000
      3          1           0        0.859636    1.343243   -0.000000
      4          1           0        1.719273    0.671622   -0.000000
      5          1           0        0.000000    0.671622   -0.000000
      6          1           0        0.859636    0.000000   -0.000000
      7          1           0       -0.859636    0.000000   -0.000000
      8          1           0       -0.000000   -0.671622    0.000000
      9          1           0       -1.719273   -0.671622   -0.000000
     10          1           0       -0.859636   -1.343243    0.000000
     11          1           0       -2.578909   -1.343243   -0.000000
     12          1           0       -1.719273   -2.014865   -0.000000
 ---------------------------------------------------------------------

 SCF Done:  E(RHF) =  -5.92580952474     A.U. after   10 cycles
 E2 =    -0.1262471497D+00 EUMP2 =    -0.60520566743980D+01

 The electronic state is 1-AG.
 Alpha  occ. eigenvalues --   -0.88501  -0.79371  -0.63751  -0.45624  -0.42804
 Alpha  occ. eigenvalues --   -0.33365
 Alpha virt. eigenvalues --    0.05463   0.05674   0.31436   0.39414   0.62363
 Alpha virt. eigenvalues --    0.86223

 Mulliken charges:
               1
     1  H    0.036909
     2  H    0.024679
     3  H   -0.099027
     4  H    0.047244
     5  H    0.108304
     6  H   -0.118109
     7  H   -0.118109
     8  H    0.108304
     9  H    0.047244
    10  H   -0.099027
    11  H    0.024679
    12  H    0.036909
 Sum of Mulliken charges =   0.00000

 Dipole moment (field-independent basis, Debye):
    X=              0.0000    Y=             -0.0000    Z=             -0.0000  Tot=              0.0000
 Quadrupole moment (field-independent basis, Debye-Ang):
   XX=            -15.5511   YY=            -17.7635   ZZ=            -15.5559
   XY=              2.6901   XZ=             -0.0000   YZ=             -0.0000

 Normal termination of Gaussian 09 at Thu Feb  9 18:42:58 2017.
