 Gaussian 09, Revision E.01,
 Gaussian 09:  ES64L-G09RevE.01 30-Nov-2015

 ----------------------------------------------------------------------
 #rhf/gen scf(symm,tight,novaracc,noincfock,fulldiag) stable(crhf) gues
 s=read geom=nocrowd test
 ----------------------------------------------------------------------

 hf stability analysis of h10 triangular lattice, y= 0.6837609579800398
 9
 ----------------------------------------------------------------------
 Symbolic Z-matrix:
 Charge =  0 Multiplicity = 1

                         Standard orientation:
 ---------------------------------------------------------------------
 Center     Atomic      Atomic             Coordinates (Angstroms)
 Number     Number       Type             X           Y           Z
 ---------------------------------------------------------------------
      1          1           0        1.688749    2.051283    0.000000
      2          1           0        2.533123    1.367522    0.000000
      3          1           0        0.844374    1.367522    0.000000
      4          1           0        1.688749    0.683761    0.000000
      5          1           0        0.000000    0.683761    0.000000
      6          1           0        0.844374    0.000000    0.000000
      7          1           0       -0.844374    0.000000    0.000000
      8          1           0       -0.000000   -0.683761    0.000000
      9          1           0       -1.688749   -0.683761    0.000000
     10          1           0       -0.844374   -1.367522    0.000000
     11          1           0       -2.533123   -1.367522    0.000000
     12          1           0       -1.688749   -2.051283    0.000000
 ---------------------------------------------------------------------

 SCF Done:  E(RHF) =  -5.93048231437     A.U. after   10 cycles
 E2 =    -0.1262542892D+00 EUMP2 =    -0.60567366035925D+01

 The electronic state is 1-AG.
 Alpha  occ. eigenvalues --   -0.88649  -0.79489  -0.63703  -0.45924  -0.42825
 Alpha  occ. eigenvalues --   -0.33734
 Alpha virt. eigenvalues --    0.05486   0.05909   0.31114   0.40060   0.62582
 Alpha virt. eigenvalues --    0.88675

 Mulliken charges:
               1
     1  H    0.035732
     2  H    0.024756
     3  H   -0.087956
     4  H    0.037494
     5  H    0.093738
     6  H   -0.103764
     7  H   -0.103764
     8  H    0.093738
     9  H    0.037494
    10  H   -0.087956
    11  H    0.024756
    12  H    0.035732
 Sum of Mulliken charges =  -0.00000

 Dipole moment (field-independent basis, Debye):
    X=              0.0000    Y=              0.0000    Z=              0.0000  Tot=              0.0000
 Quadrupole moment (field-independent basis, Debye-Ang):
   XX=            -15.8170   YY=            -17.6545   ZZ=            -15.5483
   XY=              2.6309   XZ=              0.0000   YZ=             -0.0000

 Normal termination of Gaussian 09 at Thu Feb  9 18:43:00 2017.
