 Gaussian 09, Revision E.01,
 Gaussian 09:  ES64L-G09RevE.01 30-Nov-2015

 ----------------------------------------------------------------------
 #rhf/gen scf(symm,tight,novaracc,noincfock,fulldiag) stable(crhf) gues
 s=read geom=nocrowd test
 ----------------------------------------------------------------------

 hf stability analysis of h10 triangular lattice, y= 0.6595943070875844
 9
 ----------------------------------------------------------------------
 Symbolic Z-matrix:
 Charge =  0 Multiplicity = 1

                         Standard orientation:
 ---------------------------------------------------------------------
 Center     Atomic      Atomic             Coordinates (Angstroms)
 Number     Number       Type             X           Y           Z
 ---------------------------------------------------------------------
      1          1           0        1.750622    1.978783   -0.000000
      2          1           0        2.625934    1.319189   -0.000000
      3          1           0        0.875311    1.319189   -0.000000
      4          1           0        1.750622    0.659594   -0.000000
      5          1           0        0.000000    0.659594   -0.000000
      6          1           0        0.875311    0.000000    0.000000
      7          1           0       -0.875311    0.000000   -0.000000
      8          1           0       -0.000000   -0.659594   -0.000000
      9          1           0       -1.750622   -0.659594   -0.000000
     10          1           0       -0.875311   -1.319189   -0.000000
     11          1           0       -2.625934   -1.319189   -0.000000
     12          1           0       -1.750622   -1.978783   -0.000000
 ---------------------------------------------------------------------

 SCF Done:  E(RHF) =  -5.92014807672     A.U. after   10 cycles
 E2 =    -0.1262902693D+00 EUMP2 =    -0.60464383459975D+01

 The electronic state is 1-AG.
 Alpha  occ. eigenvalues --   -0.88330  -0.79237  -0.63806  -0.45312  -0.42740
 Alpha  occ. eigenvalues --   -0.32940
 Alpha virt. eigenvalues --    0.04970   0.05890   0.31786   0.38653   0.62150
 Alpha virt. eigenvalues --    0.83510

 Mulliken charges:
               1
     1  H    0.038107
     2  H    0.024558
     3  H   -0.110300
     4  H    0.057039
     5  H    0.122076
     6  H   -0.131480
     7  H   -0.131480
     8  H    0.122076
     9  H    0.057039
    10  H   -0.110300
    11  H    0.024558
    12  H    0.038107
 Sum of Mulliken charges =   0.00000

 Dipole moment (field-independent basis, Debye):
    X=             -0.0000    Y=              0.0000    Z=             -0.0000  Tot=              0.0000
 Quadrupole moment (field-independent basis, Debye-Ang):
   XX=            -15.2645   YY=            -17.8743   ZZ=            -15.5645
   XY=              2.7506   XZ=              0.0000   YZ=              0.0000

 Normal termination of Gaussian 09 at Thu Feb  9 18:42:56 2017.
