 Gaussian 09, Revision E.01,
 Gaussian 09:  ES64L-G09RevE.01 30-Nov-2015

 ----------------------------------------------------------------------
 #rhf/gen scf(symm,tight,novaracc,noincfock,fulldiag) stable(crhf) gues
 s=read geom=nocrowd test
 ----------------------------------------------------------------------

 hf stability analysis of h10 triangular lattice, y= 0.6123199016056329
 9
 ----------------------------------------------------------------------
 Symbolic Z-matrix:
 Charge =  0 Multiplicity = 1

                         Standard orientation:
 ---------------------------------------------------------------------
 Center     Atomic      Atomic             Coordinates (Angstroms)
 Number     Number       Type             X           Y           Z
 ---------------------------------------------------------------------
      1          1           0        1.885780    1.836960    0.000000
      2          1           0        2.828670    1.224640    0.000000
      3          1           0        0.942890    1.224640    0.000000
      4          1           0        1.885780    0.612320    0.000000
      5          1           0        0.000000    0.612320    0.000000
      6          1           0        0.942890    0.000000    0.000000
      7          1           0       -0.942890    0.000000   -0.000000
      8          1           0       -0.000000   -0.612320    0.000000
      9          1           0       -1.885780   -0.612320   -0.000000
     10          1           0       -0.942890   -1.224640   -0.000000
     11          1           0       -2.828670   -1.224640   -0.000000
     12          1           0       -1.885780   -1.836960   -0.000000
 ---------------------------------------------------------------------

 SCF Done:  E(RHF) =  -5.88560093275     A.U. after   11 cycles
 E2 =    -0.1274061648D+00 EUMP2 =    -0.60130070975660D+01

 The electronic state is 1-AG.
 Alpha  occ. eigenvalues --   -0.87433  -0.78561  -0.64103  -0.44586  -0.41354
 Alpha  occ. eigenvalues --   -0.30739
 Alpha virt. eigenvalues --    0.02707   0.06998   0.33312   0.34455   0.61534
 Alpha virt. eigenvalues --    0.70812

 Mulliken charges:
               1
     1  H    0.046548
     2  H    0.017670
     3  H   -0.160538
     4  H    0.100199
     5  H    0.167348
     6  H   -0.171226
     7  H   -0.171226
     8  H    0.167348
     9  H    0.100199
    10  H   -0.160538
    11  H    0.017670
    12  H    0.046548
 Sum of Mulliken charges =   0.00000

 Dipole moment (field-independent basis, Debye):
    X=             -0.0000    Y=              0.0000    Z=              0.0000  Tot=              0.0000
 Quadrupole moment (field-independent basis, Debye-Ang):
   XX=            -14.1275   YY=            -18.3057   ZZ=            -15.6058
   XY=              2.8920   XZ=              0.0000   YZ=              0.0000

 Normal termination of Gaussian 09 at Thu Feb  9 18:42:46 2017.
