 Gaussian 09, Revision E.01,
 Gaussian 09:  ES64L-G09RevE.01 30-Nov-2015

 ----------------------------------------------------------------------
 #rhf/gen scf(symm,tight,novaracc,noincfock,fulldiag) stable(crhf) gues
 s=read geom=nocrowd test
 ----------------------------------------------------------------------

 hf stability analysis of h10 triangular lattice, y= 0.4458672966047664
 3
 ----------------------------------------------------------------------
 Symbolic Z-matrix:
 Charge =  0 Multiplicity = 1

                         Standard orientation:
 ---------------------------------------------------------------------
 Center     Atomic      Atomic             Coordinates (Angstroms)
 Number     Number       Type             X           Y           Z
 ---------------------------------------------------------------------
      1          1           0        1.686303   -1.473617    0.000000
      2          1           0        1.686303   -2.843122    0.000000
      3          1           0        0.843152   -0.394432    0.000000
      4          1           0        0.843152   -1.763937    0.000000
      5          1           0       -0.000000    0.684753    0.000000
      6          1           0       -0.000000   -0.684753   -0.000000
      7          1           0       -0.843152    1.763937    0.000000
      8          1           0       -0.843152    0.394432   -0.000000
      9          1           0       -1.686303    2.843122    0.000000
     10          1           0       -1.686303    1.473617    0.000000
 ---------------------------------------------------------------------

 SCF Done:  E(RHF) =  -4.72878286903     A.U. after   11 cycles
 E2 =    -0.1961172412D+00 EUMP2 =    -0.49249001101965D+01

 The electronic state is 1-AG.
 Alpha  occ. eigenvalues --   -0.83576  -0.74013  -0.59444  -0.41009  -0.11076
 Alpha virt. eigenvalues --    0.01719   0.08894   0.19702   0.38431   0.55044

 Mulliken charges:
               1
     1  H    0.048083
     2  H   -0.255151
     3  H    0.033271
     4  H    0.130907
     5  H    0.042889
     6  H    0.042889
     7  H    0.130907
     8  H    0.033271
     9  H   -0.255151
    10  H    0.048083
 Sum of Mulliken charges =  -0.00000

 Dipole moment (field-independent basis, Debye):
    X=             -0.0000    Y=              0.0000    Z=             -0.0000  Tot=              0.0000
 Quadrupole moment (field-independent basis, Debye-Ang):
   XX=            -17.7465   YY=            -31.6078   ZZ=            -12.7889
   XY=             11.9342   XZ=              0.0000   YZ=             -0.0000

 Normal termination of Gaussian 09 at Thu Feb  9 18:21:32 2017.
