 Gaussian 09, Revision E.01,
 Gaussian 09:  ES64L-G09RevE.01 30-Nov-2015

 ----------------------------------------------------------------------
 #rhf/gen scf(symm,tight,novaracc,noincfock,fulldiag) stable(crhf) gues
 s=read geom=nocrowd test
 ----------------------------------------------------------------------

 hf stability analysis of h10 triangular lattice, y= 0.3503135618487248
 1
 ----------------------------------------------------------------------
 Symbolic Z-matrix:
 Charge =  0 Multiplicity = 1

                         Standard orientation:
 ---------------------------------------------------------------------
 Center     Atomic      Atomic             Coordinates (Angstroms)
 Number     Number       Type             X           Y           Z
 ---------------------------------------------------------------------
      1          1           0        1.370633   -2.236036    0.000000
      2          1           0        1.370633   -3.920951    0.000000
      3          1           0        0.685317   -0.696789    0.000000
      4          1           0        0.685317   -2.381704    0.000000
      5          1           0        0.000000    0.842458    0.000000
      6          1           0       -0.000000   -0.842458    0.000000
      7          1           0       -0.685317    2.381704    0.000000
      8          1           0       -0.685317    0.696789    0.000000
      9          1           0       -1.370633    3.920951    0.000000
     10          1           0       -1.370633    2.236036    0.000000
 ---------------------------------------------------------------------

 SCF Done:  E(RHF) =  -4.92138316853     A.U. after    7 cycles
 E2 =    -0.5683248299D+00 EUMP2 =    -0.54897079984044D+01

 The electronic state is 1-AG.
 Alpha  occ. eigenvalues --   -0.75356  -0.70450  -0.62533  -0.52996  -0.17241
 Alpha virt. eigenvalues --   -0.10190   0.27038   0.36506   0.50757   0.64808

 Mulliken charges:
               1
     1  H    0.016462
     2  H   -0.052280
     3  H    0.003980
     4  H    0.023087
     5  H    0.008751
     6  H    0.008751
     7  H    0.023087
     8  H    0.003980
     9  H   -0.052280
    10  H    0.016462
 Sum of Mulliken charges =  -0.00000

 Dipole moment (field-independent basis, Debye):
    X=              0.0000    Y=             -0.0000    Z=             -0.0000  Tot=              0.0000
 Quadrupole moment (field-independent basis, Debye-Ang):
   XX=            -12.6913   YY=            -22.9207   ZZ=            -13.0182
   XY=              3.8288   XZ=             -0.0000   YZ=             -0.0000

 Normal termination of Gaussian 09 at Thu Feb  9 18:21:46 2017.
