 Gaussian 09, Revision E.01,
 Gaussian 09:  ES64L-G09RevE.01 30-Nov-2015

 ----------------------------------------------------------------------
 #t rhf/gen scf(tight,novaracc,noincfock) stable(crhf) guess=mix geom=n
 ocrowd test
 ----------------------------------------------------------------------

 scf stability calculation for a triangular configuration of 6 H atoms
 (made up of 4 iscosceles triangles)
 ----------------------------------------------------------------------
 Symbolic Z-matrix:
 Charge =  0 Multiplicity = 1

                         Standard orientation:
 ---------------------------------------------------------------------
 Center     Atomic      Atomic             Coordinates (Angstroms)
 Number     Number       Type             X           Y           Z
 ---------------------------------------------------------------------
      1          1           0       -0.000000    0.000000    4.653333
      2          1           0        0.000000    0.165429    1.163333
      3          1           0       -0.000000   -0.165429    1.163333
      4          1           0        0.000000    0.000000   -2.326667
      5          1           0        0.000000   -0.330858   -2.326667
      6          1           0        0.000000    0.330858   -2.326667
 ---------------------------------------------------------------------

 SCF Done:  E(RHF) = -0.919237948281     A.U. after   12 cycles
 E2 =    -0.3135494423D+00 EUMP2 =    -0.12327873905576D+01

 Unable to determine electronic state:  an orbital has unidentified symmetry.
 Alpha  occ. eigenvalues --   -1.26287  -0.77920  -0.10081
 Alpha virt. eigenvalues --   -0.02534   0.82311   2.20723

 Mulliken charges:
               1
     1  H   -0.452419
     2  H    0.000025
     3  H   -0.000186
     4  H   -1.723040
     5  H    1.088196
     6  H    1.087425
 Sum of Mulliken charges =  -0.00000

 Dipole moment (field-independent basis, Debye):
    X=              0.0000    Y=             -0.0011    Z=            -15.1707  Tot=             15.1707

 Test job not archived.
 1\1\GINC-SULU\Stability\RHF\Gen\H6\LCJ1\10-Jan-2017\0\\#t rhf/gen scf(
 tight,novaracc,noincfock) stable(crhf) guess=mix geom=nocrowd test\\sc
 f stability calculation for a triangular configuration of 6 H atoms (m
 ade up of 4 iscosceles triangles)\\0,1\H,0,0.,0.,3.49\H,0,0.165429,0.,
 0.\H,0,-0.165429,0.,0.\H,0,0.,0.,-3.49\H,0,-0.330858,0.,-3.49\H,0,0.33
 0858,0.,-3.49\\Version=ES64L-G09RevE.01\HF=-0.9192379\MP2=-1.2327874\R
 MSD=1.159e-09\Dipole=-0.0004163,0.,-5.9686002\Quadrupole=8.8634232,8.7
 141371,-17.5775603,0.,0.0005286,0.\PG=C02V [C2(H1H1),SGV(H4)]\\@

 Normal termination of Gaussian 09 at Tue Jan 10 15:31:09 2017.
