 Gaussian 09, Revision E.01,
 Gaussian 09:  ES64L-G09RevE.01 30-Nov-2015

 ----------------------------------------------------------------------
 #t rhf/gen scf(tight,novaracc,noincfock) stable(crhf) guess=mix geom=n
 ocrowd test
 ----------------------------------------------------------------------

 scf stability calculation for 6 H atoms arranged in two rows (made up
 of 4 iscosceles triangles)
 ----------------------------------------------------------------------
 Symbolic Z-matrix:
 Charge =  0 Multiplicity = 1

                         Standard orientation:
 ---------------------------------------------------------------------
 Center     Atomic      Atomic             Coordinates (Angstroms)
 Number     Number       Type             X           Y           Z
 ---------------------------------------------------------------------
      1          1           0        0.384746    4.477032   -0.000000
      2          1           0        0.384746    1.475835   -0.000000
      3          1           0        0.000000    1.500599    0.000000
      4          1           0       -0.000000   -1.500599    0.000000
      5          1           0       -0.384746   -1.475835   -0.000000
      6          1           0       -0.384746   -4.477032   -0.000000
 ---------------------------------------------------------------------

 SCF Done:  E(RHF) =  -2.20945762193     A.U. after   17 cycles
 E2 =    -0.6934348416D+00 EUMP2 =    -0.29028924634950D+01

 The electronic state is 1-AG.
 Alpha  occ. eigenvalues --   -0.75809  -0.75531  -0.21621
 Alpha virt. eigenvalues --   -0.15724   0.72171   0.76917

 Mulliken charges:
               1
     1  H    0.000592
     2  H   -0.000164
     3  H   -0.000428
     4  H   -0.000428
     5  H   -0.000164
     6  H    0.000592
 Sum of Mulliken charges =  -0.00000

 Dipole moment (field-independent basis, Debye):
    X=              0.0000    Y=              0.0000    Z=             -0.0000  Tot=              0.0000

 Test job not archived.
 1\1\GINC-SULU\Stability\RHF\Gen\H6\LCJ1\23-Jan-2017\0\\#t rhf/gen scf(
 tight,novaracc,noincfock) stable(crhf) guess=mix geom=nocrowd test\\sc
 f stability calculation for 6 H atoms arranged in two rows (made up of
  4 iscosceles triangles)\\0,1\H,0,0.,0.,2.995\H,0,0.192771,0.,0.\H,0,-
 0.192771,0.,0.\H,0,0.,0.,-2.995\H,0,-0.385542,0.,-2.995\H,0,-0.192771,
 0.,-5.99\\Version=ES64L-G09RevE.01\State=1-AG\HF=-2.2094576\MP2=-2.902
 8925\RMSD=5.635e-09\Dipole=0.,0.,0.\Quadrupole=0.1813028,-0.0216653,-0
 .1596375,0.,-0.0038878,0.\PG=C02H [SGH(H6)]\\@

 Normal termination of Gaussian 09 at Mon Jan 23 13:58:59 2017.
