 Gaussian 09, Revision E.01,
 Gaussian 09:  ES64L-G09RevE.01 30-Nov-2015

 -----------------------------
 #T qcisd(tq)/sto-3g scan test
 -----------------------------

 linear D4 model pes scan over varying h2-h3 bond length using ump4 wit
 h mbs
 ----------------------------------------------------------------------
 Symbolic Z-matrix:
 Charge =  0 Multiplicity = 1

 SCF Done:  E(UHF) =  -1.81081783122     A.U. after    6 cycles
 E2 =    -0.1229259178D+00 EUMP2 =    -0.19337437490275D+01

 The electronic state is 1-SGG.
 Alpha  occ. eigenvalues --   -0.51376  -0.22396
 Alpha virt. eigenvalues --    0.05495   0.54104
  Beta  occ. eigenvalues --   -0.51376  -0.22396
  Beta virt. eigenvalues --    0.05495   0.54104

 Mulliken charges and spin densities:
               1          2
     1  H    0.001117   0.000000
     2  H   -0.001117   0.000000
     3  H   -0.001117   0.000000
     4  H    0.001117   0.000000
 Sum of Mulliken charges =  -0.00000   0.00000

 Dipole moment (field-independent basis, Debye):
    X=              0.0000    Y=              0.0000    Z=             -0.0000  Tot=              0.0000
 Variable Step   Value
 -------- ---- -----------
     1       1    1.984212
 ---------------------------------------------------------------------------------------------------
                            Z-MATRIX (ANGSTROMS AND DEGREES)
   CD    Cent   Atom    N1       Length/X        N2       Alpha/Y        N3        Beta/Z          J
 ---------------------------------------------------------------------------------------------------
      1      1  H
      2      2  H        1   1.600000(     1)
      3      3  H        2   1.050000(     2)      1  180.000(     4)

 SCF Done:  E(UHF) =  -1.80658174501     A.U. after    5 cycles
 E2 =    -0.1168827092D+00 EUMP2 =    -0.19234644542295D+01
 SCF Done:  E(UHF) =  -1.80222324929     A.U. after    5 cycles
 E2 =    -0.1117094607D+00 EUMP2 =    -0.19139327099429D+01
 SCF Done:  E(UHF) =  -1.79791988150     A.U. after    5 cycles
 E2 =    -0.1074561499D+00 EUMP2 =    -0.19053760313993D+01
 SCF Done:  E(UHF) =  -1.79379848034     A.U. after    5 cycles
 E2 =    -0.1041213658D+00 EUMP2 =    -0.18979198461153D+01
 SCF Done:  E(UHF) =  -1.78994466639     A.U. after    5 cycles
 E2 =    -0.1016551989D+00 EUMP2 =    -0.18915998652652D+01
 SCF Done:  E(UHF) =  -1.78641055403     A.U. after    5 cycles
 E2 =    -0.9996841539D-01 EUMP2 =    -0.18863789694268D+01
 SCF Done:  E(UHF) =  -1.78322157371     A.U. after    5 cycles
 E2 =    -0.9894577411D-01 EUMP2 =    -0.18821673478223D+01
 SCF Done:  E(UHF) =  -1.78038269876     A.U. after    5 cycles
 E2 =    -0.9846046535D-01 EUMP2 =    -0.18788431641112D+01
 SCF Done:  E(UHF) =  -1.77788404463     A.U. after    5 cycles
 E2 =    -0.9838693398D-01 EUMP2 =    -0.18762709786154D+01
 E2 =    -0.9861038596D-01 EUMP2 =    -0.18743160890951D+01
 E2 =    -0.9903247087D-01 EUMP2 =    -0.18728541771747D+01
 E2 =    -0.9957354295D-01 EUMP2 =    -0.18717766428028D+01
 E2 =    -0.1001723718D+00 EUMP2 =    -0.18709925617069D+01
 E2 =    -0.1007842638D+00 EUMP2 =    -0.18704283450266D+01
 E2 =    -0.1013784131D+00 EUMP2 =    -0.18700260617119D+01
 E2 =    -0.1019350706D+00 EUMP2 =    -0.18697411516820D+01
 E2 =    -0.1024428939D+00 EUMP2 =    -0.18695400142112D+01
 E2 =    -0.1028966602D+00 EUMP2 =    -0.18693977536151D+01
 E2 =    -0.1032954036D+00 EUMP2 =    -0.18692962184610D+01
 E2 =    -0.1052172331D+00 EUMP2 =    -0.18686905565562D+01
 E2 =    -0.1052110091D+00 EUMP2 =    -0.18686765353218D+01
 E2 =    -0.1052042107D+00 EUMP2 =    -0.18686634407300D+01
 E2 =    -0.1051970399D+00 EUMP2 =    -0.18686512376723D+01
 E2 =    -0.1051896591D+00 EUMP2 =    -0.18686398859272D+01
 E2 =    -0.1051821972D+00 EUMP2 =    -0.18686293417747D+01
 E2 =    -0.1051747560D+00 EUMP2 =    -0.18686195593936D+01
 E2 =    -0.1051674142D+00 EUMP2 =    -0.18686104920370D+01
 E2 =    -0.1051602318D+00 EUMP2 =    -0.18686020929961D+01
 E2 =    -0.1051532537D+00 EUMP2 =    -0.18685943163558D+01
 SCF Done:  E(UHF) =  -1.76344060553     A.U. after    4 cycles
 E2 =    -0.1051465121D+00 EUMP2 =    -0.18685871176273D+01
 SCF Done:  E(UHF) =  -1.76344042516     A.U. after    4 cycles
 E2 =    -0.1051400290D+00 EUMP2 =    -0.18685804541104D+01
 SCF Done:  E(UHF) =  -1.76344046704     A.U. after    4 cycles
 E2 =    -0.1051338182D+00 EUMP2 =    -0.18685742852466D+01
 SCF Done:  E(UHF) =  -1.76344068556     A.U. after    4 cycles
 E2 =    -0.1051278872D+00 EUMP2 =    -0.18685685727947D+01
 SCF Done:  E(UHF) =  -1.76344104261     A.U. after    4 cycles
 E2 =    -0.1051222383D+00 EUMP2 =    -0.18685632809305D+01
 SCF Done:  E(UHF) =  -1.76344150653     A.U. after    4 cycles
 E2 =    -0.1051168697D+00 EUMP2 =    -0.18685583762763D+01
 SCF Done:  E(UHF) =  -1.76344205113     A.U. after    4 cycles
 E2 =    -0.1051117767D+00 EUMP2 =    -0.18685538278727D+01
 SCF Done:  E(UHF) =  -1.76344265484     A.U. after    4 cycles
 E2 =    -0.1051069523D+00 EUMP2 =    -0.18685496071117D+01
 SCF Done:  E(UHF) =  -1.76344330003     A.U. after    4 cycles
 E2 =    -0.1051023876D+00 EUMP2 =    -0.18685456876383D+01

                         Standard orientation:
 ---------------------------------------------------------------------
 Center     Atomic      Atomic             Coordinates (Angstroms)
 Number     Number       Type             X           Y           Z
 ---------------------------------------------------------------------
      1          1           0        0.000000    0.000000    3.600000
      2          1           0        0.000000    0.000000    2.000000
      3          1           0        0.000000    0.000000   -2.000000
      4          1           0        0.000000    0.000000   -3.600000
 ---------------------------------------------------------------------

 SCF Done:  E(UHF) =  -1.76344397233     A.U. after    4 cycles
 E2 =    -0.1050980729D+00 EUMP2 =    -0.18685420452334D+01
 Normal termination of Gaussian 09 at Mon Dec  5 12:38:46 2016.
