 Gaussian 09, Revision E.01,
 Gaussian 09:  ES64L-G09RevE.01 30-Nov-2015

 ----------------------------------------------------------------------
 #rhf/gen scf(symm,tight,novaracc,noincfock,fulldiag) stable(crhf) gues
 s=read geom=nocrowd test
 ----------------------------------------------------------------------

 hf stability analysis of h10 triangular lattice, y= 0.4707695940863088
 6
 ----------------------------------------------------------------------
 Symbolic Z-matrix:
 Charge =  0 Multiplicity = 1

                         Standard orientation:
 ---------------------------------------------------------------------
 Center     Atomic      Atomic             Coordinates (Angstroms)
 Number     Number       Type             X           Y           Z
 ---------------------------------------------------------------------
      1          1           0        0.000000    0.941539    1.226397
      2          1           0        0.000000    0.470770    2.452793
      3          1           0       -0.000000    0.470770   -0.000000
      4          1           0       -0.000000    0.000000    1.226397
      5          1           0       -0.000000   -0.470770    0.000000
      6          1           0       -0.000000   -0.941539   -1.226397
      7          1           0        0.000000   -0.000000   -1.226397
      8          1           0       -0.000000   -0.470770   -2.452793
      9          1           0        0.000000    0.941539   -1.226397
     10          1           0        0.000000    0.470770   -2.452793
     11          1           0       -0.000000   -0.470770    2.452793
     12          1           0       -0.000000   -0.941539    1.226397
 ---------------------------------------------------------------------

 SCF Done:  E(RHF) =  -5.68812999933     A.U. after    8 cycles
 E2 =    -0.1415865290D+00 EUMP2 =    -0.58297165283374D+01

 The electronic state is 1-AG.
 Alpha  occ. eigenvalues --   -0.84837  -0.77095  -0.57810  -0.43239  -0.40967
 Alpha  occ. eigenvalues --   -0.20776
 Alpha virt. eigenvalues --   -0.14223   0.29289   0.41953   0.45671   0.52760
 Alpha virt. eigenvalues --    0.66361

 Mulliken charges:
               1
     1  H    0.149536
     2  H   -0.024289
     3  H   -0.143181
     4  H   -0.107313
     5  H   -0.143181
     6  H    0.149536
     7  H   -0.107313
     8  H   -0.024289
     9  H    0.149536
    10  H   -0.024289
    11  H   -0.024289
    12  H    0.149536
 Sum of Mulliken charges =  -0.00000

 Dipole moment (field-independent basis, Debye):
    X=             -0.0000    Y=              0.0000    Z=             -0.0000  Tot=              0.0000
 Quadrupole moment (field-independent basis, Debye-Ang):
   XX=            -14.8617   YY=            -12.1933   ZZ=            -22.7775
   XY=              0.0000   XZ=              0.0000   YZ=              0.0000

 Normal termination of Gaussian 09 at Fri Feb 17 15:10:11 2017.
