 Gaussian 09, Revision E.01,
 Gaussian 09:  ES64L-G09RevE.01 30-Nov-2015

 ----------------------------------------------------------------------
 #rhf/gen scf(symm,tight,novaracc,noincfock,fulldiag) stable(crhf) gues
 s=read geom=nocrowd test
 ----------------------------------------------------------------------

 hf stability analysis of h10 triangular lattice, y= 0.5889881594497650
 1
 ----------------------------------------------------------------------
 Symbolic Z-matrix:
 Charge =  0 Multiplicity = 1

                         Standard orientation:
 ---------------------------------------------------------------------
 Center     Atomic      Atomic             Coordinates (Angstroms)
 Number     Number       Type             X           Y           Z
 ---------------------------------------------------------------------
      1          1           0        0.000000    1.177976    0.980241
      2          1           0        0.000000    0.588988    1.960482
      3          1           0        0.000000    0.588988    0.000000
      4          1           0        0.000000    0.000000    0.980241
      5          1           0       -0.000000   -0.588988    0.000000
      6          1           0       -0.000000   -1.177976   -0.980241
      7          1           0        0.000000    0.000000   -0.980241
      8          1           0       -0.000000   -0.588988   -1.960482
      9          1           0        0.000000    1.177976   -0.980241
     10          1           0        0.000000    0.588988   -1.960482
     11          1           0       -0.000000   -0.588988    1.960482
     12          1           0       -0.000000   -1.177976    0.980241
 ---------------------------------------------------------------------

 SCF Done:  E(RHF) =  -5.25850242208     A.U. after   12 cycles
 E2 =    -0.1899156921D+00 EUMP2 =    -0.54484181141802D+01

 The electronic state is 1-AG.
 Alpha  occ. eigenvalues --   -0.91781  -0.75083  -0.56438  -0.52328  -0.22461
 Alpha  occ. eigenvalues --   -0.13588
 Alpha virt. eigenvalues --   -0.18057   0.17335   0.26478   0.40143   0.50642
 Alpha virt. eigenvalues --    0.63065

 Mulliken charges:
               1
     1  H   -0.023373
     2  H    0.042625
     3  H    0.115064
     4  H   -0.153568
     5  H    0.115064
     6  H   -0.023373
     7  H   -0.153568
     8  H    0.042625
     9  H   -0.023373
    10  H    0.042625
    11  H    0.042625
    12  H   -0.023373
 Sum of Mulliken charges =  -0.00000

 Dipole moment (field-independent basis, Debye):
    X=             -0.0000    Y=             -0.0000    Z=              0.0000  Tot=              0.0000
 Quadrupole moment (field-independent basis, Debye-Ang):
   XX=            -14.8415   YY=            -17.5182   ZZ=            -18.3035
   XY=             -0.0000   XZ=              0.0000   YZ=              0.0000

 Normal termination of Gaussian 09 at Fri Feb 17 15:10:34 2017.
