 Gaussian 09, Revision E.01,
 Gaussian 09:  ES64L-G09RevE.01 30-Nov-2015

 ----------------------------------------------------------------------
 #rhf/gen scf(symm,tight,novaracc,noincfock,fulldiag) stable(crhf) gues
 s=read geom=nocrowd test
 ----------------------------------------------------------------------

 hf stability analysis of h10 triangular lattice, y= 0.8753112166669652
 1
 ----------------------------------------------------------------------
 Symbolic Z-matrix:
 Charge =  0 Multiplicity = 1

                         Standard orientation:
 ---------------------------------------------------------------------
 Center     Atomic      Atomic             Coordinates (Angstroms)
 Number     Number       Type             X           Y           Z
 ---------------------------------------------------------------------
      1          1           0        0.000000    0.659594    1.750622
      2          1           0        0.000000    1.319189    0.875311
      3          1           0        0.000000   -0.000000    0.875311
      4          1           0        0.000000    0.659594    0.000000
      5          1           0        0.000000    0.000000   -0.875311
      6          1           0       -0.000000   -0.659594   -1.750622
      7          1           0       -0.000000   -0.659594   -0.000000
      8          1           0       -0.000000   -1.319189   -0.875311
      9          1           0       -0.000000   -0.659594    1.750622
     10          1           0       -0.000000   -1.319189    0.875311
     11          1           0        0.000000    1.319189   -0.875311
     12          1           0        0.000000    0.659594   -1.750622
 ---------------------------------------------------------------------

 SCF Done:  E(RHF) =  -5.16502500026     A.U. after   12 cycles
 E2 =    -0.3423636136D+00 EUMP2 =    -0.55073886138931D+01

 The electronic state is 1-AG.
 Alpha  occ. eigenvalues --   -0.90699  -0.70907  -0.62574  -0.43332  -0.23751
 Alpha  occ. eigenvalues --   -0.08708
 Alpha virt. eigenvalues --   -0.22193   0.16168   0.23140   0.40646   0.55278
 Alpha virt. eigenvalues --    0.77073

 Mulliken charges:
               1
     1  H   -0.067577
     2  H    0.176389
     3  H    0.018685
     4  H   -0.236309
     5  H    0.018685
     6  H   -0.067577
     7  H   -0.236309
     8  H    0.176389
     9  H   -0.067577
    10  H    0.176389
    11  H    0.176389
    12  H   -0.067577
 Sum of Mulliken charges =  -0.00000

 Dipole moment (field-independent basis, Debye):
    X=             -0.0000    Y=             -0.0000    Z=              0.0000  Tot=              0.0000
 Quadrupole moment (field-independent basis, Debye-Ang):
   XX=            -14.6956   YY=            -15.3329   ZZ=            -18.9581
   XY=             -0.0000   XZ=              0.0000   YZ=              0.0000

 Normal termination of Gaussian 09 at Fri Feb 17 15:11:23 2017.
