 Gaussian 09, Revision E.01,
 Gaussian 09:  ES64L-G09RevE.01 30-Nov-2015

 ----------------------------------------------------------------------
 #rhf/gen scf(symm,tight,novaracc,noincfock,fulldiag) stable(crhf) gues
 s=read geom=nocrowd test
 ----------------------------------------------------------------------

 hf stability analysis of h10 triangular lattice, y= 0.7598357022583297
 5
 ----------------------------------------------------------------------
 Symbolic Z-matrix:
 Charge =  0 Multiplicity = 1

                         Standard orientation:
 ---------------------------------------------------------------------
 Center     Atomic      Atomic             Coordinates (Angstroms)
 Number     Number       Type             X           Y           Z
 ---------------------------------------------------------------------
      1          1           0        0.759836    1.519671    0.000000
      2          1           0        1.519671    0.759836   -0.000000
      3          1           0        0.000000    0.759836    0.000000
      4          1           0        0.759836   -0.000000    0.000000
      5          1           0       -0.000000   -0.759836    0.000000
      6          1           0       -0.759836   -1.519671    0.000000
      7          1           0       -0.759836    0.000000    0.000000
      8          1           0       -1.519671   -0.759836   -0.000000
      9          1           0       -0.759836    1.519671   -0.000000
     10          1           0       -1.519671    0.759836    0.000000
     11          1           0        1.519671   -0.759836    0.000000
     12          1           0        0.759836   -1.519671   -0.000000
 ---------------------------------------------------------------------

 SCF Done:  E(RHF) =  -5.21406961978     A.U. after   14 cycles
 E2 =    -0.2371050064D+00 EUMP2 =    -0.54511746261973D+01

 Unable to determine electronic state:  an orbital has unidentified symmetry.
 Alpha  occ. eigenvalues --   -0.91016  -0.68670  -0.65556  -0.35878  -0.34431
 Alpha  occ. eigenvalues --   -0.08023
 Alpha virt. eigenvalues --   -0.22381   0.15056   0.37044   0.39611   0.42426
 Alpha virt. eigenvalues --    0.91114

 Mulliken charges:
               1
     1  H   -0.116917
     2  H    0.209447
     3  H    0.044634
     4  H   -0.229695
     5  H    0.044634
     6  H   -0.116917
     7  H   -0.229695
     8  H    0.209447
     9  H   -0.116917
    10  H    0.209447
    11  H    0.209447
    12  H   -0.116917
 Sum of Mulliken charges =   0.00000

 Dipole moment (field-independent basis, Debye):
    X=             -0.0000    Y=              0.0000    Z=             -0.0000  Tot=              0.0000
 Quadrupole moment (field-independent basis, Debye-Ang):
   XX=            -11.5764   YY=            -21.7552   ZZ=            -14.6856
   XY=              0.0000   XZ=              0.0000   YZ=             -0.0000

 Normal termination of Gaussian 09 at Fri Feb 17 15:11:05 2017.
