 Gaussian 09, Revision E.01,
 Gaussian 09:  ES64L-G09RevE.01 30-Nov-2015

 ----------------------------------------------------------------------
 #rhf/gen scf(symm,tight,novaracc,noincfock,fulldiag) stable(crhf) gues
 s=read geom=nocrowd test
 ----------------------------------------------------------------------

 hf stability analysis of h10 triangular lattice, y= 0.3023959355609886
 5
 ----------------------------------------------------------------------
 Symbolic Z-matrix:
 Charge =  0 Multiplicity = 1

                         Standard orientation:
 ---------------------------------------------------------------------
 Center     Atomic      Atomic             Coordinates (Angstroms)
 Number     Number       Type             X           Y           Z
 ---------------------------------------------------------------------
      1          1           0       -0.000000    0.604792    1.909253
      2          1           0        0.000000    0.302396    3.818505
      3          1           0       -0.000000    0.302396   -0.000000
      4          1           0        0.000000    0.000000    1.909253
      5          1           0       -0.000000   -0.302396    0.000000
      6          1           0       -0.000000   -0.604792   -1.909253
      7          1           0        0.000000   -0.000000   -1.909253
      8          1           0       -0.000000   -0.302396   -3.818505
      9          1           0        0.000000    0.604792   -1.909253
     10          1           0        0.000000    0.302396   -3.818505
     11          1           0       -0.000000   -0.302396    3.818505
     12          1           0       -0.000000   -0.604792    1.909253
 ---------------------------------------------------------------------

 SCF Done:  E(RHF) =  -5.60815019283     A.U. after    7 cycles
 E2 =    -0.1690309235D+00 EUMP2 =    -0.57771811163742D+01

 The electronic state is 1-AG.
 Alpha  occ. eigenvalues --   -0.86647  -0.85537  -0.67931  -0.66672  -0.64084
 Alpha  occ. eigenvalues --   -0.20824
 Alpha virt. eigenvalues --   -0.05921   0.50846   0.52962   0.58608   1.10428
 Alpha virt. eigenvalues --    1.11353

 Mulliken charges:
               1
     1  H    0.206250
     2  H   -0.007442
     3  H   -0.038786
     4  H   -0.358830
     5  H   -0.038786
     6  H    0.206250
     7  H   -0.358830
     8  H   -0.007442
     9  H    0.206250
    10  H   -0.007442
    11  H   -0.007442
    12  H    0.206250
 Sum of Mulliken charges =  -0.00000

 Dipole moment (field-independent basis, Debye):
    X=             -0.0000    Y=              0.0000    Z=              0.0000  Tot=              0.0000
 Quadrupole moment (field-independent basis, Debye-Ang):
   XX=            -15.4458   YY=            -15.4976   ZZ=            -18.9774
   XY=              0.0000   XZ=              0.0000   YZ=              0.0000

 Normal termination of Gaussian 09 at Fri Feb 17 15:09:37 2017.
