 Gaussian 09, Revision E.01,
 Gaussian 09:  ES64L-G09RevE.01 30-Nov-2015

 ----------------------------------------------------------------------
 #rhf/gen scf(symm,tight,novaracc,noincfock,fulldiag) stable(crhf) gues
 s=read geom=nocrowd test
 ----------------------------------------------------------------------

 ----------------------------------------------------------------------
 hf stability analysis of h10 triangular lattice, y= 1.1662555983306084
 ----------------------------------------------------------------------
 Symbolic Z-matrix:
 Charge =  0 Multiplicity = 1

                         Standard orientation:
 ---------------------------------------------------------------------
 Center     Atomic      Atomic             Coordinates (Angstroms)
 Number     Number       Type             X           Y           Z
 ---------------------------------------------------------------------
      1          1           0       -0.000000    0.495046    2.332511
      2          1           0       -0.000000    0.990092    1.166256
      3          1           0       -0.000000    0.000000    1.166256
      4          1           0       -0.000000    0.495046    0.000000
      5          1           0        0.000000    0.000000   -1.166256
      6          1           0       -0.000000   -0.495046   -2.332511
      7          1           0       -0.000000   -0.495046    0.000000
      8          1           0       -0.000000   -0.990092   -1.166256
      9          1           0       -0.000000   -0.495046    2.332511
     10          1           0       -0.000000   -0.990092    1.166256
     11          1           0        0.000000    0.990092   -1.166256
     12          1           0        0.000000    0.495046   -2.332511
 ---------------------------------------------------------------------

 SCF Done:  E(RHF) =  -4.67859434393     A.U. after   13 cycles
 E2 =    -0.6646236683D+00 EUMP2 =    -0.53432180122614D+01

 The electronic state is 1-AG.
 Alpha  occ. eigenvalues --   -0.84838  -0.76161  -0.51254  -0.44469  -0.07113
 Alpha  occ. eigenvalues --    0.03676
 Alpha virt. eigenvalues --   -0.17630  -0.15215   0.34471   0.37680   0.44917
 Alpha virt. eigenvalues --    0.66912

 Mulliken charges:
               1
     1  H   -0.061918
     2  H    0.227381
     3  H    0.082118
     4  H   -0.413043
     5  H    0.082118
     6  H   -0.061918
     7  H   -0.413043
     8  H    0.227381
     9  H   -0.061918
    10  H    0.227381
    11  H    0.227381
    12  H   -0.061918
 Sum of Mulliken charges =   0.00000

 Dipole moment (field-independent basis, Debye):
    X=              0.0000    Y=             -0.0000    Z=             -0.0000  Tot=              0.0000
 Quadrupole moment (field-independent basis, Debye-Ang):
   XX=            -14.4783   YY=            -14.4726   ZZ=            -19.1137
   XY=             -0.0000   XZ=              0.0000   YZ=             -0.0000

 Normal termination of Gaussian 09 at Fri Feb 17 15:11:55 2017.
