 Gaussian 09, Revision E.01,
 Gaussian 09:  ES64L-G09RevE.01 30-Nov-2015

 ----------------------------------------------------------------------
 #rhf/gen scf(symm,tight,novaracc,noincfock,fulldiag) stable(crhf) gues
 s=read geom=nocrowd test
 ----------------------------------------------------------------------

 hf stability analysis of h10 triangular lattice, y= 0.6358183901871248
 3
 ----------------------------------------------------------------------
 Symbolic Z-matrix:
 Charge =  0 Multiplicity = 1

                         Standard orientation:
 ---------------------------------------------------------------------
 Center     Atomic      Atomic             Coordinates (Angstroms)
 Number     Number       Type             X           Y           Z
 ---------------------------------------------------------------------
      1          1           0       -0.000000    1.271637    0.908043
      2          1           0       -0.000000    0.635818    1.816085
      3          1           0       -0.000000    0.635818    0.000000
      4          1           0       -0.000000   -0.000000    0.908043
      5          1           0       -0.000000   -0.635818   -0.000000
      6          1           0       -0.000000   -1.271637   -0.908043
      7          1           0        0.000000    0.000000   -0.908043
      8          1           0       -0.000000   -0.635818   -1.816085
      9          1           0        0.000000    1.271637   -0.908043
     10          1           0        0.000000    0.635818   -1.816085
     11          1           0       -0.000000   -0.635818    1.816085
     12          1           0       -0.000000   -1.271637    0.908043
 ---------------------------------------------------------------------

 SCF Done:  E(RHF) =  -5.19968910886     A.U. after   13 cycles
 E2 =    -0.2763612004D+00 EUMP2 =    -0.54760503092321D+01

 The electronic state is 1-AG.
 Alpha  occ. eigenvalues --   -0.92484  -0.73471  -0.60342  -0.48604  -0.20678
 Alpha  occ. eigenvalues --   -0.14049
 Alpha virt. eigenvalues --   -0.19055   0.15883   0.22372   0.40582   0.58258
 Alpha virt. eigenvalues --    0.65701

 Mulliken charges:
               1
     1  H   -0.024038
     2  H    0.050518
     3  H    0.093163
     4  H   -0.146123
     5  H    0.093163
     6  H   -0.024038
     7  H   -0.146123
     8  H    0.050518
     9  H   -0.024038
    10  H    0.050518
    11  H    0.050518
    12  H   -0.024038
 Sum of Mulliken charges =  -0.00000

 Dipole moment (field-independent basis, Debye):
    X=             -0.0000    Y=             -0.0000    Z=             -0.0000  Tot=              0.0000
 Quadrupole moment (field-independent basis, Debye-Ang):
   XX=            -14.7802   YY=            -17.3646   ZZ=            -18.2603
   XY=             -0.0000   XZ=              0.0000   YZ=             -0.0000

 Normal termination of Gaussian 09 at Fri Feb 17 15:10:43 2017.
