 Gaussian 09, Revision E.01,
 Gaussian 09:  ES64L-G09RevE.01 30-Nov-2015

 ----------------------------------------------------------------------
 #rhf/gen scf(symm,tight,novaracc,noincfock,fulldiag) stable(crhf) gues
 s=read geom=nocrowd test
 ----------------------------------------------------------------------

 hf stability analysis of h10 triangular lattice, y= 0.7210052279144877
 3
 ----------------------------------------------------------------------
 Symbolic Z-matrix:
 Charge =  0 Multiplicity = 1

                         Standard orientation:
 ---------------------------------------------------------------------
 Center     Atomic      Atomic             Coordinates (Angstroms)
 Number     Number       Type             X           Y           Z
 ---------------------------------------------------------------------
      1          1           0        0.000000    1.442010    0.800757
      2          1           0        0.000000    0.721005    1.601515
      3          1           0       -0.000000    0.721005    0.000000
      4          1           0        0.000000   -0.000000    0.800757
      5          1           0       -0.000000   -0.721005   -0.000000
      6          1           0       -0.000000   -1.442010   -0.800757
      7          1           0        0.000000    0.000000   -0.800757
      8          1           0       -0.000000   -0.721005   -1.601515
      9          1           0        0.000000    1.442010   -0.800757
     10          1           0        0.000000    0.721005   -1.601515
     11          1           0       -0.000000   -0.721005    1.601515
     12          1           0       -0.000000   -1.442010    0.800757
 ---------------------------------------------------------------------

 SCF Done:  E(RHF) =  -5.18329073987     A.U. after   17 cycles
 E2 =    -0.2283757813D+00 EUMP2 =    -0.54116665212006D+01

 The electronic state is 1-AG.
 Alpha  occ. eigenvalues --   -0.91103  -0.70660  -0.63210  -0.39410  -0.31189
 Alpha  occ. eigenvalues --   -0.06911
 Alpha virt. eigenvalues --   -0.22051   0.14307   0.29591   0.42243   0.46621
 Alpha virt. eigenvalues --    0.88582

 Mulliken charges:
               1
     1  H   -0.141857
     2  H    0.218664
     3  H    0.053448
     4  H   -0.207062
     5  H    0.053448
     6  H   -0.141857
     7  H   -0.207062
     8  H    0.218664
     9  H   -0.141857
    10  H    0.218664
    11  H    0.218664
    12  H   -0.141857
 Sum of Mulliken charges =  -0.00000

 Dipole moment (field-independent basis, Debye):
    X=              0.0000    Y=             -0.0000    Z=             -0.0000  Tot=              0.0000
 Quadrupole moment (field-independent basis, Debye-Ang):
   XX=            -14.6766   YY=            -22.8441   ZZ=            -10.0160
   XY=             -0.0000   XZ=             -0.0000   YZ=              0.0000

 Normal termination of Gaussian 09 at Fri Feb 17 15:10:58 2017.
