 Gaussian 09, Revision E.01,
 Gaussian 09:  ES64L-G09RevE.01 30-Nov-2015

 ----------------------------------------------------------------------
 #rhf/gen scf(symm,tight,novaracc,noincfock,fulldiag) stable(crhf) gues
 s=read geom=nocrowd test
 ----------------------------------------------------------------------

 ----------------------------------------------------------------------
 hf stability analysis of h10 triangular lattice, y= 1.5217180473945009
 ----------------------------------------------------------------------
 Symbolic Z-matrix:
 Charge =  0 Multiplicity = 1

                         Standard orientation:
 ---------------------------------------------------------------------
 Center     Atomic      Atomic             Coordinates (Angstroms)
 Number     Number       Type             X           Y           Z
 ---------------------------------------------------------------------
      1          1           0        0.000000    0.379407    3.043436
      2          1           0        0.000000    0.758814    1.521718
      3          1           0        0.000000    0.000000    1.521718
      4          1           0        0.000000    0.379407   -0.000000
      5          1           0        0.000000   -0.000000   -1.521718
      6          1           0       -0.000000   -0.379407   -3.043436
      7          1           0       -0.000000   -0.379407    0.000000
      8          1           0       -0.000000   -0.758814   -1.521718
      9          1           0       -0.000000   -0.379407    3.043436
     10          1           0       -0.000000   -0.758814    1.521718
     11          1           0        0.000000    0.758814   -1.521718
     12          1           0        0.000000    0.379407   -3.043436
 ---------------------------------------------------------------------

 SCF Done:  E(RHF) =  -4.49081915642     A.U. after   12 cycles
 E2 =    -0.1261606516D+01 EUMP2 =    -0.57524256722647D+01

 The electronic state is 1-AG.
 Alpha  occ. eigenvalues --   -0.83706  -0.80035  -0.54812  -0.38187  -0.31331
 Alpha  occ. eigenvalues --    0.17049
 Alpha virt. eigenvalues --   -0.34967  -0.11678   0.32205   0.59758   0.72822
 Alpha virt. eigenvalues --    0.76201

 Mulliken charges:
               1
     1  H   -0.006605
     2  H    0.216295
     3  H   -0.170132
     4  H   -0.249249
     5  H   -0.170132
     6  H   -0.006605
     7  H   -0.249249
     8  H    0.216295
     9  H   -0.006605
    10  H    0.216295
    11  H    0.216295
    12  H   -0.006605
 Sum of Mulliken charges =  -0.00000

 Dipole moment (field-independent basis, Debye):
    X=             -0.0000    Y=             -0.0000    Z=             -0.0000  Tot=              0.0000
 Quadrupole moment (field-independent basis, Debye-Ang):
   XX=            -14.6347   YY=            -16.5982   ZZ=            -13.5608
   XY=             -0.0000   XZ=              0.0000   YZ=             -0.0000

 Normal termination of Gaussian 09 at Fri Feb 17 15:12:15 2017.
