 Gaussian 09, Revision E.01,
 Gaussian 09:  ES64L-G09RevE.01 30-Nov-2015

 ----------------------------------------------------------------------
 #rhf/gen scf(symm,tight,novaracc,noincfock,fulldiag) stable(crhf) gues
 s=read geom=nocrowd test
 ----------------------------------------------------------------------

 hf stability analysis of h10 triangular lattice, y= 0.8007574317254395
 6
 ----------------------------------------------------------------------
 Symbolic Z-matrix:
 Charge =  0 Multiplicity = 1

                         Standard orientation:
 ---------------------------------------------------------------------
 Center     Atomic      Atomic             Coordinates (Angstroms)
 Number     Number       Type             X           Y           Z
 ---------------------------------------------------------------------
      1          1           0       -0.000000    0.721005    1.601515
      2          1           0       -0.000000    1.442010    0.800757
      3          1           0       -0.000000    0.000000    0.800757
      4          1           0       -0.000000    0.721005   -0.000000
      5          1           0        0.000000    0.000000   -0.800757
      6          1           0       -0.000000   -0.721005   -1.601515
      7          1           0       -0.000000   -0.721005    0.000000
      8          1           0       -0.000000   -1.442010   -0.800757
      9          1           0       -0.000000   -0.721005    1.601515
     10          1           0       -0.000000   -1.442010    0.800757
     11          1           0        0.000000    1.442010   -0.800757
     12          1           0        0.000000    0.721005   -1.601515
 ---------------------------------------------------------------------

 SCF Done:  E(RHF) =  -5.21871241820     A.U. after   12 cycles
 E2 =    -0.2555899713D+00 EUMP2 =    -0.54743023894795D+01

 The electronic state is 1-AG.
 Alpha  occ. eigenvalues --   -0.90967  -0.67722  -0.66569  -0.38338  -0.31233
 Alpha  occ. eigenvalues --   -0.08673
 Alpha virt. eigenvalues --   -0.22501   0.15992   0.32516   0.42108   0.44345
 Alpha virt. eigenvalues --    0.89048

 Mulliken charges:
               1
     1  H   -0.096967
     2  H    0.198853
     3  H    0.034262
     4  H   -0.238033
     5  H    0.034262
     6  H   -0.096967
     7  H   -0.238033
     8  H    0.198853
     9  H   -0.096967
    10  H    0.198853
    11  H    0.198853
    12  H   -0.096967
 Sum of Mulliken charges =  -0.00000

 Dipole moment (field-independent basis, Debye):
    X=             -0.0000    Y=             -0.0000    Z=             -0.0000  Tot=              0.0000
 Quadrupole moment (field-independent basis, Debye-Ang):
   XX=            -14.6919   YY=            -13.0433   ZZ=            -20.7376
   XY=              0.0000   XZ=              0.0000   YZ=              0.0000

 Normal termination of Gaussian 09 at Fri Feb 17 15:11:11 2017.
