 Gaussian 09, Revision E.01,
 Gaussian 09:  ES64L-G09RevE.01 30-Nov-2015

 ----------------------------------------------------------------------
 #rhf/gen scf(symm,tight,novaracc,noincfock,fulldiag) stable(crhf) gues
 s=read geom=nocrowd test
 ----------------------------------------------------------------------

 hf stability analysis of h10 triangular lattice, y= 0.5540600992415728
 5
 ----------------------------------------------------------------------
 Symbolic Z-matrix:
 Charge =  0 Multiplicity = 1

                         Standard orientation:
 ---------------------------------------------------------------------
 Center     Atomic      Atomic             Coordinates (Angstroms)
 Number     Number       Type             X           Y           Z
 ---------------------------------------------------------------------
      1          1           0        0.000000    1.108120    1.042035
      2          1           0        0.000000    0.554060    2.084071
      3          1           0       -0.000000    0.554060    0.000000
      4          1           0       -0.000000    0.000000    1.042035
      5          1           0       -0.000000   -0.554060    0.000000
      6          1           0       -0.000000   -1.108120   -1.042035
      7          1           0        0.000000    0.000000   -1.042035
      8          1           0       -0.000000   -0.554060   -2.084071
      9          1           0        0.000000    1.108120   -1.042035
     10          1           0        0.000000    0.554060   -2.084071
     11          1           0       -0.000000   -0.554060    2.084071
     12          1           0       -0.000000   -1.108120    1.042035
 ---------------------------------------------------------------------

 SCF Done:  E(RHF) =  -5.27894960572     A.U. after   12 cycles
 E2 =    -0.1924720008D+00 EUMP2 =    -0.54714216064718D+01

 The electronic state is 1-AG.
 Alpha  occ. eigenvalues --   -0.91454  -0.76735  -0.55312  -0.52704  -0.29287
 Alpha  occ. eigenvalues --   -0.08542
 Alpha virt. eigenvalues --   -0.17299   0.19083   0.31057   0.39069   0.39582
 Alpha virt. eigenvalues --    0.64276

 Mulliken charges:
               1
     1  H   -0.046884
     2  H    0.037747
     3  H    0.105064
     4  H   -0.086789
     5  H    0.105064
     6  H   -0.046884
     7  H   -0.086789
     8  H    0.037747
     9  H   -0.046884
    10  H    0.037747
    11  H    0.037747
    12  H   -0.046884
 Sum of Mulliken charges =  -0.00000

 Dipole moment (field-independent basis, Debye):
    X=             -0.0000    Y=              0.0000    Z=              0.0000  Tot=              0.0000
 Quadrupole moment (field-independent basis, Debye-Ang):
   XX=            -14.8598   YY=            -17.8939   ZZ=            -18.5204
   XY=             -0.0000   XZ=              0.0000   YZ=             -0.0000

 Normal termination of Gaussian 09 at Fri Feb 17 15:10:27 2017.
