 Gaussian 09, Revision E.01,
 Gaussian 09:  ES64L-G09RevE.01 30-Nov-2015

 ----------------------------------------------------------------------
 #rhf/gen scf(symm,tight,novaracc,noincfock,fulldiag) stable(crhf) gues
 s=read geom=nocrowd test
 ----------------------------------------------------------------------

 ----------------------------------------------------------------------
 hf stability analysis of h10 triangular lattice, y= 1.0205721581109972
 ----------------------------------------------------------------------
 Symbolic Z-matrix:
 Charge =  0 Multiplicity = 1

                         Standard orientation:
 ---------------------------------------------------------------------
 Center     Atomic      Atomic             Coordinates (Angstroms)
 Number     Number       Type             X           Y           Z
 ---------------------------------------------------------------------
      1          1           0        0.000000    0.565712    2.041144
      2          1           0        0.000000    1.131425    1.020572
      3          1           0        0.000000    0.000000    1.020572
      4          1           0       -0.000000    0.565712    0.000000
      5          1           0        0.000000    0.000000   -1.020572
      6          1           0       -0.000000   -0.565712   -2.041144
      7          1           0       -0.000000   -0.565712   -0.000000
      8          1           0       -0.000000   -1.131425   -1.020572
      9          1           0       -0.000000   -0.565712    2.041144
     10          1           0       -0.000000   -1.131425    1.020572
     11          1           0        0.000000    1.131425   -1.020572
     12          1           0        0.000000    0.565712   -2.041144
 ---------------------------------------------------------------------

 SCF Done:  E(RHF) =  -4.88155803543     A.U. after   12 cycles
 E2 =    -0.3559871314D+00 EUMP2 =    -0.52375451668723D+01

 The electronic state is 1-AG.
 Alpha  occ. eigenvalues --   -0.89735  -0.75133  -0.54526  -0.50244  -0.09222
 Alpha  occ. eigenvalues --   -0.05830
 Alpha virt. eigenvalues --   -0.20369   0.00380   0.28019   0.36535   0.47035
 Alpha virt. eigenvalues --    0.64522

 Mulliken charges:
               1
     1  H   -0.024941
     2  H    0.114766
     3  H    0.031044
     4  H   -0.210695
     5  H    0.031044
     6  H   -0.024941
     7  H   -0.210695
     8  H    0.114766
     9  H   -0.024941
    10  H    0.114766
    11  H    0.114766
    12  H   -0.024941
 Sum of Mulliken charges =  -0.00000

 Dipole moment (field-independent basis, Debye):
    X=             -0.0000    Y=             -0.0000    Z=              0.0000  Tot=              0.0000
 Quadrupole moment (field-independent basis, Debye-Ang):
   XX=            -14.6789   YY=            -18.7685   ZZ=            -15.6807
   XY=             -0.0000   XZ=              0.0000   YZ=              0.0000

 Normal termination of Gaussian 09 at Fri Feb 17 15:11:41 2017.
