 Gaussian 09, Revision E.01,
 Gaussian 09:  ES64L-G09RevE.01 30-Nov-2015

 ----------------------------------------------------------------------
 #rhf/gen scf(symm,tight,novaracc,noincfock,fulldiag) stable(crhf) gues
 s=read geom=nocrowd test
 ----------------------------------------------------------------------

 ----------------------------------------------------------------------
 hf stability analysis of h10 triangular lattice, y= 1.0420355127918348
 ----------------------------------------------------------------------
 Symbolic Z-matrix:
 Charge =  0 Multiplicity = 1

                         Standard orientation:
 ---------------------------------------------------------------------
 Center     Atomic      Atomic             Coordinates (Angstroms)
 Number     Number       Type             X           Y           Z
 ---------------------------------------------------------------------
      1          1           0        0.000000    0.554060    2.084071
      2          1           0        0.000000    1.108120    1.042035
      3          1           0        0.000000    0.000000    1.042035
      4          1           0       -0.000000    0.554060   -0.000000
      5          1           0        0.000000   -0.000000   -1.042035
      6          1           0       -0.000000   -0.554060   -2.084071
      7          1           0       -0.000000   -0.554060    0.000000
      8          1           0       -0.000000   -1.108120   -1.042035
      9          1           0       -0.000000   -0.554060    2.084071
     10          1           0       -0.000000   -1.108120    1.042035
     11          1           0        0.000000    1.108120   -1.042035
     12          1           0        0.000000    0.554060   -2.084071
 ---------------------------------------------------------------------

 SCF Done:  E(RHF) =  -4.82611242432     A.U. after   12 cycles
 E2 =    -0.4109041220D+00 EUMP2 =    -0.52370165462957D+01

 The electronic state is 1-AG.
 Alpha  occ. eigenvalues --   -0.89616  -0.75681  -0.53308  -0.51050  -0.07255
 Alpha  occ. eigenvalues --   -0.05140
 Alpha virt. eigenvalues --   -0.20046  -0.02043   0.29396   0.35904   0.43070
 Alpha virt. eigenvalues --    0.64651

 Mulliken charges:
               1
     1  H   -0.020055
     2  H    0.101221
     3  H    0.045731
     4  H   -0.208063
     5  H    0.045731
     6  H   -0.020055
     7  H   -0.208063
     8  H    0.101221
     9  H   -0.020055
    10  H    0.101221
    11  H    0.101221
    12  H   -0.020055
 Sum of Mulliken charges =   0.00000

 Dipole moment (field-independent basis, Debye):
    X=              0.0000    Y=              0.0000    Z=              0.0000  Tot=              0.0000
 Quadrupole moment (field-independent basis, Debye-Ang):
   XX=            -14.6719   YY=            -19.1740   ZZ=            -15.2950
   XY=             -0.0000   XZ=              0.0000   YZ=             -0.0000

 Normal termination of Gaussian 09 at Fri Feb 17 15:11:43 2017.
