 Gaussian 09, Revision E.01,
 Gaussian 09:  ES64L-G09RevE.01 30-Nov-2015

 ----------------------------------------------------------------------
 #rhf/gen scf(symm,tight,novaracc,noincfock,fulldiag) stable(crhf) gues
 s=read geom=nocrowd test
 ----------------------------------------------------------------------

 ----------------------------------------------------------------------
 hf stability analysis of h10 triangular lattice, y= 1.6480958607190197
 ----------------------------------------------------------------------
 Symbolic Z-matrix:
 Charge =  0 Multiplicity = 1

                         Standard orientation:
 ---------------------------------------------------------------------
 Center     Atomic      Atomic             Coordinates (Angstroms)
 Number     Number       Type             X           Y           Z
 ---------------------------------------------------------------------
      1          1           0        0.000000    0.350314    3.296192
      2          1           0       -0.000000    0.700627    1.648096
      3          1           0       -0.000000   -0.000000    1.648096
      4          1           0       -0.000000    0.350314    0.000000
      5          1           0        0.000000    0.000000   -1.648096
      6          1           0       -0.000000   -0.350314   -3.296192
      7          1           0       -0.000000   -0.350314   -0.000000
      8          1           0       -0.000000   -0.700627   -1.648096
      9          1           0       -0.000000   -0.350314    3.296192
     10          1           0       -0.000000   -0.700627    1.648096
     11          1           0        0.000000    0.700627   -1.648096
     12          1           0        0.000000    0.350314   -3.296192
 ---------------------------------------------------------------------

 SCF Done:  E(RHF) =  -4.27923981828     A.U. after   13 cycles
 E2 =    -0.1610379841D+01 EUMP2 =    -0.58896196589871D+01

 The electronic state is 1-AG.
 Alpha  occ. eigenvalues --   -0.84201  -0.81603  -0.56780  -0.44321  -0.27530
 Alpha  occ. eigenvalues --    0.20750
 Alpha virt. eigenvalues --   -0.38689  -0.09696   0.32714   0.58641   0.85407
 Alpha virt. eigenvalues --    0.87708

 Mulliken charges:
               1
     1  H    0.006452
     2  H    0.202275
     3  H   -0.236045
     4  H   -0.181410
     5  H   -0.236045
     6  H    0.006452
     7  H   -0.181410
     8  H    0.202275
     9  H    0.006452
    10  H    0.202275
    11  H    0.202275
    12  H    0.006452
 Sum of Mulliken charges =  -0.00000

 Dipole moment (field-independent basis, Debye):
    X=             -0.0000    Y=              0.0000    Z=             -0.0000  Tot=              0.0000
 Quadrupole moment (field-independent basis, Debye-Ang):
   XX=            -14.6268   YY=            -17.2629   ZZ=            -12.0699
   XY=             -0.0000   XZ=              0.0000   YZ=              0.0000

 Normal termination of Gaussian 09 at Fri Feb 17 15:12:19 2017.
