 Gaussian 09, Revision E.01,
 Gaussian 09:  ES64L-G09RevE.01 30-Nov-2015

 ----------------------------------------------------------------------
 #rhf/gen scf(symm,tight,novaracc,noincfock,fulldiag) stable(crhf) gues
 s=read geom=nocrowd test
 ----------------------------------------------------------------------

 hf stability analysis of h10 triangular lattice, y= 0.6960275979088506
 0
 ----------------------------------------------------------------------
 Symbolic Z-matrix:
 Charge =  0 Multiplicity = 1

                         Standard orientation:
 ---------------------------------------------------------------------
 Center     Atomic      Atomic             Coordinates (Angstroms)
 Number     Number       Type             X           Y           Z
 ---------------------------------------------------------------------
      1          1           0        0.000000    1.392055    0.829493
      2          1           0        0.000000    0.696028    1.658987
      3          1           0       -0.000000    0.696028   -0.000000
      4          1           0        0.000000    0.000000    0.829493
      5          1           0       -0.000000   -0.696028    0.000000
      6          1           0       -0.000000   -1.392055   -0.829493
      7          1           0        0.000000    0.000000   -0.829493
      8          1           0       -0.000000   -0.696028   -1.658987
      9          1           0        0.000000    1.392055   -0.829493
     10          1           0        0.000000    0.696028   -1.658987
     11          1           0       -0.000000   -0.696028    1.658987
     12          1           0       -0.000000   -1.392055    0.829493
 ---------------------------------------------------------------------

 SCF Done:  E(RHF) =  -5.14853241272     A.U. after   23 cycles
 E2 =    -0.2308486840D+00 EUMP2 =    -0.53793810967114D+01

 The electronic state is 1-AG.
 Alpha  occ. eigenvalues --   -0.91449  -0.72139  -0.61589  -0.42164  -0.28576
 Alpha  occ. eigenvalues --   -0.05929
 Alpha virt. eigenvalues --   -0.21740   0.13845   0.24500   0.41710   0.50924
 Alpha virt. eigenvalues --    0.84237

 Mulliken charges:
               1
     1  H   -0.167892
     2  H    0.225014
     3  H    0.056093
     4  H   -0.170337
     5  H    0.056093
     6  H   -0.167892
     7  H   -0.170337
     8  H    0.225014
     9  H   -0.167892
    10  H    0.225014
    11  H    0.225014
    12  H   -0.167892
 Sum of Mulliken charges =  -0.00000

 Dipole moment (field-independent basis, Debye):
    X=              0.0000    Y=             -0.0000    Z=             -0.0000  Tot=              0.0000
 Quadrupole moment (field-independent basis, Debye-Ang):
   XX=            -14.6708   YY=            -23.8011   ZZ=             -8.9141
   XY=             -0.0000   XZ=             -0.0000   YZ=              0.0000

 Normal termination of Gaussian 09 at Fri Feb 17 15:10:54 2017.
