 Gaussian 09, Revision E.01,
 Gaussian 09:  ES64L-G09RevE.01 30-Nov-2015

 ----------------------------------------------------------------------
 #rhf/gen scf(symm,tight,novaracc,noincfock,fulldiag) stable(crhf) gues
 s=read geom=nocrowd test
 ----------------------------------------------------------------------

 ----------------------------------------------------------------------
 hf stability analysis of h10 triangular lattice, y= 1.1954046164231349
 ----------------------------------------------------------------------
 Symbolic Z-matrix:
 Charge =  0 Multiplicity = 1

                         Standard orientation:
 ---------------------------------------------------------------------
 Center     Atomic      Atomic             Coordinates (Angstroms)
 Number     Number       Type             X           Y           Z
 ---------------------------------------------------------------------
      1          1           0        0.000000    0.482975    2.390809
      2          1           0        0.000000    0.965950    1.195405
      3          1           0       -0.000000   -0.000000    1.195405
      4          1           0        0.000000    0.482975    0.000000
      5          1           0        0.000000    0.000000   -1.195405
      6          1           0       -0.000000   -0.482975   -2.390809
      7          1           0       -0.000000   -0.482975   -0.000000
      8          1           0       -0.000000   -0.965950   -1.195405
      9          1           0       -0.000000   -0.482975    2.390809
     10          1           0       -0.000000   -0.965950    1.195405
     11          1           0        0.000000    0.965950   -1.195405
     12          1           0        0.000000    0.482975   -2.390809
 ---------------------------------------------------------------------

 SCF Done:  E(RHF) =  -4.69229255155     A.U. after   12 cycles
 E2 =    -0.7642377263D+00 EUMP2 =    -0.54565302778329D+01

 The electronic state is 1-AG.
 Alpha  occ. eigenvalues --   -0.84228  -0.76232  -0.51347  -0.43118  -0.10134
 Alpha  occ. eigenvalues --    0.05114
 Alpha virt. eigenvalues --   -0.17344  -0.17069   0.34237   0.40372   0.47739
 Alpha virt. eigenvalues --    0.66660

 Mulliken charges:
               1
     1  H   -0.061341
     2  H    0.246780
     3  H    0.046414
     4  H   -0.417293
     5  H    0.046414
     6  H   -0.061341
     7  H   -0.417293
     8  H    0.246780
     9  H   -0.061341
    10  H    0.246780
    11  H    0.246780
    12  H   -0.061341
 Sum of Mulliken charges =  -0.00000

 Dipole moment (field-independent basis, Debye):
    X=             -0.0000    Y=             -0.0000    Z=             -0.0000  Tot=              0.0000
 Quadrupole moment (field-independent basis, Debye-Ang):
   XX=            -14.4904   YY=            -14.1862   ZZ=            -19.0314
   XY=             -0.0000   XZ=              0.0000   YZ=              0.0000

 Normal termination of Gaussian 09 at Fri Feb 17 15:11:57 2017.
