 Gaussian 09, Revision E.01,
 Gaussian 09:  ES64L-G09RevE.01 30-Nov-2015

 ----------------------------------------------------------------------
 #rhf/gen scf(symm,tight,novaracc,noincfock,fulldiag) stable(crhf) gues
 s=read geom=nocrowd test
 ----------------------------------------------------------------------

 hf stability analysis of h10 triangular lattice, y= 0.2463370865798451
 8
 ----------------------------------------------------------------------
 Symbolic Z-matrix:
 Charge =  0 Multiplicity = 1

                         Standard orientation:
 ---------------------------------------------------------------------
 Center     Atomic      Atomic             Coordinates (Angstroms)
 Number     Number       Type             X           Y           Z
 ---------------------------------------------------------------------
      1          1           0        0.000000    0.492674    2.343741
      2          1           0        0.000000    0.246337    4.687482
      3          1           0       -0.000000    0.246337    0.000000
      4          1           0        0.000000    0.000000    2.343741
      5          1           0       -0.000000   -0.246337    0.000000
      6          1           0       -0.000000   -0.492674   -2.343741
      7          1           0        0.000000    0.000000   -2.343741
      8          1           0       -0.000000   -0.246337   -4.687482
      9          1           0        0.000000    0.492674   -2.343741
     10          1           0        0.000000    0.246337   -4.687482
     11          1           0       -0.000000   -0.246337    4.687482
     12          1           0       -0.000000   -0.492674    2.343741
 ---------------------------------------------------------------------

 SCF Done:  E(RHF) =  -4.73356874804     A.U. after    8 cycles
 E2 =    -0.2499216377D+00 EUMP2 =    -0.49834903857669D+01

 The electronic state is 1-AG.
 Alpha  occ. eigenvalues --   -0.92200  -0.91879  -0.71754  -0.71603  -0.71426
 Alpha  occ. eigenvalues --   -0.13089
 Alpha virt. eigenvalues --   -0.01620   0.61483   0.62117   0.63849   1.48045
 Alpha virt. eigenvalues --    1.48113

 Mulliken charges:
               1
     1  H    0.311302
     2  H   -0.002338
     3  H   -0.011538
     4  H   -0.606389
     5  H   -0.011538
     6  H    0.311302
     7  H   -0.606389
     8  H   -0.002338
     9  H    0.311302
    10  H   -0.002338
    11  H   -0.002338
    12  H    0.311302
 Sum of Mulliken charges =  -0.00000

 Dipole moment (field-independent basis, Debye):
    X=             -0.0000    Y=              0.0000    Z=              0.0000  Tot=              0.0000
 Quadrupole moment (field-independent basis, Debye-Ang):
   XX=            -15.4869   YY=            -16.2310   ZZ=            -17.3009
   XY=              0.0000   XZ=              0.0000   YZ=             -0.0000

 Normal termination of Gaussian 09 at Fri Feb 17 15:09:29 2017.
