 Gaussian 09, Revision E.01,
 Gaussian 09:  ES64L-G09RevE.01 30-Nov-2015

 ----------------------------------------------------------------------
 #rhf/gen scf(symm,tight,novaracc,noincfock,fulldiag) stable(crhf) gues
 s=read geom=nocrowd test
 ----------------------------------------------------------------------

 hf stability analysis of h10 triangular lattice, y= 0.9251794552834028
 4
 ----------------------------------------------------------------------
 Symbolic Z-matrix:
 Charge =  0 Multiplicity = 1

                         Standard orientation:
 ---------------------------------------------------------------------
 Center     Atomic      Atomic             Coordinates (Angstroms)
 Number     Number       Type             X           Y           Z
 ---------------------------------------------------------------------
      1          1           0        0.000000    0.624041    1.850359
      2          1           0        0.000000    1.248083    0.925179
      3          1           0        0.000000    0.000000    0.925179
      4          1           0       -0.000000    0.624041    0.000000
      5          1           0        0.000000   -0.000000   -0.925179
      6          1           0       -0.000000   -0.624041   -1.850359
      7          1           0       -0.000000   -0.624041    0.000000
      8          1           0       -0.000000   -1.248083   -0.925179
      9          1           0       -0.000000   -0.624041    1.850359
     10          1           0       -0.000000   -1.248083    0.925179
     11          1           0        0.000000    1.248083   -0.925179
     12          1           0        0.000000    0.624041   -1.850359
 ---------------------------------------------------------------------

 SCF Done:  E(RHF) =  -5.09086438899     A.U. after   11 cycles
 E2 =    -0.3014076219D+00 EUMP2 =    -0.53922720109102D+01

 The electronic state is 1-AG.
 Alpha  occ. eigenvalues --   -0.90394  -0.72578  -0.59824  -0.46057  -0.18688
 Alpha  occ. eigenvalues --   -0.08081
 Alpha virt. eigenvalues --   -0.21697   0.11410   0.23238   0.39312   0.60293
 Alpha virt. eigenvalues --    0.66600

 Mulliken charges:
               1
     1  H   -0.051160
     2  H    0.158868
     3  H    0.013658
     4  H   -0.229073
     5  H    0.013658
     6  H   -0.051160
     7  H   -0.229073
     8  H    0.158868
     9  H   -0.051160
    10  H    0.158868
    11  H    0.158868
    12  H   -0.051160
 Sum of Mulliken charges =  -0.00000

 Dipole moment (field-independent basis, Debye):
    X=             -0.0000    Y=              0.0000    Z=              0.0000  Tot=              0.0000
 Quadrupole moment (field-independent basis, Debye-Ang):
   XX=            -14.6934   YY=            -16.6377   ZZ=            -17.7907
   XY=             -0.0000   XZ=              0.0000   YZ=             -0.0000

 Normal termination of Gaussian 09 at Fri Feb 17 15:11:30 2017.
