 Gaussian 09, Revision E.01,
 Gaussian 09:  ES64L-G09RevE.01 30-Nov-2015

 ----------------------------------------------------------------------
 #uhf/gen scf(tight,novaracc,noincfock,fulldiag) stable(crhf) guess=rea
 d geom=nocrowd test
 ----------------------------------------------------------------------

 hf stability analysis of h10 triangular lattice, y= 1.4678899319530556
  alpha= 75.000000000000000
 ----------------------------------------------------------------------
 Symbolic Z-matrix:
 Charge =  0 Multiplicity = 1

                         Standard orientation:
 ---------------------------------------------------------------------
 Center     Atomic      Atomic             Coordinates (Angstroms)
 Number     Number       Type             X           Y           Z
 ---------------------------------------------------------------------
      1          1           0        1.519671    3.391984    0.000000
      2          1           0        1.519671    1.872312    0.000000
      3          1           0        0.759836    2.075910    0.000000
      4          1           0        0.759836    0.556238    0.000000
      5          1           0       -0.000000    0.759836    0.000000
      6          1           0       -0.000000   -0.759836   -0.000000
      7          1           0       -0.759836   -0.556238    0.000000
      8          1           0       -0.759836   -2.075910    0.000000
      9          1           0       -1.519671   -1.872312    0.000000
     10          1           0       -1.519671   -3.391984    0.000000
 ---------------------------------------------------------------------

 SCF Done:  E(UHF) =  -5.11138175010     A.U. after   10 cycles
 E2 =    -0.5205244999D-01 EUMP2 =    -0.51634342000887D+01

 Unable to determine electronic state:  partially filled degenerate orbitals.
 Alpha  occ. eigenvalues --   -0.75918  -0.69963  -0.60095  -0.47683  -0.37276
 Alpha virt. eigenvalues --    0.18967   0.20773   0.30690   0.47248   0.63910
  Beta  occ. eigenvalues --   -0.75918  -0.69963  -0.60095  -0.47683  -0.37276
  Beta virt. eigenvalues --    0.18967   0.20773   0.30690   0.47248   0.63910

 Mulliken charges and spin densities:
               1          2
     1  H   -0.031436  -0.966673
     2  H   -0.008253  -0.040127
     3  H    0.030273   0.016424
     4  H    0.005341   0.020341
     5  H    0.004074  -0.027765
     6  H    0.004074   0.027765
     7  H    0.005341  -0.020341
     8  H    0.030273  -0.016424
     9  H   -0.008253   0.040127
    10  H   -0.031436   0.966673
 Sum of Mulliken charges =  -0.00000  -0.00000

 Dipole moment (field-independent basis, Debye):
    X=             -0.0000    Y=             -0.0000    Z=             -0.0000  Tot=              0.0000
 Quadrupole moment (field-independent basis, Debye-Ang):
   XX=            -12.9393   YY=            -20.3005   ZZ=            -12.7238
   XY=             -4.3053   XZ=              0.0000   YZ=              0.0000

 Normal termination of Gaussian 09 at Thu Feb 23 14:27:45 2017.
