 Gaussian 09, Revision E.01,
 Gaussian 09:  ES64L-G09RevE.01 30-Nov-2015

 ----------------------------------------------------------------------
 #uhf/gen scf(tight,novaracc,noincfock,fulldiag) stable(crhf) guess=rea
 d geom=nocrowd test
 ----------------------------------------------------------------------

 hf stability analysis of h10 triangular lattice, y= 0.8149635215757493
 6 alpha= 49.000000000000000
 ----------------------------------------------------------------------
 Symbolic Z-matrix:
 Charge =  0 Multiplicity = 1

                         Standard orientation:
 ---------------------------------------------------------------------
 Center     Atomic      Atomic             Coordinates (Angstroms)
 Number     Number       Type             X           Y           Z
 ---------------------------------------------------------------------
      1          1           0        2.138657    0.840487    0.000000
      2          1           0        2.138657   -0.239350    0.000000
      3          1           0        1.069328    0.690203    0.000000
      4          1           0        1.069328   -0.389634    0.000000
      5          1           0        0.000000    0.539919    0.000000
      6          1           0       -0.000000   -0.539919    0.000000
      7          1           0       -1.069328    0.389634    0.000000
      8          1           0       -1.069328   -0.690203    0.000000
      9          1           0       -2.138657    0.239350    0.000000
     10          1           0       -2.138657   -0.840487    0.000000
 ---------------------------------------------------------------------

 SCF Done:  E(UHF) =  -4.95706034859     A.U. after   10 cycles
 E2 =    -0.4939597154D-01 EUMP2 =    -0.50064563201315D+01

 Unable to determine electronic state:  partially filled degenerate orbitals.
 Alpha  occ. eigenvalues --   -0.87168  -0.74911  -0.55861  -0.45064  -0.38696
 Alpha virt. eigenvalues --    0.06744   0.20372   0.36617   0.53181   0.88634
  Beta  occ. eigenvalues --   -0.87168  -0.74911  -0.55861  -0.45064  -0.38696
  Beta virt. eigenvalues --    0.06744   0.20372   0.36617   0.53181   0.88634

 Mulliken charges and spin densities:
               1          2
     1  H    0.043921   0.603241
     2  H    0.010589  -0.580431
     3  H   -0.016462  -0.548267
     4  H   -0.034855   0.550346
     5  H   -0.003194   0.395408
     6  H   -0.003194  -0.395408
     7  H   -0.034855  -0.550346
     8  H   -0.016462   0.548267
     9  H    0.010589   0.580431
    10  H    0.043921  -0.603241
 Sum of Mulliken charges =   0.00000  -0.00000

 Dipole moment (field-independent basis, Debye):
    X=             -0.0000    Y=             -0.0000    Z=              0.0000  Tot=              0.0000
 Quadrupole moment (field-independent basis, Debye-Ang):
   XX=            -13.1010   YY=            -15.3211   ZZ=            -12.7967
   XY=              0.9817   XZ=             -0.0000   YZ=             -0.0000

 Normal termination of Gaussian 09 at Thu Feb 23 14:40:38 2017.
