 Gaussian 09, Revision E.01,
 Gaussian 09:  ES64L-G09RevE.01 30-Nov-2015

 ----------------------------------------------------------------------
 #rhf/gen scf(symm,tight,novaracc,noincfock,fulldiag) stable(crhf) gues
 s=read geom=nocrowd test
 ----------------------------------------------------------------------

 ----------------------------------------------------------------------
 hf stability analysis of h10 triangular lattice, y= 1.2594669489559134
 ----------------------------------------------------------------------
 Symbolic Z-matrix:
 Charge =  0 Multiplicity = 1

                         Standard orientation:
 ---------------------------------------------------------------------
 Center     Atomic      Atomic             Coordinates (Angstroms)
 Number     Number       Type             X           Y           Z
 ---------------------------------------------------------------------
      1          1           0        1.723052    2.723602   -0.000000
      2          1           0        1.723052    1.383305   -0.000000
      3          1           0        0.861526    1.696875   -0.000000
      4          1           0        0.861526    0.356578    0.000000
      5          1           0        0.000000    0.670148   -0.000000
      6          1           0       -0.000000   -0.670148   -0.000000
      7          1           0       -0.861526   -0.356578    0.000000
      8          1           0       -0.861526   -1.696875   -0.000000
      9          1           0       -1.723052   -1.383305    0.000000
     10          1           0       -1.723052   -2.723602   -0.000000
 ---------------------------------------------------------------------

 SCF Done:  E(RHF) =  -4.73720793369     A.U. after   10 cycles
 E2 =    -0.1346062563D+00 EUMP2 =    -0.48718141899394D+01

 The electronic state is 1-AG.
 Alpha  occ. eigenvalues --   -0.77606  -0.71770  -0.55090  -0.34548  -0.16727
 Alpha virt. eigenvalues --    0.00791   0.15738   0.15835   0.40210   0.63927

 Mulliken charges:
               1
     1  H    0.060613
     2  H    0.033383
     3  H    0.121750
     4  H   -0.062288
     5  H   -0.153458
     6  H   -0.153458
     7  H   -0.062288
     8  H    0.121750
     9  H    0.033383
    10  H    0.060613
 Sum of Mulliken charges =   0.00000

 Dipole moment (field-independent basis, Debye):
    X=              0.0000    Y=             -0.0000    Z=             -0.0000  Tot=              0.0000
 Quadrupole moment (field-independent basis, Debye-Ang):
   XX=            -11.6116   YY=             -7.1291   ZZ=            -13.1896
   XY=              5.2331   XZ=              0.0000   YZ=             -0.0000

 Normal termination of Gaussian 09 at Mon Feb 20 11:37:43 2017.
