 Gaussian 09, Revision E.01,
 Gaussian 09:  ES64L-G09RevE.01 30-Nov-2015

 ----------------------------------------------------------------------
 #rhf/gen scf(symm,tight,novaracc,noincfock,fulldiag) stable(crhf) gues
 s=read geom=nocrowd test
 ----------------------------------------------------------------------

 ----------------------------------------------------------------------
 hf stability analysis of h10 triangular lattice, y= 1.0879998015825072
 ----------------------------------------------------------------------
 Symbolic Z-matrix:
 Charge =  0 Multiplicity = 1

                         Standard orientation:
 ---------------------------------------------------------------------
 Center     Atomic      Atomic             Coordinates (Angstroms)
 Number     Number       Type             X           Y           Z
 ---------------------------------------------------------------------
      1          1           0        1.907791    2.095785    0.000000
      2          1           0        1.907791    0.885274    0.000000
      3          1           0        0.953895    1.350520    0.000000
      4          1           0        0.953895    0.140009    0.000000
      5          1           0        0.000000    0.605255    0.000000
      6          1           0       -0.000000   -0.605255    0.000000
      7          1           0       -0.953895   -0.140009    0.000000
      8          1           0       -0.953895   -1.350520    0.000000
      9          1           0       -1.907791   -0.885274    0.000000
     10          1           0       -1.907791   -2.095785    0.000000
 ---------------------------------------------------------------------

 SCF Done:  E(RHF) =  -4.84944259420     A.U. after    8 cycles
 E2 =    -0.1173189755D+00 EUMP2 =    -0.49667615696850D+01

 The electronic state is 1-AG.
 Alpha  occ. eigenvalues --   -0.82257  -0.73618  -0.55317  -0.32489  -0.28358
 Alpha virt. eigenvalues --    0.02083   0.16770   0.24382   0.46082   0.58629

 Mulliken charges:
               1
     1  H   -0.054967
     2  H    0.130993
     3  H    0.113203
     4  H   -0.119191
     5  H   -0.070038
     6  H   -0.070038
     7  H   -0.119191
     8  H    0.113203
     9  H    0.130993
    10  H   -0.054967
 Sum of Mulliken charges =   0.00000

 Dipole moment (field-independent basis, Debye):
    X=              0.0000    Y=             -0.0000    Z=              0.0000  Tot=              0.0000
 Quadrupole moment (field-independent basis, Debye-Ang):
   XX=            -12.4893   YY=            -14.4343   ZZ=            -13.0785
   XY=              0.8063   XZ=              0.0000   YZ=              0.0000

 Normal termination of Gaussian 09 at Mon Feb 20 11:36:47 2017.
