 Gaussian 09, Revision E.01,
 Gaussian 09:  ES64L-G09RevE.01 30-Nov-2015

 ----------------------------------------------------------------------
 #rhf/gen scf(symm,tight,novaracc,noincfock,fulldiag) stable(crhf) gues
 s=read geom=nocrowd test
 ----------------------------------------------------------------------

 hf stability analysis of h10 triangular lattice, y= 0.8294933944434413
 9
 ----------------------------------------------------------------------
 Symbolic Z-matrix:
 Charge =  0 Multiplicity = 1

                         Standard orientation:
 ---------------------------------------------------------------------
 Center     Atomic      Atomic             Coordinates (Angstroms)
 Number     Number       Type             X           Y           Z
 ---------------------------------------------------------------------
      1          1           0        2.132752    0.917475    0.000000
      2          1           0        2.132752   -0.165352   -0.000000
      3          1           0        1.066376    0.729444    0.000000
      4          1           0        1.066376   -0.353382   -0.000000
      5          1           0        0.000000    0.541413    0.000000
      6          1           0       -0.000000   -0.541413    0.000000
      7          1           0       -1.066376    0.353382    0.000000
      8          1           0       -1.066376   -0.729444    0.000000
      9          1           0       -2.132752    0.165352    0.000000
     10          1           0       -2.132752   -0.917475    0.000000
 ---------------------------------------------------------------------

 SCF Done:  E(RHF) =  -4.84618151669     A.U. after    9 cycles
 E2 =    -0.1151294526D+00 EUMP2 =    -0.49613109693076D+01

 The electronic state is 1-AG.
 Alpha  occ. eigenvalues --   -0.86221  -0.73685  -0.54453  -0.40214  -0.28824
 Alpha virt. eigenvalues --   -0.03082   0.21105   0.32482   0.52223   0.87373

 Mulliken charges:
               1
     1  H   -0.050154
     2  H    0.084546
     3  H    0.032406
     4  H   -0.076425
     5  H    0.009626
     6  H    0.009626
     7  H   -0.076425
     8  H    0.032406
     9  H    0.084546
    10  H   -0.050154
 Sum of Mulliken charges =  -0.00000

 Dipole moment (field-independent basis, Debye):
    X=             -0.0000    Y=             -0.0000    Z=             -0.0000  Tot=              0.0000
 Quadrupole moment (field-independent basis, Debye-Ang):
   XX=            -15.8402   YY=            -13.8374   ZZ=            -12.8194
   XY=             -1.2926   XZ=             -0.0000   YZ=             -0.0000

 Normal termination of Gaussian 09 at Mon Feb 20 11:34:34 2017.
