 Gaussian 09, Revision E.01,
 Gaussian 09:  ES64L-G09RevE.01 30-Nov-2015

 ----------------------------------------------------------------------
 #rhf/gen scf(symm,tight,novaracc,noincfock,fulldiag) stable(crhf) gues
 s=read geom=nocrowd test
 ----------------------------------------------------------------------

 hf stability analysis of h10 triangular lattice, y= 0.9428899751596989
 7
 ----------------------------------------------------------------------
 Symbolic Z-matrix:
 Charge =  0 Multiplicity = 1

                         Standard orientation:
 ---------------------------------------------------------------------
 Center     Atomic      Atomic             Coordinates (Angstroms)
 Number     Number       Type             X           Y           Z
 ---------------------------------------------------------------------
      1          1           0        2.054139    1.476695    0.000000
      2          1           0        2.054139    0.352428    0.000000
      3          1           0        1.027069    1.019414    0.000000
      4          1           0        1.027069   -0.104853    0.000000
      5          1           0        0.000000    0.562134    0.000000
      6          1           0       -0.000000   -0.562134    0.000000
      7          1           0       -1.027069    0.104853    0.000000
      8          1           0       -1.027069   -1.019414    0.000000
      9          1           0       -2.054139   -0.352428    0.000000
     10          1           0       -2.054139   -1.476695    0.000000
 ---------------------------------------------------------------------

 SCF Done:  E(RHF) =  -4.86605594562     A.U. after    8 cycles
 E2 =    -0.1124746990D+00 EUMP2 =    -0.49785306446470D+01

 The electronic state is 1-AG.
 Alpha  occ. eigenvalues --   -0.85150  -0.74043  -0.54902  -0.36605  -0.30175
 Alpha virt. eigenvalues --   -0.01457   0.22829   0.25826   0.54480   0.68191

 Mulliken charges:
               1
     1  H   -0.097092
     2  H    0.141030
     3  H    0.094719
     4  H   -0.115271
     5  H   -0.023386
     6  H   -0.023386
     7  H   -0.115271
     8  H    0.094719
     9  H    0.141030
    10  H   -0.097092
 Sum of Mulliken charges =  -0.00000

 Dipole moment (field-independent basis, Debye):
    X=             -0.0000    Y=              0.0000    Z=              0.0000  Tot=              0.0000
 Quadrupole moment (field-independent basis, Debye-Ang):
   XX=            -14.4108   YY=            -15.2792   ZZ=            -12.9259
   XY=             -1.6861   XZ=              0.0000   YZ=              0.0000

 Normal termination of Gaussian 09 at Mon Feb 20 11:35:41 2017.
