 Gaussian 09, Revision E.01,
 Gaussian 09:  ES64L-G09RevE.01 30-Nov-2015

 ----------------------------------------------------------------------
 #rhf/gen scf(symm,tight,novaracc,noincfock,fulldiag) stable(crhf) gues
 s=read geom=nocrowd test
 ----------------------------------------------------------------------

 ----------------------------------------------------------------------
 hf stability analysis of h10 triangular lattice, y= 1.0205721581109972
 ----------------------------------------------------------------------
 Symbolic Z-matrix:
 Charge =  0 Multiplicity = 1

                         Standard orientation:
 ---------------------------------------------------------------------
 Center     Atomic      Atomic             Coordinates (Angstroms)
 Number     Number       Type             X           Y           Z
 ---------------------------------------------------------------------
      1          1           0        1.979133    1.820137   -0.000000
      2          1           0        1.979133    0.653262   -0.000000
      3          1           0        0.989566    1.201787   -0.000000
      4          1           0        0.989566    0.034912   -0.000000
      5          1           0        0.000000    0.583438    0.000000
      6          1           0       -0.000000   -0.583438   -0.000000
      7          1           0       -0.989566   -0.034912   -0.000000
      8          1           0       -0.989566   -1.201787   -0.000000
      9          1           0       -1.979133   -0.653262   -0.000000
     10          1           0       -1.979133   -1.820137   -0.000000
 ---------------------------------------------------------------------

 SCF Done:  E(RHF) =  -4.86595608079     A.U. after    8 cycles
 E2 =    -0.1137755498D+00 EUMP2 =    -0.49797316306201D+01

 The electronic state is 1-AG.
 Alpha  occ. eigenvalues --   -0.83782  -0.73967  -0.55183  -0.33049  -0.30923
 Alpha virt. eigenvalues --    0.00409   0.20640   0.24085   0.54998   0.56598

 Mulliken charges:
               1
     1  H   -0.084962
     2  H    0.144365
     3  H    0.110422
     4  H   -0.121541
     5  H   -0.048283
     6  H   -0.048283
     7  H   -0.121541
     8  H    0.110422
     9  H    0.144365
    10  H   -0.084962
 Sum of Mulliken charges =  -0.00000

 Dipole moment (field-independent basis, Debye):
    X=              0.0000    Y=              0.0000    Z=             -0.0000  Tot=              0.0000
 Quadrupole moment (field-independent basis, Debye-Ang):
   XX=            -13.3006   YY=            -15.3974   ZZ=            -13.0104
   XY=             -0.6624   XZ=             -0.0000   YZ=             -0.0000

 Normal termination of Gaussian 09 at Mon Feb 20 11:36:19 2017.
