 Gaussian 09, Revision E.01,
 Gaussian 09:  ES64L-G09RevE.01 30-Nov-2015

 ----------------------------------------------------------------------
 #rhf/gen scf(symm,tight,novaracc,noincfock,fulldiag) stable(crhf) gues
 s=read geom=nocrowd test
 ----------------------------------------------------------------------

 hf stability analysis of h10 triangular lattice, y= 0.4950461160480687
 5
 ----------------------------------------------------------------------
 Symbolic Z-matrix:
 Charge =  0 Multiplicity = 1

                         Standard orientation:
 ---------------------------------------------------------------------
 Center     Atomic      Atomic             Coordinates (Angstroms)
 Number     Number       Type             X           Y           Z
 ---------------------------------------------------------------------
      1          1           0        1.822769   -1.126741    0.000000
      2          1           0        1.822769   -2.393715    0.000000
      3          1           0        0.911385   -0.246627    0.000000
      4          1           0        0.911385   -1.513601    0.000000
      5          1           0        0.000000    0.633487    0.000000
      6          1           0       -0.000000   -0.633487    0.000000
      7          1           0       -0.911385    1.513601    0.000000
      8          1           0       -0.911385    0.246627    0.000000
      9          1           0       -1.822769    2.393715    0.000000
     10          1           0       -1.822769    1.126741    0.000000
 ---------------------------------------------------------------------

 SCF Done:  E(RHF) =  -4.80955911741     A.U. after    9 cycles
 E2 =    -0.1237451607D+00 EUMP2 =    -0.49333042781428D+01

 The electronic state is 1-AG.
 Alpha  occ. eigenvalues --   -0.80217  -0.72922  -0.55306  -0.33342  -0.23308
 Alpha virt. eigenvalues --    0.02945   0.14269   0.22102   0.40525   0.61081

 Mulliken charges:
               1
     1  H    0.100874
     2  H   -0.006197
     3  H   -0.108007
     4  H    0.111391
     5  H   -0.098060
     6  H   -0.098060
     7  H    0.111391
     8  H   -0.108007
     9  H   -0.006197
    10  H    0.100874
 Sum of Mulliken charges =  -0.00000

 Dipole moment (field-independent basis, Debye):
    X=              0.0000    Y=             -0.0000    Z=              0.0000  Tot=              0.0000
 Quadrupole moment (field-independent basis, Debye-Ang):
   XX=            -11.8196   YY=            -11.9126   ZZ=            -13.1449
   XY=             -2.8790   XZ=             -0.0000   YZ=              0.0000

 Normal termination of Gaussian 09 at Mon Feb 20 11:28:12 2017.
