 Gaussian 09, Revision E.01,
 Gaussian 09:  ES64L-G09RevE.01 30-Nov-2015

 ----------------------------------------------------------------------
 #rhf/gen scf(symm,tight,novaracc,noincfock,fulldiag) stable(crhf) gues
 s=read geom=nocrowd test
 ----------------------------------------------------------------------

 ----------------------------------------------------------------------
 hf stability analysis of h10 triangular lattice, y= 1.8095073443210954
 ----------------------------------------------------------------------
 Symbolic Z-matrix:
 Charge =  0 Multiplicity = 1

                         Standard orientation:
 ---------------------------------------------------------------------
 Center     Atomic      Atomic             Coordinates (Angstroms)
 Number     Number       Type             X           Y           Z
 ---------------------------------------------------------------------
      1          1           0        1.256871    4.371935    0.000000
      2          1           0        1.256871    2.534513    0.000000
      3          1           0        0.628435    2.645323    0.000000
      4          1           0        0.628435    0.807901    0.000000
      5          1           0        0.000000    0.918711    0.000000
      6          1           0       -0.000000   -0.918711    0.000000
      7          1           0       -0.628435   -0.807901    0.000000
      8          1           0       -0.628435   -2.645323    0.000000
      9          1           0       -1.256871   -2.534513    0.000000
     10          1           0       -1.256871   -4.371935    0.000000
 ---------------------------------------------------------------------

 SCF Done:  E(RHF) =  -4.89449932033     A.U. after    6 cycles
 E2 =    -0.7311523423D+00 EUMP2 =    -0.56256516626640D+01

 The electronic state is 1-AG.
 Alpha  occ. eigenvalues --   -0.73770  -0.70159  -0.64306  -0.57809  -0.18841
 Alpha virt. eigenvalues --   -0.13064   0.34643   0.42803   0.55054   0.67062

 Mulliken charges:
               1
     1  H   -0.014662
     2  H    0.005951
     3  H    0.007628
     4  H   -0.000542
     5  H    0.001625
     6  H    0.001625
     7  H   -0.000542
     8  H    0.007628
     9  H    0.005951
    10  H   -0.014662
 Sum of Mulliken charges =   0.00000

 Dipole moment (field-independent basis, Debye):
    X=              0.0000    Y=             -0.0000    Z=              0.0000  Tot=              0.0000
 Quadrupole moment (field-independent basis, Debye-Ang):
   XX=            -12.2853   YY=            -18.7648   ZZ=            -13.1300
   XY=             -1.8945   XZ=              0.0000   YZ=              0.0000

 Normal termination of Gaussian 09 at Mon Feb 20 11:39:15 2017.
