 Gaussian 09, Revision E.01,
 Gaussian 09:  ES64L-G09RevE.01 30-Nov-2015

 ----------------------------------------------------------------------
 #rhf/gen scf(symm,tight,novaracc,noincfock,fulldiag) stable(crhf) gues
 s=read geom=nocrowd test
 ----------------------------------------------------------------------

 hf stability analysis of h10 triangular lattice, y= 0.9251794552834028
 4
 ----------------------------------------------------------------------
 Symbolic Z-matrix:
 Charge =  0 Multiplicity = 1

                         Standard orientation:
 ---------------------------------------------------------------------
 Center     Atomic      Atomic             Coordinates (Angstroms)
 Number     Number       Type             X           Y           Z
 ---------------------------------------------------------------------
      1          1           0        2.069415    1.394082    0.000000
      2          1           0        2.069415    0.278114    0.000000
      3          1           0        1.034708    0.976033    0.000000
      4          1           0        1.034708   -0.139935    0.000000
      5          1           0       -0.000000    0.557984    0.000000
      6          1           0       -0.000000   -0.557984   -0.000000
      7          1           0       -1.034708    0.139935    0.000000
      8          1           0       -1.034708   -0.976033    0.000000
      9          1           0       -2.069415   -0.278114    0.000000
     10          1           0       -2.069415   -1.394082    0.000000
 ---------------------------------------------------------------------

 SCF Done:  E(RHF) =  -4.86383800146     A.U. after    8 cycles
 E2 =    -0.1126071183D+00 EUMP2 =    -0.49764451198055D+01

 The electronic state is 1-AG.
 Alpha  occ. eigenvalues --   -0.85392  -0.74014  -0.54827  -0.37338  -0.29944
 Alpha virt. eigenvalues --   -0.01812   0.22516   0.27014   0.54048   0.71420

 Mulliken charges:
               1
     1  H   -0.095354
     2  H    0.136683
     3  H    0.088404
     4  H   -0.112004
     5  H   -0.017729
     6  H   -0.017729
     7  H   -0.112004
     8  H    0.088404
     9  H    0.136683
    10  H   -0.095354
 Sum of Mulliken charges =  -0.00000

 Dipole moment (field-independent basis, Debye):
    X=             -0.0000    Y=             -0.0000    Z=              0.0000  Tot=              0.0000
 Quadrupole moment (field-independent basis, Debye-Ang):
   XX=            -14.6695   YY=            -15.1086   ZZ=            -12.9068
   XY=             -1.7849   XZ=              0.0000   YZ=              0.0000

 Normal termination of Gaussian 09 at Mon Feb 20 11:35:31 2017.
