 Gaussian 09, Revision E.01,
 Gaussian 09:  ES64L-G09RevE.01 30-Nov-2015

 ----------------------------------------------------------------------
 #rhf/gen scf(symm,tight,novaracc,noincfock,fulldiag) stable(crhf) gues
 s=read geom=nocrowd test
 ----------------------------------------------------------------------

 ----------------------------------------------------------------------
 hf stability analysis of h10 triangular lattice, y= 1.0644781770328475
 ----------------------------------------------------------------------
 Symbolic Z-matrix:
 Charge =  0 Multiplicity = 1

                         Standard orientation:
 ---------------------------------------------------------------------
 Center     Atomic      Atomic             Coordinates (Angstroms)
 Number     Number       Type             X           Y           Z
 ---------------------------------------------------------------------
      1          1           0        1.933052    2.001790    0.000000
      2          1           0        1.933052    0.807099    0.000000
      3          1           0        0.966526    1.299568    0.000000
      4          1           0        0.966526    0.104876    0.000000
      5          1           0        0.000000    0.597346    0.000000
      6          1           0       -0.000000   -0.597346   -0.000000
      7          1           0       -0.966526   -0.104876   -0.000000
      8          1           0       -0.966526   -1.299568   -0.000000
      9          1           0       -1.933052   -0.807099   -0.000000
     10          1           0       -1.933052   -2.001790   -0.000000
 ---------------------------------------------------------------------

 SCF Done:  E(RHF) =  -4.85708596752     A.U. after    8 cycles
 E2 =    -0.1158497719D+00 EUMP2 =    -0.49729357394391D+01

 The electronic state is 1-AG.
 Alpha  occ. eigenvalues --   -0.82819  -0.73769  -0.55284  -0.32321  -0.29677
 Alpha virt. eigenvalues --    0.01535   0.18003   0.24436   0.48832   0.57907

 Mulliken charges:
               1
     1  H   -0.067008
     2  H    0.137079
     3  H    0.112999
     4  H   -0.120706
     5  H   -0.062364
     6  H   -0.062364
     7  H   -0.120706
     8  H    0.112999
     9  H    0.137079
    10  H   -0.067008
 Sum of Mulliken charges =  -0.00000

 Dipole moment (field-independent basis, Debye):
    X=              0.0000    Y=             -0.0000    Z=             -0.0000  Tot=              0.0000
 Quadrupole moment (field-independent basis, Debye-Ang):
   XX=            -12.7502   YY=            -14.8943   ZZ=            -13.0557
   XY=              0.2484   XZ=              0.0000   YZ=             -0.0000

 Normal termination of Gaussian 09 at Mon Feb 20 11:36:38 2017.
