 Gaussian 09, Revision E.01,
 Gaussian 09:  ES64L-G09RevE.01 30-Nov-2015

 ----------------------------------------------------------------------
 #rhf/gen scf(symm,tight,novaracc,noincfock,fulldiag) stable(crhf) gues
 s=read geom=nocrowd test
 ----------------------------------------------------------------------

 hf stability analysis of h10 triangular lattice, y= 0.4068814698559844
 5
 ----------------------------------------------------------------------
 Symbolic Z-matrix:
 Charge =  0 Multiplicity = 1

                         Standard orientation:
 ---------------------------------------------------------------------
 Center     Atomic      Atomic             Coordinates (Angstroms)
 Number     Number       Type             X           Y           Z
 ---------------------------------------------------------------------
      1          1           0        1.564478   -1.765615    0.000000
      2          1           0        1.564478   -3.241762    0.000000
      3          1           0        0.782239   -0.513770    0.000000
      4          1           0        0.782239   -1.989918    0.000000
      5          1           0       -0.000000    0.738074    0.000000
      6          1           0       -0.000000   -0.738074    0.000000
      7          1           0       -0.782239    1.989918   -0.000000
      8          1           0       -0.782239    0.513770   -0.000000
      9          1           0       -1.564478    3.241762   -0.000000
     10          1           0       -1.564478    1.765615   -0.000000
 ---------------------------------------------------------------------

 SCF Done:  E(RHF) =  -4.79165361862     A.U. after    9 cycles
 E2 =    -0.5424627046D+00 EUMP2 =    -0.53341163232137D+01

 The electronic state is 1-AG.
 Alpha  occ. eigenvalues --   -0.77045  -0.70417  -0.58863  -0.44366  -0.11899
 Alpha virt. eigenvalues --   -0.05702   0.16596   0.27686   0.44933   0.62273

 Mulliken charges:
               1
     1  H    0.001376
     2  H   -0.083763
     3  H    0.018299
     4  H    0.078489
     5  H   -0.014402
     6  H   -0.014402
     7  H    0.078489
     8  H    0.018299
     9  H   -0.083763
    10  H    0.001376
 Sum of Mulliken charges =  -0.00000

 Dipole moment (field-independent basis, Debye):
    X=              0.0000    Y=              0.0000    Z=              0.0000  Tot=              0.0000
 Quadrupole moment (field-independent basis, Debye-Ang):
   XX=            -13.7673   YY=            -23.0039   ZZ=            -12.7226
   XY=              5.8059   XZ=             -0.0000   YZ=              0.0000

 Normal termination of Gaussian 09 at Mon Feb 20 11:29:09 2017.
