 Gaussian 09, Revision E.01,
 Gaussian 09:  ES64L-G09RevE.01 30-Nov-2015

 ----------------------------------------------------------------------
 #rhf/gen scf(symm,tight,novaracc,noincfock,fulldiag) stable(crhf) gues
 s=read geom=nocrowd test
 ----------------------------------------------------------------------

 hf stability analysis of h10 triangular lattice, y= 0.7210052279144877
 3
 ----------------------------------------------------------------------
 Symbolic Z-matrix:
 Charge =  0 Multiplicity = 1

                         Standard orientation:
 ---------------------------------------------------------------------
 Center     Atomic      Atomic             Coordinates (Angstroms)
 Number     Number       Type             X           Y           Z
 ---------------------------------------------------------------------
      1          1           0        2.143245    0.313499   -0.000000
      2          1           0        2.143245   -0.764027   -0.000000
      3          1           0        1.071623    0.426131   -0.000000
      4          1           0        1.071623   -0.651395   -0.000000
      5          1           0       -0.000000    0.538763   -0.000000
      6          1           0       -0.000000   -0.538763   -0.000000
      7          1           0       -1.071623    0.651395    0.000000
      8          1           0       -1.071623   -0.426131    0.000000
      9          1           0       -2.143245    0.764027    0.000000
     10          1           0       -2.143245   -0.313499    0.000000
 ---------------------------------------------------------------------

 SCF Done:  E(RHF) =  -4.84188963990     A.U. after    8 cycles
 E2 =    -0.1159273438D+00 EUMP2 =    -0.49578169836758D+01

 The electronic state is 1-AG.
 Alpha  occ. eigenvalues --   -0.86325  -0.73591  -0.54381  -0.40657  -0.28611
 Alpha virt. eigenvalues --   -0.03248   0.20857   0.33490   0.51907   0.90507

 Mulliken charges:
               1
     1  H    0.059141
     2  H   -0.024975
     3  H   -0.058294
     4  H    0.009104
     5  H    0.015025
     6  H    0.015025
     7  H    0.009104
     8  H   -0.058294
     9  H   -0.024975
    10  H    0.059141
 Sum of Mulliken charges =  -0.00000

 Dipole moment (field-independent basis, Debye):
    X=             -0.0000    Y=              0.0000    Z=              0.0000  Tot=              0.0000
 Quadrupole moment (field-independent basis, Debye-Ang):
   XX=            -16.0442   YY=            -13.5344   ZZ=            -12.8033
   XY=              0.8263   XZ=              0.0000   YZ=             -0.0000

 Normal termination of Gaussian 09 at Mon Feb 20 11:33:19 2017.
