 Gaussian 09, Revision E.01,
 Gaussian 09:  ES64L-G09RevE.01 30-Nov-2015

 ----------------------------------------------------------------------
 #rhf/gen scf(symm,tight,novaracc,noincfock,fulldiag) stable(crhf) gues
 s=read geom=nocrowd test
 ----------------------------------------------------------------------

 hf stability analysis of h10 triangular lattice, y= 0.4707695940863088
 6
 ----------------------------------------------------------------------
 Symbolic Z-matrix:
 Charge =  0 Multiplicity = 1

                         Standard orientation:
 ---------------------------------------------------------------------
 Center     Atomic      Atomic             Coordinates (Angstroms)
 Number     Number       Type             X           Y           Z
 ---------------------------------------------------------------------
      1          1           0        1.758005   -1.295638    0.000000
      2          1           0        1.758005   -2.609287    0.000000
      3          1           0        0.879003   -0.319407    0.000000
      4          1           0        0.879003   -1.633056    0.000000
      5          1           0        0.000000    0.656824    0.000000
      6          1           0       -0.000000   -0.656824    0.000000
      7          1           0       -0.879003    1.633056   -0.000000
      8          1           0       -0.879003    0.319407   -0.000000
      9          1           0       -1.758005    2.609287   -0.000000
     10          1           0       -1.758005    1.295638   -0.000000
 ---------------------------------------------------------------------

 SCF Done:  E(RHF) =  -4.76521872877     A.U. after    9 cycles
 E2 =    -0.1301595368D+00 EUMP2 =    -0.48953782656069D+01

 The electronic state is 1-AG.
 Alpha  occ. eigenvalues --   -0.78539  -0.72216  -0.55182  -0.34067  -0.19118
 Alpha virt. eigenvalues --    0.01922   0.14678   0.18242   0.39803   0.62954

 Mulliken charges:
               1
     1  H    0.064529
     2  H    0.036919
     3  H   -0.087073
     4  H    0.113339
     5  H   -0.127713
     6  H   -0.127713
     7  H    0.113339
     8  H   -0.087073
     9  H    0.036919
    10  H    0.064529
 Sum of Mulliken charges =   0.00000

 Dipole moment (field-independent basis, Debye):
    X=              0.0000    Y=             -0.0000    Z=             -0.0000  Tot=              0.0000
 Quadrupole moment (field-independent basis, Debye-Ang):
   XX=            -11.5672   YY=             -8.9800   ZZ=            -13.1817
   XY=             -4.5098   XZ=              0.0000   YZ=             -0.0000

 Normal termination of Gaussian 09 at Mon Feb 20 11:28:28 2017.
