 Gaussian 09, Revision E.01,
 Gaussian 09:  ES64L-G09RevE.01 30-Nov-2015

 ----------------------------------------------------------------------
 #rhf/gen scf(symm,tight,novaracc,noincfock,fulldiag) stable(crhf) gues
 s=read geom=nocrowd test
 ----------------------------------------------------------------------

 hf stability analysis of h10 triangular lattice, y= 0.6716215332591580
 8
 ----------------------------------------------------------------------
 Symbolic Z-matrix:
 Charge =  0 Multiplicity = 1

                         Standard orientation:
 ---------------------------------------------------------------------
 Center     Atomic      Atomic             Coordinates (Angstroms)
 Number     Number       Type             X           Y           Z
 ---------------------------------------------------------------------
      1          1           0        2.116980    0.017625    0.000000
      2          1           0        2.116980   -1.073269    0.000000
      3          1           0        1.058490    0.281536    0.000000
      4          1           0        1.058490   -0.809358    0.000000
      5          1           0       -0.000000    0.545447   -0.000000
      6          1           0       -0.000000   -0.545447   -0.000000
      7          1           0       -1.058490    0.809358    0.000000
      8          1           0       -1.058490   -0.281536    0.000000
      9          1           0       -2.116980    1.073269    0.000000
     10          1           0       -2.116980   -0.017625    0.000000
 ---------------------------------------------------------------------

 SCF Done:  E(RHF) =  -4.85188506097     A.U. after    9 cycles
 E2 =    -0.1141578591D+00 EUMP2 =    -0.49660429200365D+01

 The electronic state is 1-AG.
 Alpha  occ. eigenvalues --   -0.86045  -0.73802  -0.54555  -0.39527  -0.29128
 Alpha virt. eigenvalues --   -0.02803   0.21471   0.31028   0.52687   0.82956

 Mulliken charges:
               1
     1  H    0.106458
     2  H   -0.071115
     3  H   -0.091445
     4  H    0.054036
     5  H    0.002066
     6  H    0.002066
     7  H    0.054036
     8  H   -0.091445
     9  H   -0.071115
    10  H    0.106458
 Sum of Mulliken charges =   0.00000

 Dipole moment (field-independent basis, Debye):
    X=             -0.0000    Y=              0.0000    Z=              0.0000  Tot=              0.0000
 Quadrupole moment (field-independent basis, Debye-Ang):
   XX=            -15.5369   YY=            -14.2419   ZZ=            -12.8426
   XY=              1.6354   XZ=              0.0000   YZ=             -0.0000

 Normal termination of Gaussian 09 at Mon Feb 20 11:32:41 2017.
