 Gaussian 09, Revision E.01,
 Gaussian 09:  ES64L-G09RevE.01 30-Nov-2015

 ----------------------------------------------------------------------
 #rhf/gen scf(symm,tight,novaracc,noincfock,fulldiag) stable=opt guess=
 read geom=nocrowd test
 ----------------------------------------------------------------------

 ----------------------------------------------------------------------
 hf stability analysis of h10 triangular lattice, y= 1.0420355127918348
 ----------------------------------------------------------------------
 Symbolic Z-matrix:
 Charge =  0 Multiplicity = 1

                         Standard orientation:
 ---------------------------------------------------------------------
 Center     Atomic      Atomic             Coordinates (Angstroms)
 Number     Number       Type             X           Y           Z
 ---------------------------------------------------------------------
      1          1           0        1.956824    1.909984    0.000000
      2          1           0        1.956824    0.729805    0.000000
      3          1           0        0.978412    1.250036    0.000000
      4          1           0        0.978412    0.069858   -0.000000
      5          1           0       -0.000000    0.590089    0.000000
      6          1           0       -0.000000   -0.590089    0.000000
      7          1           0       -0.978412   -0.069858   -0.000000
      8          1           0       -0.978412   -1.250036    0.000000
      9          1           0       -1.956824   -0.729805    0.000000
     10          1           0       -1.956824   -1.909984    0.000000
 ---------------------------------------------------------------------

 SCF Done:  E(RHF) =  -4.86248565325     A.U. after   10 cycles
 SCF Done:  E(UHF) =  -4.88342206222     a.u. after   12 cycles

 Unable to determine electronic state:  partially filled degenerate orbitals.
 Alpha  occ. eigenvalues --   -0.85037  -0.72890  -0.56183  -0.35219  -0.33333
 Alpha virt. eigenvalues --    0.05013   0.18905   0.26754   0.50312   0.57421
  Beta  occ. eigenvalues --   -0.85037  -0.72890  -0.56183  -0.35219  -0.33333
  Beta virt. eigenvalues --    0.05013   0.18905   0.26754   0.50312   0.57421

 Mulliken charges and spin densities:
               1          2
     1  H   -0.054737  -0.451573
     2  H    0.094073   0.425219
     3  H    0.074762   0.279593
     4  H   -0.150088   0.050315
     5  H    0.035990   0.166025
     6  H    0.035990  -0.166025
     7  H   -0.150088  -0.050315
     8  H    0.074762  -0.279593
     9  H    0.094073  -0.425219
    10  H   -0.054737   0.451573
 Sum of Mulliken charges =   0.00000   0.00000

 Dipole moment (field-independent basis, Debye):
    X=              0.0000    Y=              0.0000    Z=              0.0000  Tot=              0.0000
 Quadrupole moment (field-independent basis, Debye-Ang):
   XX=            -14.3800   YY=            -15.2190   ZZ=            -12.9509
   XY=             -0.4407   XZ=             -0.0000   YZ=              0.0000

 Normal termination of Gaussian 09 at Wed Feb 22 12:37:46 2017.
