 Gaussian 09, Revision E.01,
 Gaussian 09:  ES64L-G09RevE.01 30-Nov-2015

 ----------------------------------------------------------------------
 #rhf/gen scf(symm,tight,novaracc,noincfock,fulldiag) stable=opt guess=
 read geom=nocrowd test
 ----------------------------------------------------------------------

 hf stability analysis of h10 triangular lattice, y= 0.9251794552834028
 4
 ----------------------------------------------------------------------
 Symbolic Z-matrix:
 Charge =  0 Multiplicity = 1

                         Standard orientation:
 ---------------------------------------------------------------------
 Center     Atomic      Atomic             Coordinates (Angstroms)
 Number     Number       Type             X           Y           Z
 ---------------------------------------------------------------------
      1          1           0        2.069415    1.394082    0.000000
      2          1           0        2.069415    0.278114    0.000000
      3          1           0        1.034708    0.976033    0.000000
      4          1           0        1.034708   -0.139935    0.000000
      5          1           0       -0.000000    0.557984    0.000000
      6          1           0       -0.000000   -0.557984   -0.000000
      7          1           0       -1.034708    0.139935    0.000000
      8          1           0       -1.034708   -0.976033    0.000000
      9          1           0       -2.069415   -0.278114    0.000000
     10          1           0       -2.069415   -1.394082    0.000000
 ---------------------------------------------------------------------

 SCF Done:  E(RHF) =  -4.86383800146     A.U. after   11 cycles
 SCF Done:  E(UHF) =  -4.92361284806     a.u. after    7 cycles

 Unable to determine electronic state:  partially filled degenerate orbitals.
 Alpha  occ. eigenvalues --   -0.85886  -0.74394  -0.56209  -0.40805  -0.36544
 Alpha virt. eigenvalues --    0.04876   0.22096   0.30709   0.55008   0.71632
  Beta  occ. eigenvalues --   -0.85886  -0.74394  -0.56209  -0.40805  -0.36544
  Beta virt. eigenvalues --    0.04876   0.22096   0.30709   0.55008   0.71632

 Mulliken charges and spin densities:
               1          2
     1  H    0.038478   0.581371
     2  H    0.000097  -0.508909
     3  H    0.028713  -0.476077
     4  H   -0.051272   0.464746
     5  H   -0.016015   0.278127
     6  H   -0.016015  -0.278127
     7  H   -0.051272  -0.464746
     8  H    0.028713   0.476077
     9  H    0.000097   0.508909
    10  H    0.038478  -0.581371
 Sum of Mulliken charges =   0.00000   0.00000

 Dipole moment (field-independent basis, Debye):
    X=             -0.0000    Y=             -0.0000    Z=              0.0000  Tot=              0.0000
 Quadrupole moment (field-independent basis, Debye-Ang):
   XX=            -13.9174   YY=            -14.0958   ZZ=            -12.8535
   XY=              1.7881   XZ=              0.0000   YZ=             -0.0000

 Normal termination of Gaussian 09 at Wed Feb 22 12:36:24 2017.
