 Gaussian 09, Revision E.01,
 Gaussian 09:  ES64L-G09RevE.01 30-Nov-2015

 ----------------------------------------------------------------------
 #rhf/gen scf(symm,tight,novaracc,noincfock,fulldiag) stable=opt guess=
 read geom=nocrowd test
 ----------------------------------------------------------------------

 ----------------------------------------------------------------------
 hf stability analysis of h10 triangular lattice, y= 1.2594669489559134
 ----------------------------------------------------------------------
 Symbolic Z-matrix:
 Charge =  0 Multiplicity = 1

                         Standard orientation:
 ---------------------------------------------------------------------
 Center     Atomic      Atomic             Coordinates (Angstroms)
 Number     Number       Type             X           Y           Z
 ---------------------------------------------------------------------
      1          1           0        1.723052    2.723602   -0.000000
      2          1           0        1.723052    1.383305   -0.000000
      3          1           0        0.861526    1.696875   -0.000000
      4          1           0        0.861526    0.356578    0.000000
      5          1           0        0.000000    0.670148   -0.000000
      6          1           0       -0.000000   -0.670148   -0.000000
      7          1           0       -0.861526   -0.356578    0.000000
      8          1           0       -0.861526   -1.696875   -0.000000
      9          1           0       -1.723052   -1.383305    0.000000
     10          1           0       -1.723052   -2.723602   -0.000000
 ---------------------------------------------------------------------

 SCF Done:  E(RHF) =  -4.73720793369     A.U. after   11 cycles
 SCF Done:  E(UHF) =  -4.86917385649     a.u. after   14 cycles
 SCF Done:  E(UHF) =  -4.87502878977     a.u. after   11 cycles

 Unable to determine electronic state:  partially filled degenerate orbitals.
 Alpha  occ. eigenvalues --   -0.80711  -0.71485  -0.58966  -0.41994  -0.30877
 Alpha virt. eigenvalues --    0.11527   0.21745   0.28346   0.38441   0.60424
  Beta  occ. eigenvalues --   -0.80523  -0.72620  -0.58731  -0.43653  -0.27648
  Beta virt. eigenvalues --    0.10476   0.19426   0.24440   0.43460   0.59695

 Mulliken charges and spin densities:
               1          2
     1  H   -0.070059  -0.916232
     2  H    0.025857   0.277361
     3  H    0.027237  -0.301673
     4  H    0.018551  -0.564350
     5  H    0.024881   0.540351
     6  H   -0.032158   0.579116
     7  H    0.007178  -0.559979
     8  H    0.101880  -0.332716
     9  H   -0.024034   0.457218
    10  H   -0.079332   0.820904
 Sum of Mulliken charges =   0.00000  -0.00000

 Dipole moment (field-independent basis, Debye):
    X=              0.2278    Y=              0.0475    Z=              0.0000  Tot=              0.2327
 Quadrupole moment (field-independent basis, Debye-Ang):
   XX=            -15.0778   YY=            -20.2059   ZZ=            -12.6227
   XY=             -5.0275   XZ=              0.0000   YZ=              0.0000

 Normal termination of Gaussian 09 at Wed Feb 22 12:39:35 2017.
