 Gaussian 09, Revision E.01,
 Gaussian 09:  ES64L-G09RevE.01 30-Nov-2015

 ----------------------------------------------------------------------
 #rhf/gen scf(symm,tight,novaracc,noincfock,fulldiag) stable=opt guess=
 read geom=nocrowd test
 ----------------------------------------------------------------------

 hf stability analysis of h10 triangular lattice, y= 0.8294933944434413
 9
 ----------------------------------------------------------------------
 Symbolic Z-matrix:
 Charge =  0 Multiplicity = 1

                         Standard orientation:
 ---------------------------------------------------------------------
 Center     Atomic      Atomic             Coordinates (Angstroms)
 Number     Number       Type             X           Y           Z
 ---------------------------------------------------------------------
      1          1           0        2.132752    0.917475    0.000000
      2          1           0        2.132752   -0.165352   -0.000000
      3          1           0        1.066376    0.729444    0.000000
      4          1           0        1.066376   -0.353382   -0.000000
      5          1           0        0.000000    0.541413    0.000000
      6          1           0       -0.000000   -0.541413    0.000000
      7          1           0       -1.066376    0.353382    0.000000
      8          1           0       -1.066376   -0.729444    0.000000
      9          1           0       -2.132752    0.165352    0.000000
     10          1           0       -2.132752   -0.917475    0.000000
 ---------------------------------------------------------------------

 SCF Done:  E(RHF) =  -4.84618151669     A.U. after   11 cycles
 SCF Done:  E(UHF) =  -4.95418660167     a.u. after    5 cycles

 Unable to determine electronic state:  partially filled degenerate orbitals.
 Alpha  occ. eigenvalues --   -0.87055  -0.74864  -0.55909  -0.44719  -0.38495
 Alpha virt. eigenvalues --    0.06526   0.20642   0.35989   0.53417   0.86975
  Beta  occ. eigenvalues --   -0.87055  -0.74864  -0.55909  -0.44719  -0.38495
  Beta virt. eigenvalues --    0.06526   0.20642   0.35989   0.53417   0.86975

 Mulliken charges and spin densities:
               1          2
     1  H    0.046443  -0.603352
     2  H    0.006613   0.574532
     3  H   -0.012414   0.543432
     4  H   -0.036413  -0.545674
     5  H   -0.004229  -0.387636
     6  H   -0.004229   0.387636
     7  H   -0.036413   0.545674
     8  H   -0.012414  -0.543432
     9  H    0.006613  -0.574532
    10  H    0.046443   0.603352
 Sum of Mulliken charges =  -0.00000   0.00000

 Dipole moment (field-independent basis, Debye):
    X=             -0.0000    Y=              0.0000    Z=              0.0000  Tot=              0.0000
 Quadrupole moment (field-independent basis, Debye-Ang):
   XX=            -13.1842   YY=            -15.1838   ZZ=            -12.8006
   XY=              1.1938   XZ=              0.0000   YZ=             -0.0000

 Normal termination of Gaussian 09 at Wed Feb 22 12:35:03 2017.
