 Gaussian 09, Revision E.01,
 Gaussian 09:  ES64L-G09RevE.01 30-Nov-2015

 ----------------------------------------------------------------------
 #rhf/gen scf(symm,tight,novaracc,noincfock,fulldiag) stable=opt guess=
 read geom=nocrowd test
 ----------------------------------------------------------------------

 hf stability analysis of h10 triangular lattice, y= 0.7868496627299574
 9
 ----------------------------------------------------------------------
 Symbolic Z-matrix:
 Charge =  0 Multiplicity = 1

                         Standard orientation:
 ---------------------------------------------------------------------
 Center     Atomic      Atomic             Coordinates (Angstroms)
 Number     Number       Type             X           Y           Z
 ---------------------------------------------------------------------
      1          1           0        2.146521    0.688040    0.000000
      2          1           0        2.146521   -0.387841    0.000000
      3          1           0        1.073260    0.612990    0.000000
      4          1           0        1.073260   -0.462891    0.000000
      5          1           0        0.000000    0.537941    0.000000
      6          1           0       -0.000000   -0.537941    0.000000
      7          1           0       -1.073260    0.462891    0.000000
      8          1           0       -1.073260   -0.612990    0.000000
      9          1           0       -2.146521    0.387841    0.000000
     10          1           0       -2.146521   -0.688040    0.000000
 ---------------------------------------------------------------------

 SCF Done:  E(RHF) =  -4.84046707008     A.U. after   11 cycles
 SCF Done:  E(UHF) =  -4.96087616682     a.u. after    5 cycles

 Unable to determine electronic state:  partially filled degenerate orbitals.
 Alpha  occ. eigenvalues --   -0.87320  -0.74974  -0.55792  -0.45517  -0.38970
 Alpha virt. eigenvalues --    0.07061   0.19974   0.37500   0.52829   0.90916
  Beta  occ. eigenvalues --   -0.87320  -0.74974  -0.55792  -0.45517  -0.38970
  Beta virt. eigenvalues --    0.07061   0.19974   0.37500   0.52829   0.90916

 Mulliken charges and spin densities:
               1          2
     1  H    0.037035   0.600997
     2  H    0.019418  -0.589748
     3  H   -0.022961  -0.554551
     4  H   -0.031634   0.555760
     5  H   -0.001858   0.405194
     6  H   -0.001858  -0.405194
     7  H   -0.031634  -0.555760
     8  H   -0.022961   0.554551
     9  H    0.019418   0.589748
    10  H    0.037035  -0.600997
 Sum of Mulliken charges =   0.00000  -0.00000

 Dipole moment (field-independent basis, Debye):
    X=              0.0000    Y=             -0.0000    Z=              0.0000  Tot=              0.0000
 Quadrupole moment (field-independent basis, Debye-Ang):
   XX=            -12.9872   YY=            -15.5119   ZZ=            -12.7917
   XY=              0.5083   XZ=              0.0000   YZ=             -0.0000

 Normal termination of Gaussian 09 at Wed Feb 22 12:34:22 2017.
