 Gaussian 09, Revision E.01,
 Gaussian 09:  ES64L-G09RevE.01 30-Nov-2015

 ----------------------------------------------------------------------
 #rhf/gen scf(symm,tight,novaracc,noincfock,fulldiag) stable=opt guess=
 read geom=nocrowd test
 ----------------------------------------------------------------------

 ----------------------------------------------------------------------
 hf stability analysis of h10 triangular lattice, y= 1.0205721581109972
 ----------------------------------------------------------------------
 Symbolic Z-matrix:
 Charge =  0 Multiplicity = 1

                         Standard orientation:
 ---------------------------------------------------------------------
 Center     Atomic      Atomic             Coordinates (Angstroms)
 Number     Number       Type             X           Y           Z
 ---------------------------------------------------------------------
      1          1           0        1.979133    1.820137   -0.000000
      2          1           0        1.979133    0.653262   -0.000000
      3          1           0        0.989566    1.201787   -0.000000
      4          1           0        0.989566    0.034912   -0.000000
      5          1           0        0.000000    0.583438    0.000000
      6          1           0       -0.000000   -0.583438   -0.000000
      7          1           0       -0.989566   -0.034912   -0.000000
      8          1           0       -0.989566   -1.201787   -0.000000
      9          1           0       -1.979133   -0.653262   -0.000000
     10          1           0       -1.979133   -1.820137   -0.000000
 ---------------------------------------------------------------------

 SCF Done:  E(RHF) =  -4.86595608079     A.U. after   10 cycles
 SCF Done:  E(UHF) =  -4.88776321363     a.u. after   15 cycles

 Unable to determine electronic state:  partially filled degenerate orbitals.
 Alpha  occ. eigenvalues --   -0.84978  -0.73401  -0.56233  -0.35667  -0.33943
 Alpha virt. eigenvalues --    0.04293   0.19567   0.27445   0.52987   0.57810
  Beta  occ. eigenvalues --   -0.84978  -0.73401  -0.56233  -0.35667  -0.33943
  Beta virt. eigenvalues --    0.04293   0.19567   0.27445   0.52987   0.57810

 Mulliken charges and spin densities:
               1          2
     1  H   -0.032460  -0.505538
     2  H    0.067073   0.432402
     3  H    0.077219   0.332297
     4  H   -0.132767  -0.102655
     5  H    0.020936   0.057298
     6  H    0.020936  -0.057298
     7  H   -0.132767   0.102655
     8  H    0.077219  -0.332297
     9  H    0.067073  -0.432402
    10  H   -0.032460   0.505538
 Sum of Mulliken charges =   0.00000  -0.00000

 Dipole moment (field-independent basis, Debye):
    X=             -0.0000    Y=             -0.0000    Z=             -0.0000  Tot=              0.0000
 Quadrupole moment (field-independent basis, Debye-Ang):
   XX=            -14.4282   YY=            -14.5742   ZZ=            -12.9423
   XY=              0.2711   XZ=              0.0000   YZ=             -0.0000

 Normal termination of Gaussian 09 at Wed Feb 22 12:37:32 2017.
