 Gaussian 09, Revision E.01,
 Gaussian 09:  ES64L-G09RevE.01 30-Nov-2015

 ----------------------------------------------------------------------
 #rhf/gen scf(symm,tight,novaracc,noincfock,fulldiag) stable=opt guess=
 read geom=nocrowd test
 ----------------------------------------------------------------------

 ----------------------------------------------------------------------
 hf stability analysis of h10 triangular lattice, y= 1.1387493349689228
 ----------------------------------------------------------------------
 Symbolic Z-matrix:
 Charge =  0 Multiplicity = 1

                         Standard orientation:
 ---------------------------------------------------------------------
 Center     Atomic      Atomic             Coordinates (Angstroms)
 Number     Number       Type             X           Y           Z
 ---------------------------------------------------------------------
      1          1           0        1.852684    2.291423    0.000000
      2          1           0        1.852684    1.044906    0.000000
      3          1           0        0.926342    1.457340    0.000000
      4          1           0        0.926342    0.210824    0.000000
      5          1           0       -0.000000    0.623258    0.000000
      6          1           0       -0.000000   -0.623258    0.000000
      7          1           0       -0.926342   -0.210824    0.000000
      8          1           0       -0.926342   -1.457340    0.000000
      9          1           0       -1.852684   -1.044906    0.000000
     10          1           0       -1.852684   -2.291423    0.000000
 ---------------------------------------------------------------------

 SCF Done:  E(RHF) =  -4.82604857195     A.U. after   11 cycles
 SCF Done:  E(UHF) =  -4.85966310412     a.u. after   11 cycles

 Unable to determine electronic state:  partially filled degenerate orbitals.
 Alpha  occ. eigenvalues --   -0.83495  -0.71476  -0.56554  -0.35076  -0.30826
 Alpha virt. eigenvalues --    0.08317   0.16430   0.24960   0.40552   0.59752
  Beta  occ. eigenvalues --   -0.83495  -0.71476  -0.56554  -0.35076  -0.30826
  Beta virt. eigenvalues --    0.08317   0.16430   0.24960   0.40552   0.59752

 Mulliken charges and spin densities:
               1          2
     1  H   -0.025085  -0.473448
     2  H    0.081150   0.441695
     3  H    0.054430   0.231861
     4  H   -0.117151   0.201150
     5  H    0.006656   0.292882
     6  H    0.006656  -0.292882
     7  H   -0.117151  -0.201150
     8  H    0.054430  -0.231861
     9  H    0.081150  -0.441695
    10  H   -0.025085   0.473448
 Sum of Mulliken charges =  -0.00000   0.00000

 Dipole moment (field-independent basis, Debye):
    X=              0.0000    Y=              0.0000    Z=              0.0000  Tot=              0.0000
 Quadrupole moment (field-independent basis, Debye-Ang):
   XX=            -13.4219   YY=            -14.5314   ZZ=            -12.9947
   XY=              0.5483   XZ=             -0.0000   YZ=              0.0000

 Normal termination of Gaussian 09 at Wed Feb 22 12:38:40 2017.
