 Gaussian 09, Revision E.01,
 Gaussian 09:  ES64L-G09RevE.01 30-Nov-2015

 ----------------------------------------------------------------------
 #rhf/gen scf(symm,tight,novaracc,noincfock,fulldiag) stable=opt guess=
 read geom=nocrowd test
 ----------------------------------------------------------------------

 ----------------------------------------------------------------------
 hf stability analysis of h10 triangular lattice, y= 2.0268354180156947
 ----------------------------------------------------------------------
 Symbolic Z-matrix:
 Charge =  0 Multiplicity = 1

                         Standard orientation:
 ---------------------------------------------------------------------
 Center     Atomic      Atomic             Coordinates (Angstroms)
 Number     Number       Type             X           Y           Z
 ---------------------------------------------------------------------
      1          1           0        1.128324    4.958310    0.000000
      2          1           0        1.128324    2.911556    0.000000
      3          1           0        0.564162    2.990844    0.000000
      4          1           0        0.564162    0.944089    0.000000
      5          1           0       -0.000000    1.023377    0.000000
      6          1           0       -0.000000   -1.023377    0.000000
      7          1           0       -0.564162   -0.944089   -0.000000
      8          1           0       -0.564162   -2.990844    0.000000
      9          1           0       -1.128324   -2.911556    0.000000
     10          1           0       -1.128324   -4.958310    0.000000
 ---------------------------------------------------------------------

 SCF Done:  E(RHF) =  -4.77947429404     A.U. after    9 cycles
 SCF Done:  E(UHF) =  -5.06942165774     a.u. after    4 cycles

 Unable to determine electronic state:  partially filled degenerate orbitals.
 Alpha  occ. eigenvalues --   -0.73201  -0.70788  -0.67081  -0.63190  -0.48814
 Alpha virt. eigenvalues --    0.14157   0.43239   0.50027   0.59803   0.69042
  Beta  occ. eigenvalues --   -0.73201  -0.70788  -0.67081  -0.63190  -0.48814
  Beta virt. eigenvalues --    0.14157   0.43239   0.50027   0.59803   0.69042

 Mulliken charges and spin densities:
               1          2
     1  H    0.004582  -1.004566
     2  H   -0.001775   0.002162
     3  H   -0.002915   0.002523
     4  H   -0.000231   0.000117
     5  H    0.000339  -0.000230
     6  H    0.000339   0.000230
     7  H   -0.000231  -0.000117
     8  H   -0.002915  -0.002523
     9  H   -0.001775  -0.002162
    10  H    0.004582   1.004566
 Sum of Mulliken charges =   0.00000  -0.00000

 Dipole moment (field-independent basis, Debye):
    X=             -0.0000    Y=             -0.0000    Z=              0.0000  Tot=              0.0000
 Quadrupole moment (field-independent basis, Debye-Ang):
   XX=            -12.3257   YY=            -15.6887   ZZ=            -13.2770
   XY=             -0.7513   XZ=              0.0000   YZ=             -0.0000

 Normal termination of Gaussian 09 at Wed Feb 22 12:42:17 2017.
