 Gaussian 09, Revision E.01,
 Gaussian 09:  ES64L-G09RevE.01 30-Nov-2015

 ----------------------------------------------------------------------
 #rhf/gen scf(symm,tight,novaracc,noincfock,fulldiag) stable(crhf) geom
 =nocrowd test
 ----------------------------------------------------------------------

 ----------------------------------------------------------------------
 hf stability analysis of h8 triangular lattice, y= 0.81496352157574936
 ----------------------------------------------------------------------
 Symbolic Z-matrix:
 Charge =  0 Multiplicity = 1

                         Standard orientation:
 ---------------------------------------------------------------------
 Center     Atomic      Atomic             Coordinates (Angstroms)
 Number     Number       Type             X           Y           Z
 ---------------------------------------------------------------------
      1          1           0        1.629927    0.708437    0.000000
      2          1           0        0.814964    1.416874   -0.000000
      3          1           0        0.814964    0.000000    0.000000
      4          1           0        0.000000    0.708437   -0.000000
      5          1           0       -0.000000   -0.708437    0.000000
      6          1           0       -0.814964    0.000000    0.000000
      7          1           0       -0.814964   -1.416874    0.000000
      8          1           0       -1.629927   -0.708437    0.000000
 ---------------------------------------------------------------------

 SCF Done:  E(RHF) =  -3.97773123889     A.U. after   10 cycles
 E2 =    -0.8212209888D-01 EUMP2 =    -0.40598533377665D+01

 The electronic state is 1-AG.
 Alpha  occ. eigenvalues --   -0.85083  -0.66515  -0.40617  -0.39770
 Alpha virt. eigenvalues --    0.04209   0.24939   0.38231   0.81062

 Mulliken charges:
               1
     1  H   -0.017239
     2  H    0.061885
     3  H    0.043749
     4  H   -0.088395
     5  H   -0.088395
     6  H    0.043749
     7  H    0.061885
     8  H   -0.017239
 Sum of Mulliken charges =  -0.00000

 Dipole moment (field-independent basis, Debye):
    X=             -0.0000    Y=             -0.0000    Z=              0.0000  Tot=              0.0000
 Quadrupole moment (field-independent basis, Debye-Ang):
   XX=            -11.8100   YY=            -11.2531   ZZ=            -10.4480
   XY=              0.2428   XZ=             -0.0000   YZ=              0.0000

 Normal termination of Gaussian 09 at Fri Feb 10 11:46:41 2017.
