 Gaussian 09, Revision E.01,
 Gaussian 09:  ES64L-G09RevE.01 30-Nov-2015

 ----------------------------------------------------------------------
 #rhf/gen scf(symm,tight,novaracc,noincfock,fulldiag) stable(crhf) geom
 =nocrowd test
 ----------------------------------------------------------------------

 ----------------------------------------------------------------------
 hf stability analysis of h8 triangular lattice, y= 0.92517945528340284
 ----------------------------------------------------------------------
 Symbolic Z-matrix:
 Charge =  0 Multiplicity = 1

                         Standard orientation:
 ---------------------------------------------------------------------
 Center     Atomic      Atomic             Coordinates (Angstroms)
 Number     Number       Type             X           Y           Z
 ---------------------------------------------------------------------
      1          1           0        1.850359    0.624041   -0.000000
      2          1           0        0.925179    1.248083   -0.000000
      3          1           0        0.925179    0.000000    0.000000
      4          1           0        0.000000    0.624041   -0.000000
      5          1           0       -0.000000   -0.624041   -0.000000
      6          1           0       -0.925179    0.000000    0.000000
      7          1           0       -0.925179   -1.248083   -0.000000
      8          1           0       -1.850359   -0.624041    0.000000
 ---------------------------------------------------------------------

 SCF Done:  E(RHF) =  -3.97111110694     A.U. after   10 cycles
 E2 =    -0.7981012343D-01 EUMP2 =    -0.40509212303732D+01

 The electronic state is 1-AG.
 Alpha  occ. eigenvalues --   -0.83942  -0.66727  -0.40400  -0.37343
 Alpha virt. eigenvalues --    0.06416   0.18466   0.43491   0.65672

 Mulliken charges:
               1
     1  H   -0.043085
     2  H    0.104750
     3  H    0.120200
     4  H   -0.181865
     5  H   -0.181865
     6  H    0.120200
     7  H    0.104750
     8  H   -0.043085
 Sum of Mulliken charges =  -0.00000

 Dipole moment (field-independent basis, Debye):
    X=              0.0000    Y=             -0.0000    Z=              0.0000  Tot=              0.0000
 Quadrupole moment (field-independent basis, Debye-Ang):
   XX=            -11.5020   YY=            -11.2006   ZZ=            -10.5014
   XY=              0.8045   XZ=              0.0000   YZ=             -0.0000

 Normal termination of Gaussian 09 at Fri Feb 10 11:46:56 2017.
