 Gaussian 09, Revision E.01,
 Gaussian 09:  ES64L-G09RevE.01 30-Nov-2015

 ----------------------------------------------------------------------
 #rhf/gen scf(symm,tight,novaracc,noincfock,fulldiag) stable(crhf) gues
 s=read geom=nocrowd test
 ----------------------------------------------------------------------

 ----------------------------------------------------------------------
 hf stability analysis of h10 triangular lattice, y= 1.3742008147382716
 ----------------------------------------------------------------------
 Symbolic Z-matrix:
 Charge =  0 Multiplicity = 1

                         Standard orientation:
 ---------------------------------------------------------------------
 Center     Atomic      Atomic             Coordinates (Angstroms)
 Number     Number       Type             X           Y           Z
 ---------------------------------------------------------------------
      1          1           0        1.607110    3.101133    0.000000
      2          1           0        1.607110    1.664143    0.000000
      3          1           0        0.803555    1.909814    0.000000
      4          1           0        0.803555    0.472824    0.000000
      5          1           0        0.000000    0.718495    0.000000
      6          1           0       -0.000000   -0.718495   -0.000000
      7          1           0       -0.803555   -0.472824   -0.000000
      8          1           0       -0.803555   -1.909814   -0.000000
      9          1           0       -1.607110   -1.664143   -0.000000
     10          1           0       -1.607110   -3.101133   -0.000000
 ---------------------------------------------------------------------

 SCF Done:  E(RHF) =  -4.79975177453     A.U. after    9 cycles
 E2 =    -0.2765859952D+00 EUMP2 =    -0.50763377697281D+01

 The electronic state is 1-AG.
 Alpha  occ. eigenvalues --   -0.81373  -0.72942  -0.60150  -0.44011  -0.12115
 Alpha virt. eigenvalues --   -0.00400   0.11161   0.23593   0.41358   0.57740

 Mulliken charges:
               1
     1  H   -0.204514
     2  H    0.046636
     3  H    0.090386
     4  H    0.030154
     5  H    0.037339
     6  H    0.037339
     7  H    0.030154
     8  H    0.090386
     9  H    0.046636
    10  H   -0.204514
 Sum of Mulliken charges =   0.00000

 Dipole moment (field-independent basis, Debye):
    X=              0.0000    Y=             -0.0000    Z=              0.0000  Tot=              0.0000
 Quadrupole moment (field-independent basis, Debye-Ang):
   XX=            -15.9099   YY=            -31.5311   ZZ=            -12.8215
   XY=            -10.3686   XZ=             -0.0000   YZ=             -0.0000

 Normal termination of Gaussian 09 at Mon Feb 20 11:40:12 2017.
