 Gaussian 09, Revision E.01,
 Gaussian 09:  ES64L-G09RevE.01 30-Nov-2015

 ----------------------------------------------------------------------
 #rhf/gen scf(symm,tight,novaracc,noincfock,fulldiag) stable(crhf) gues
 s=read geom=nocrowd test
 ----------------------------------------------------------------------

 hf stability analysis of h10 triangular lattice, y= 0.8596363675198261
 9
 ----------------------------------------------------------------------
 Symbolic Z-matrix:
 Charge =  0 Multiplicity = 1

                         Standard orientation:
 ---------------------------------------------------------------------
 Center     Atomic      Atomic             Coordinates (Angstroms)
 Number     Number       Type             X           Y           Z
 ---------------------------------------------------------------------
      1          1           0        2.116980    1.073269   -0.000000
      2          1           0        2.116980   -0.017625   -0.000000
      3          1           0        1.058490    0.809358   -0.000000
      4          1           0        1.058490   -0.281536   -0.000000
      5          1           0       -0.000000    0.545447   -0.000000
      6          1           0       -0.000000   -0.545447   -0.000000
      7          1           0       -1.058490    0.281536   -0.000000
      8          1           0       -1.058490   -0.809358   -0.000000
      9          1           0       -2.116980    0.017625   -0.000000
     10          1           0       -2.116980   -1.073269   -0.000000
 ---------------------------------------------------------------------

 SCF Done:  E(RHF) =  -4.85849517426     A.U. after    8 cycles
 E2 =    -0.1068171018D+00 EUMP2 =    -0.49653122760232D+01

 The electronic state is 1-AG.
 Alpha  occ. eigenvalues --   -0.87070  -0.74116  -0.52901  -0.45273  -0.29644
 Alpha virt. eigenvalues --   -0.02931   0.17302   0.33064   0.52990   0.81452

 Mulliken charges:
               1
     1  H    0.112026
     2  H   -0.036233
     3  H   -0.027933
     4  H   -0.038844
     5  H   -0.009016
     6  H   -0.009016
     7  H   -0.038844
     8  H   -0.027933
     9  H   -0.036233
    10  H    0.112026
 Sum of Mulliken charges =  -0.00000

 Dipole moment (field-independent basis, Debye):
    X=              0.0000    Y=             -0.0000    Z=             -0.0000  Tot=              0.0000
 Quadrupole moment (field-independent basis, Debye-Ang):
   XX=            -10.5439   YY=            -16.1534   ZZ=            -12.9638
   XY=              3.5144   XZ=              0.0000   YZ=              0.0000

 Normal termination of Gaussian 09 at Mon Feb 20 11:36:55 2017.
