 Gaussian 09, Revision E.01,
 Gaussian 09:  ES64L-G09RevE.01 30-Nov-2015

 ----------------------------------------------------------------------
 #rhf/gen scf(symm,tight,novaracc,noincfock,fulldiag) stable(crhf) gues
 s=read geom=nocrowd test
 ----------------------------------------------------------------------

 ----------------------------------------------------------------------
 hf stability analysis of h10 triangular lattice, y= 2.1684423371644423
 ----------------------------------------------------------------------
 Symbolic Z-matrix:
 Charge =  0 Multiplicity = 1

                         Standard orientation:
 ---------------------------------------------------------------------
 Center     Atomic      Atomic             Coordinates (Angstroms)
 Number     Number       Type             X           Y           Z
 ---------------------------------------------------------------------
      1          1           0        1.057067    5.332026    0.000000
      2          1           0        1.057067    3.147299    0.000000
      3          1           0        0.528533    3.212195    0.000000
      4          1           0        0.528533    1.027468    0.000000
      5          1           0        0.000000    1.092363    0.000000
      6          1           0       -0.000000   -1.092363    0.000000
      7          1           0       -0.528533   -1.027468    0.000000
      8          1           0       -0.528533   -3.212195    0.000000
      9          1           0       -1.057067   -3.147299    0.000000
     10          1           0       -1.057067   -5.332026    0.000000
 ---------------------------------------------------------------------

 SCF Done:  E(RHF) =  -4.66588704746     A.U. after    5 cycles
 E2 =    -0.8940829692D+00 EUMP2 =    -0.55599700166982D+01

 The electronic state is 1-AG.
 Alpha  occ. eigenvalues --   -0.73366  -0.71503  -0.68787  -0.66122  -0.20305
 Alpha virt. eigenvalues --   -0.15420   0.48048   0.53937   0.62282   0.70034

 Mulliken charges:
               1
     1  H   -0.000184
     2  H    0.000749
     3  H   -0.000717
     4  H   -0.000185
     5  H    0.000336
     6  H    0.000336
     7  H   -0.000185
     8  H   -0.000717
     9  H    0.000749
    10  H   -0.000184
 Sum of Mulliken charges =   0.00000

 Dipole moment (field-independent basis, Debye):
    X=              0.0000    Y=              0.0000    Z=             -0.0000  Tot=              0.0000
 Quadrupole moment (field-independent basis, Debye-Ang):
   XX=            -12.5030   YY=            -15.8724   ZZ=            -13.3823
   XY=             -0.6291   XZ=              0.0000   YZ=              0.0000

 Normal termination of Gaussian 09 at Mon Feb 20 11:41:34 2017.
