 Gaussian 09, Revision E.01,
 Gaussian 09:  ES64L-G09RevE.01 30-Nov-2015

 ----------------------------------------------------------------------
 #rhf/gen scf(symm,tight,novaracc,noincfock,fulldiag) stable(crhf) gues
 s=read geom=nocrowd test
 ----------------------------------------------------------------------

 ----------------------------------------------------------------------
 hf stability analysis of h10 triangular lattice, y= 1.4678899319530556
 ----------------------------------------------------------------------
 Symbolic Z-matrix:
 Charge =  0 Multiplicity = 1

                         Standard orientation:
 ---------------------------------------------------------------------
 Center     Atomic      Atomic             Coordinates (Angstroms)
 Number     Number       Type             X           Y           Z
 ---------------------------------------------------------------------
      1          1           0        1.519671    3.391984    0.000000
      2          1           0        1.519671    1.872312    0.000000
      3          1           0        0.759836    2.075910    0.000000
      4          1           0        0.759836    0.556238    0.000000
      5          1           0       -0.000000    0.759836    0.000000
      6          1           0       -0.000000   -0.759836   -0.000000
      7          1           0       -0.759836   -0.556238    0.000000
      8          1           0       -0.759836   -2.075910    0.000000
      9          1           0       -1.519671   -1.872312    0.000000
     10          1           0       -1.519671   -3.391984    0.000000
 ---------------------------------------------------------------------

 SCF Done:  E(RHF) =  -4.86606799286     A.U. after    8 cycles
 E2 =    -0.3787476972D+00 EUMP2 =    -0.52448156900535D+01

 The electronic state is 1-AG.
 Alpha  occ. eigenvalues --   -0.78743  -0.71743  -0.60843  -0.47170  -0.14097
 Alpha virt. eigenvalues --   -0.04646   0.16956   0.28330   0.44896   0.60774

 Mulliken charges:
               1
     1  H   -0.137159
     2  H    0.035485
     3  H    0.058274
     4  H    0.017899
     5  H    0.025502
     6  H    0.025502
     7  H    0.017899
     8  H    0.058274
     9  H    0.035485
    10  H   -0.137159
 Sum of Mulliken charges =  -0.00000

 Dipole moment (field-independent basis, Debye):
    X=              0.0000    Y=             -0.0000    Z=             -0.0000  Tot=              0.0000
 Quadrupole moment (field-independent basis, Debye-Ang):
   XX=            -14.2382   YY=            -28.8136   ZZ=            -12.8824
   XY=             -7.6746   XZ=              0.0000   YZ=              0.0000

 Normal termination of Gaussian 09 at Mon Feb 20 11:40:28 2017.
