 Gaussian 09, Revision E.01,
 Gaussian 09:  ES64L-G09RevE.01 30-Nov-2015

 ----------------------------------------------------------------------
 #rhf/gen scf(symm,tight,novaracc,noincfock,fulldiag) stable(crhf) gues
 s=read geom=nocrowd test
 ----------------------------------------------------------------------

 ----------------------------------------------------------------------
 hf stability analysis of h10 triangular lattice, y= 1.5217180473945009
 ----------------------------------------------------------------------
 Symbolic Z-matrix:
 Charge =  0 Multiplicity = 1

                         Standard orientation:
 ---------------------------------------------------------------------
 Center     Atomic      Atomic             Coordinates (Angstroms)
 Number     Number       Type             X           Y           Z
 ---------------------------------------------------------------------
      1          1           0        1.472548    3.553611    0.000000
      2          1           0        1.472548    1.985308    0.000000
      3          1           0        0.736274    2.168881    0.000000
      4          1           0        0.736274    0.600578    0.000000
      5          1           0        0.000000    0.784152    0.000000
      6          1           0       -0.000000   -0.784152    0.000000
      7          1           0       -0.736274   -0.600578    0.000000
      8          1           0       -0.736274   -2.168881    0.000000
      9          1           0       -1.472548   -1.985308    0.000000
     10          1           0       -1.472548   -3.553611    0.000000
 ---------------------------------------------------------------------

 SCF Done:  E(RHF) =  -4.89257628155     A.U. after    7 cycles
 E2 =    -0.4383563597D+00 EUMP2 =    -0.53309326412808D+01

 The electronic state is 1-AG.
 Alpha  occ. eigenvalues --   -0.77483  -0.71209  -0.61285  -0.48933  -0.15180
 Alpha virt. eigenvalues --   -0.06669   0.20190   0.30926   0.46797   0.62232

 Mulliken charges:
               1
     1  H   -0.105125
     2  H    0.028884
     3  H    0.044950
     4  H    0.012148
     5  H    0.019142
     6  H    0.019142
     7  H    0.012148
     8  H    0.044950
     9  H    0.028884
    10  H   -0.105125
 Sum of Mulliken charges =  -0.00000

 Dipole moment (field-independent basis, Debye):
    X=             -0.0000    Y=             -0.0000    Z=             -0.0000  Tot=              0.0000
 Quadrupole moment (field-independent basis, Debye-Ang):
   XX=            -13.5797   YY=            -26.9390   ZZ=            -12.9212
   XY=             -6.2849   XZ=             -0.0000   YZ=             -0.0000

 Normal termination of Gaussian 09 at Mon Feb 20 11:40:37 2017.
