 Gaussian 09, Revision E.01,
 Gaussian 09:  ES64L-G09RevE.01 30-Nov-2015

 ----------------------------------------------------------------------
 #rhf/gen scf(symm,tight,novaracc,noincfock,fulldiag) stable(crhf) gues
 s=read geom=nocrowd test
 ----------------------------------------------------------------------

 hf stability analysis of h10 triangular lattice, y= 0.9080427759821990
 7
 ----------------------------------------------------------------------
 Symbolic Z-matrix:
 Charge =  0 Multiplicity = 1

                         Standard orientation:
 ---------------------------------------------------------------------
 Center     Atomic      Atomic             Coordinates (Angstroms)
 Number     Number       Type             X           Y           Z
 ---------------------------------------------------------------------
      1          1           0        2.083328    1.312527    0.000000
      2          1           0        2.083328    0.204012    0.000000
      3          1           0        1.041664    0.933392    0.000000
      4          1           0        1.041664   -0.175123    0.000000
      5          1           0       -0.000000    0.554258    0.000000
      6          1           0       -0.000000   -0.554258    0.000000
      7          1           0       -1.041664    0.175123    0.000000
      8          1           0       -1.041664   -0.933392    0.000000
      9          1           0       -2.083328   -0.204012    0.000000
     10          1           0       -2.083328   -1.312527    0.000000
 ---------------------------------------------------------------------

 SCF Done:  E(RHF) =  -4.82695196789     A.U. after    8 cycles
 E2 =    -0.1090581344D+00 EUMP2 =    -0.49360101022699D+01

 The electronic state is 1-AG.
 Alpha  occ. eigenvalues --   -0.86367  -0.73693  -0.53137  -0.43603  -0.28050
 Alpha virt. eigenvalues --   -0.04306   0.19031   0.29808   0.54223   0.73365

 Mulliken charges:
               1
     1  H    0.135988
     2  H   -0.067044
     3  H   -0.020029
     4  H   -0.047662
     5  H   -0.001253
     6  H   -0.001253
     7  H   -0.047662
     8  H   -0.020029
     9  H   -0.067044
    10  H    0.135988
 Sum of Mulliken charges =  -0.00000

 Dipole moment (field-independent basis, Debye):
    X=              0.0000    Y=              0.0000    Z=              0.0000  Tot=              0.0000
 Quadrupole moment (field-independent basis, Debye-Ang):
   XX=            -11.1064   YY=            -14.8601   ZZ=            -12.9725
   XY=              4.8309   XZ=              0.0000   YZ=              0.0000

 Normal termination of Gaussian 09 at Mon Feb 20 11:37:24 2017.
