 Gaussian 09, Revision E.01,
 Gaussian 09:  ES64L-G09RevE.01 30-Nov-2015

 ----------------------------------------------------------------------
 #t rhf/gen scf(tight,novaracc,noincfock) stable(crhf) guess=mix geom=n
 ocrowd test
 ----------------------------------------------------------------------

 scf stability calculation for a triangular configuration of 6 H atoms
 (made up of 4 iscosceles triangles)
 ----------------------------------------------------------------------
 Symbolic Z-matrix:
 Charge =  0 Multiplicity = 1

                         Standard orientation:
 ---------------------------------------------------------------------
 Center     Atomic      Atomic             Coordinates (Angstroms)
 Number     Number       Type             X           Y           Z
 ---------------------------------------------------------------------
      1          1           0       -0.000000    0.000000    4.633333
      2          1           0        0.000000    0.166143    1.158333
      3          1           0       -0.000000   -0.166143    1.158333
      4          1           0        0.000000    0.000000   -2.316667
      5          1           0        0.000000   -0.332286   -2.316667
      6          1           0        0.000000    0.332286   -2.316667
 ---------------------------------------------------------------------

 SCF Done:  E(RHF) = -0.938787874506     A.U. after   12 cycles
 E2 =    -0.3133414604D+00 EUMP2 =    -0.12521293349358D+01

 Unable to determine electronic state:  an orbital has unidentified symmetry.
 Alpha  occ. eigenvalues --   -1.25998  -0.77862  -0.10168
 Alpha virt. eigenvalues --   -0.02589   0.82095   2.19635

 Mulliken charges:
               1
     1  H   -0.450056
     2  H    0.000025
     3  H   -0.000195
     4  H   -1.707494
     5  H    1.079261
     6  H    1.078458
 Sum of Mulliken charges =  -0.00000

 Dipole moment (field-independent basis, Debye):
    X=              0.0000    Y=             -0.0011    Z=            -15.0267  Tot=             15.0267

 Test job not archived.
 1\1\GINC-SULU\Stability\RHF\Gen\H6\LCJ1\06-Jan-2017\0\\#t rhf/gen scf(
 tight,novaracc,noincfock) stable(crhf) guess=mix geom=nocrowd test\\sc
 f stability calculation for a triangular configuration of 6 H atoms (m
 ade up of 4 iscosceles triangles)\\0,1\H,0,0.,0.,3.475\H,0,0.166143,0.
 ,0.\H,0,-0.166143,0.,0.\H,0,0.,0.,-3.475\H,0,-0.332286,0.,-3.475\H,0,0
 .332286,0.,-3.475\\Version=ES64L-G09RevE.01\HF=-0.9387879\MP2=-1.25212
 93\RMSD=1.205e-09\Dipole=-0.0004353,0.,-5.9119668\Quadrupole=8.7436635
 ,8.5945413,-17.3382049,0.,0.0005485,0.\PG=C02V [C2(H1H1),SGV(H4)]\\@

 Normal termination of Gaussian 09 at Fri Jan  6 13:27:32 2017.
