 Gaussian 09, Revision E.01,
 Gaussian 09:  ES64L-G09RevE.01 30-Nov-2015

 ----------------------------------------------------------------------
 #rhf/gen scf(tight,novaracc,noincfock,fulldiag) stable(crhf) guess=rea
 d geom=nocrowd test
 ----------------------------------------------------------------------

 hf stability analysis of h10 triangular lattice, y= 0.8443744677903469
 7
 ----------------------------------------------------------------------
 Symbolic Z-matrix:
 Charge =  0 Multiplicity = 1

                         Standard orientation:
 ---------------------------------------------------------------------
 Center     Atomic      Atomic             Coordinates (Angstroms)
 Number     Number       Type             X           Y           Z
 ---------------------------------------------------------------------
      1          1           0        2.125528    0.995048    0.000000
      2          1           0        2.125528   -0.091458   -0.000000
      3          1           0        1.062764    0.769151    0.000000
      4          1           0        1.062764   -0.317356   -0.000000
      5          1           0       -0.000000    0.543253    0.000000
      6          1           0       -0.000000   -0.543253    0.000000
      7          1           0       -1.062764    0.317356   -0.000000
      8          1           0       -1.062764   -0.769151    0.000000
      9          1           0       -2.125528    0.091458   -0.000000
     10          1           0       -2.125528   -0.995048    0.000000
 ---------------------------------------------------------------------

 SCF Done:  E(RHF) =  -4.83428803820     A.U. after   19 cycles
 E2 =    -0.9489601953D-01 EUMP2 =    -0.49291840577311D+01

 Unable to determine electronic state:  partially filled degenerate orbitals.
 Alpha  occ. eigenvalues --   -0.86622  -0.73943  -0.53813  -0.42117  -0.27257
 Alpha virt. eigenvalues --   -0.04921   0.19470   0.32822   0.52318   0.84823

 Mulliken charges:
               1
     1  H   -0.267854
     2  H    0.307932
     3  H    0.252908
     4  H   -0.323644
     5  H   -0.105789
     6  H    0.098307
     7  H    0.213215
     8  H   -0.251561
     9  H   -0.169547
    10  H    0.246033
 Sum of Mulliken charges =  -0.00000

 Dipole moment (field-independent basis, Debye):
    X=             -0.5370    Y=             -0.5163    Z=              0.0000  Tot=              0.7450
 Quadrupole moment (field-independent basis, Debye-Ang):
   XX=            -13.2948   YY=            -15.2816   ZZ=            -12.8813
   XY=             -0.2891   XZ=             -0.0000   YZ=             -0.0000

 Normal termination of Gaussian 09 at Tue Feb 14 13:27:25 2017.
