 Gaussian 09, Revision E.01,
 Gaussian 09:  ES64L-G09RevE.01 30-Nov-2015

 ----------------------------------------------------------------------
 #rhf/gen scf(tight,novaracc,noincfock,fulldiag) stable(crhf) guess=rea
 d geom=nocrowd test
 ----------------------------------------------------------------------

 hf stability analysis of h10 triangular lattice, y= 0.7466864790071482
 4
 ----------------------------------------------------------------------
 Symbolic Z-matrix:
 Charge =  0 Multiplicity = 1

                         Standard orientation:
 ---------------------------------------------------------------------
 Center     Atomic      Atomic             Coordinates (Angstroms)
 Number     Number       Type             X           Y           Z
 ---------------------------------------------------------------------
      1          1           0        2.148485    0.462422   -0.000000
      2          1           0        2.148485   -0.612475   -0.000000
      3          1           0        1.074243    0.499935   -0.000000
      4          1           0        1.074243   -0.574962   -0.000000
      5          1           0       -0.000000    0.537449    0.000000
      6          1           0       -0.000000   -0.537449    0.000000
      7          1           0       -1.074243    0.574962    0.000000
      8          1           0       -1.074243   -0.499935    0.000000
      9          1           0       -2.148485    0.612475    0.000000
     10          1           0       -2.148485   -0.462422    0.000000
 ---------------------------------------------------------------------

 SCF Done:  E(RHF) =  -4.83089626175     A.U. after   17 cycles
 E2 =    -0.9556814417D-01 EUMP2 =    -0.49264644059153D+01

 Unable to determine electronic state:  partially filled degenerate orbitals.
 Alpha  occ. eigenvalues --   -0.86782  -0.73807  -0.53814  -0.42428  -0.27070
 Alpha virt. eigenvalues --   -0.04941   0.19255   0.34698   0.51649   0.91717

 Mulliken charges:
               1
     1  H   -0.207179
     2  H    0.261246
     3  H    0.228925
     4  H   -0.285939
     5  H   -0.108661
     6  H    0.125987
     7  H    0.239967
     8  H   -0.301797
     9  H   -0.230320
    10  H    0.277770
 Sum of Mulliken charges =   0.00000

 Dipole moment (field-independent basis, Debye):
    X=              0.0931    Y=             -0.4022    Z=              0.0000  Tot=              0.4128
 Quadrupole moment (field-independent basis, Debye-Ang):
   XX=            -14.3142   YY=            -14.5161   ZZ=            -12.8399
   XY=              0.1525   XZ=              0.0000   YZ=             -0.0000

 Normal termination of Gaussian 09 at Tue Feb 14 13:27:09 2017.
