 Gaussian 09, Revision E.01,
 Gaussian 09:  ES64L-G09RevE.01 30-Nov-2015

 ----------------------------------------------------------------------
 #rhf/gen scf(tight,novaracc,noincfock,fulldiag) stable(crhf) guess=rea
 d geom=nocrowd test
 ----------------------------------------------------------------------

 hf stability analysis of h10 triangular lattice, y= 0.7598357022583297
 5
 ----------------------------------------------------------------------
 Symbolic Z-matrix:
 Charge =  0 Multiplicity = 1

                         Standard orientation:
 ---------------------------------------------------------------------
 Center     Atomic      Atomic             Coordinates (Angstroms)
 Number     Number       Type             X           Y           Z
 ---------------------------------------------------------------------
      1          1           0        0.000000    2.149140    0.537285
      2          1           0        0.000000    2.149140   -0.537285
      3          1           0        0.000000    1.074570    0.537285
      4          1           0        0.000000    1.074570   -0.537285
      5          1           0        0.000000    0.000000    0.537285
      6          1           0        0.000000   -0.000000   -0.537285
      7          1           0       -0.000000   -1.074570    0.537285
      8          1           0       -0.000000   -1.074570   -0.537285
      9          1           0       -0.000000   -2.149140    0.537285
     10          1           0       -0.000000   -2.149140   -0.537285
 ---------------------------------------------------------------------

 SCF Done:  E(RHF) =  -4.83073291200     A.U. after   15 cycles
 E2 =    -0.9562224354D-01 EUMP2 =    -0.49263551555395D+01

 Unable to determine electronic state:  partially filled degenerate orbitals.
 Alpha  occ. eigenvalues --   -0.86786  -0.73802  -0.53813  -0.42439  -0.27064
 Alpha virt. eigenvalues --   -0.04941   0.19248   0.34755   0.51630   0.91926

 Mulliken charges:
               1
     1  H   -0.218601
     2  H    0.269179
     3  H    0.234262
     4  H   -0.293901
     5  H   -0.108530
     6  H    0.126651
     7  H    0.234262
     8  H   -0.293901
     9  H   -0.218601
    10  H    0.269179
 Sum of Mulliken charges =   0.00000

 Dipole moment (field-independent basis, Debye):
    X=              0.0000    Y=             -0.0000    Z=             -0.3985  Tot=              0.3985
 Quadrupole moment (field-independent basis, Debye-Ang):
   XX=            -12.8387   YY=            -14.3425   ZZ=            -14.4906
   XY=              0.0000   XZ=              0.0000   YZ=              0.0000

 Normal termination of Gaussian 09 at Tue Feb 14 13:27:11 2017.
