 Gaussian 09, Revision E.01,
 Gaussian 09:  ES64L-G09RevE.01 30-Nov-2015

 ----------------------------------------------------------------------
 #rhf/gen scf(tight,novaracc,noincfock,fulldiag) stable(crhf) guess=rea
 d geom=nocrowd test
 ----------------------------------------------------------------------

 hf stability analysis of h10 triangular lattice, y= 0.8914339662136427
 9
 ----------------------------------------------------------------------
 Symbolic Z-matrix:
 Charge =  0 Multiplicity = 1

                         Standard orientation:
 ---------------------------------------------------------------------
 Center     Atomic      Atomic             Coordinates (Angstroms)
 Number     Number       Type             X           Y           Z
 ---------------------------------------------------------------------
      1          1           0        2.095887    1.231931    0.000000
      2          1           0        2.095887    0.130058    0.000000
      3          1           0        1.047943    0.891434    0.000000
      4          1           0        1.047943   -0.210439    0.000000
      5          1           0        0.000000    0.550936    0.000000
      6          1           0       -0.000000   -0.550936    0.000000
      7          1           0       -1.047943    0.210439    0.000000
      8          1           0       -1.047943   -0.891434    0.000000
      9          1           0       -2.095887   -0.130058    0.000000
     10          1           0       -2.095887   -1.231931    0.000000
 ---------------------------------------------------------------------

 SCF Done:  E(RHF) =  -4.83022241253     A.U. after   14 cycles
 E2 =    -0.9840983545D-01 EUMP2 =    -0.49286322479801D+01

 Unable to determine electronic state:  partially filled degenerate orbitals.
 Alpha  occ. eigenvalues --   -0.86375  -0.73904  -0.53677  -0.42122  -0.27408
 Alpha virt. eigenvalues --   -0.04846   0.19618   0.30625   0.53248   0.76905

 Mulliken charges:
               1
     1  H   -0.209571
     2  H    0.256815
     3  H    0.200225
     4  H   -0.283038
     5  H   -0.072608
     6  H    0.047620
     7  H    0.188608
     8  H   -0.218167
     9  H   -0.172384
    10  H    0.262499
 Sum of Mulliken charges =   0.00000

 Dipole moment (field-independent basis, Debye):
    X=             -0.6996    Y=             -0.5752    Z=              0.0000  Tot=              0.9057
 Quadrupole moment (field-independent basis, Debye-Ang):
   XX=            -12.0043   YY=            -15.6851   ZZ=            -12.9314
   XY=              1.2591   XZ=              0.0000   YZ=              0.0000

 Normal termination of Gaussian 09 at Tue Feb 14 13:27:32 2017.
