 Gaussian 09, Revision E.01,
 Gaussian 09:  ES64L-G09RevE.01 30-Nov-2015

 ----------------------------------------------------------------------
 #rhf/gen scf(tight,novaracc,noincfock,fulldiag) stable(crhf) guess=rea
 d geom=nocrowd test
 ----------------------------------------------------------------------

 hf stability analysis of h10 triangular lattice, y= 0.9612250668035587
 9
 ----------------------------------------------------------------------
 Symbolic Z-matrix:
 Charge =  0 Multiplicity = 1

                         Standard orientation:
 ---------------------------------------------------------------------
 Center     Atomic      Atomic             Coordinates (Angstroms)
 Number     Number       Type             X           Y           Z
 ---------------------------------------------------------------------
      1          1           0        2.037487    1.560477    0.000000
      2          1           0        2.037487    0.427021    0.000000
      3          1           0        1.018743    1.063602    0.000000
      4          1           0        1.018743   -0.069854    0.000000
      5          1           0       -0.000000    0.566728    0.000000
      6          1           0       -0.000000   -0.566728   -0.000000
      7          1           0       -1.018743    0.069854    0.000000
      8          1           0       -1.018743   -1.063602    0.000000
      9          1           0       -2.037487   -0.427021    0.000000
     10          1           0       -2.037487   -1.560477    0.000000
 ---------------------------------------------------------------------

 SCF Done:  E(RHF) =  -4.78117226183     A.U. after   10 cycles
 E2 =    -0.1127423998D+00 EUMP2 =    -0.48939146616279D+01

 The electronic state is 1-AG.
 Alpha  occ. eigenvalues --   -0.85498  -0.73162  -0.53438  -0.41348  -0.25968
 Alpha virt. eigenvalues --   -0.05792   0.20998   0.26028   0.55404   0.63859

 Mulliken charges:
               1
     1  H    0.148340
     2  H   -0.092291
     3  H   -0.004518
     4  H   -0.067282
     5  H    0.015752
     6  H    0.015752
     7  H   -0.067282
     8  H   -0.004518
     9  H   -0.092291
    10  H    0.148340
 Sum of Mulliken charges =  -0.00000

 Dipole moment (field-independent basis, Debye):
    X=             -0.0000    Y=             -0.0000    Z=              0.0000  Tot=              0.0000
 Quadrupole moment (field-independent basis, Debye-Ang):
   XX=            -12.0184   YY=            -13.2372   ZZ=            -12.9807
   XY=              5.7591   XZ=             -0.0000   YZ=             -0.0000

 Normal termination of Gaussian 09 at Tue Feb 14 13:27:41 2017.
