 Gaussian 09, Revision E.01,
 Gaussian 09:  ES64L-G09RevE.01 30-Nov-2015

 ----------------------------------------------------------------------
 #rhf/gen scf(tight,novaracc,noincfock,fulldiag) stable(crhf) guess=rea
 d geom=nocrowd test
 ----------------------------------------------------------------------

 hf stability analysis of h10 triangular lattice, y= 0.8753112166669652
 1
 ----------------------------------------------------------------------
 Symbolic Z-matrix:
 Charge =  0 Multiplicity = 1

                         Standard orientation:
 ---------------------------------------------------------------------
 Center     Atomic      Atomic             Coordinates (Angstroms)
 Number     Number       Type             X           Y           Z
 ---------------------------------------------------------------------
      1          1           0        2.107102    1.152206   -0.000000
      2          1           0        2.107102    0.056198   -0.000000
      3          1           0        1.053551    0.850105   -0.000000
      4          1           0        1.053551   -0.245903   -0.000000
      5          1           0        0.000000    0.548004    0.000000
      6          1           0       -0.000000   -0.548004    0.000000
      7          1           0       -1.053551    0.245903   -0.000000
      8          1           0       -1.053551   -0.850105   -0.000000
      9          1           0       -2.107102   -0.056198   -0.000000
     10          1           0       -2.107102   -1.152206   -0.000000
 ---------------------------------------------------------------------

 SCF Done:  E(RHF) =  -4.83311380422     A.U. after   27 cycles
 E2 =    -0.9638147869D-01 EUMP2 =    -0.49294952829102D+01

 Unable to determine electronic state:  partially filled degenerate orbitals.
 Alpha  occ. eigenvalues --   -0.86472  -0.73952  -0.53753  -0.42046  -0.27362
 Alpha virt. eigenvalues --   -0.04880   0.19581   0.31436   0.52876   0.79792

 Mulliken charges:
               1
     1  H   -0.245348
     2  H    0.288852
     3  H    0.228918
     4  H   -0.306418
     5  H   -0.090102
     6  H    0.068770
     7  H    0.203679
     8  H   -0.235005
     9  H   -0.169344
    10  H    0.255999
 Sum of Mulliken charges =   0.00000

 Dipole moment (field-independent basis, Debye):
    X=             -0.6704    Y=             -0.5723    Z=             -0.0000  Tot=              0.8814
 Quadrupole moment (field-independent basis, Debye-Ang):
   XX=            -12.4728   YY=            -15.6443   ZZ=            -12.9129
   XY=              0.4663   XZ=              0.0000   YZ=              0.0000

 Normal termination of Gaussian 09 at Tue Feb 14 13:27:30 2017.
