 Gaussian 09, Revision E.01,
 Gaussian 09:  ES64L-G09RevE.01 30-Nov-2015

 ----------------------------------------------------------------------
 #rhf/gen scf(symm,tight,novaracc,noincfock,fulldiag) stable(crhf) gues
 s=read geom=nocrowd test
 ----------------------------------------------------------------------

 hf stability analysis of h10 triangular lattice, y= 0.8007574317254395
 6
 ----------------------------------------------------------------------
 Symbolic Z-matrix:
 Charge =  0 Multiplicity = 1

                         Standard orientation:
 ---------------------------------------------------------------------
 Center     Atomic      Atomic             Coordinates (Angstroms)
 Number     Number       Type             X           Y           Z
 ---------------------------------------------------------------------
      1          1           0       -0.000000    0.721005    1.601515
      2          1           0       -0.000000    1.442010    0.800757
      3          1           0       -0.000000    0.000000    0.800757
      4          1           0       -0.000000    0.721005   -0.000000
      5          1           0        0.000000    0.000000   -0.800757
      6          1           0       -0.000000   -0.721005   -1.601515
      7          1           0       -0.000000   -0.721005    0.000000
      8          1           0       -0.000000   -1.442010   -0.800757
      9          1           0       -0.000000   -0.721005    1.601515
     10          1           0       -0.000000   -1.442010    0.800757
     11          1           0        0.000000    1.442010   -0.800757
     12          1           0        0.000000    0.721005   -1.601515
 ---------------------------------------------------------------------

 SCF Done:  E(RHF) =  -5.90686892150     A.U. after    8 cycles
 E2 =    -0.1391703820D+00 EUMP2 =    -0.60460393035195D+01

 The electronic state is 1-AG.
 Alpha  occ. eigenvalues --   -0.97133  -0.74576  -0.70521  -0.45038  -0.40756
 Alpha  occ. eigenvalues --   -0.32666
 Alpha virt. eigenvalues --    0.10246   0.12439   0.27922   0.42747   0.44096
 Alpha virt. eigenvalues --    0.83359

 Mulliken charges:
               1
     1  H    0.022807
     2  H   -0.035823
     3  H    0.004554
     4  H    0.021477
     5  H    0.004554
     6  H    0.022807
     7  H    0.021477
     8  H   -0.035823
     9  H    0.022807
    10  H   -0.035823
    11  H   -0.035823
    12  H    0.022807
 Sum of Mulliken charges =  -0.00000

 Dipole moment (field-independent basis, Debye):
    X=              0.0000    Y=              0.0000    Z=             -0.0000  Tot=              0.0000
 Quadrupole moment (field-independent basis, Debye-Ang):
   XX=            -15.2934   YY=            -20.3572   ZZ=            -17.5039
   XY=             -0.0000   XZ=              0.0000   YZ=             -0.0000

 Normal termination of Gaussian 09 at Sat Feb 18 11:49:54 2017.
