 Gaussian 09, Revision E.01,
 Gaussian 09:  ES64L-G09RevE.01 30-Nov-2015

 ----------------------------------------------------------------------
 #rhf/gen scf(symm,tight,novaracc,noincfock,fulldiag) stable(crhf) gues
 s=read geom=nocrowd test
 ----------------------------------------------------------------------

 hf stability analysis of h10 triangular lattice, y= 0.3503135618487248
 1
 ----------------------------------------------------------------------
 Symbolic Z-matrix:
 Charge =  0 Multiplicity = 1

                         Standard orientation:
 ---------------------------------------------------------------------
 Center     Atomic      Atomic             Coordinates (Angstroms)
 Number     Number       Type             X           Y           Z
 ---------------------------------------------------------------------
      1          1           0        0.000000    0.700627    1.648096
      2          1           0        0.000000    0.350314    3.296191
      3          1           0        0.000000    0.350314    0.000000
      4          1           0        0.000000    0.000000    1.648096
      5          1           0       -0.000000   -0.350314   -0.000000
      6          1           0       -0.000000   -0.700627   -1.648096
      7          1           0        0.000000    0.000000   -1.648096
      8          1           0       -0.000000   -0.350314   -3.296191
      9          1           0        0.000000    0.700627   -1.648096
     10          1           0        0.000000    0.350314   -3.296191
     11          1           0       -0.000000   -0.350314    3.296191
     12          1           0       -0.000000   -0.700627    1.648096
 ---------------------------------------------------------------------

 SCF Done:  E(RHF) =  -5.18914001702     A.U. after   11 cycles
 E2 =    -0.3115050942D+00 EUMP2 =    -0.55006451111870D+01

 The electronic state is 1-AG.
 Alpha  occ. eigenvalues --   -0.79972  -0.77848  -0.62753  -0.47563  -0.29530
 Alpha  occ. eigenvalues --   -0.26698
 Alpha virt. eigenvalues --   -0.44315   0.35856   0.38645   0.60934   0.91834
 Alpha virt. eigenvalues --    0.93692

 Mulliken charges:
               1
     1  H   -0.195317
     2  H    0.179354
     3  H   -0.045853
     4  H    0.077779
     5  H   -0.045853
     6  H   -0.195317
     7  H    0.077779
     8  H    0.179354
     9  H   -0.195317
    10  H    0.179354
    11  H    0.179354
    12  H   -0.195317
 Sum of Mulliken charges =  -0.00000

 Dipole moment (field-independent basis, Debye):
    X=              0.0000    Y=              0.0000    Z=              0.0000  Tot=              0.0000
 Quadrupole moment (field-independent basis, Debye-Ang):
   XX=            -15.2090   YY=            -20.8672   ZZ=             12.6445
   XY=             -0.0000   XZ=             -0.0000   YZ=              0.0000

 Normal termination of Gaussian 09 at Sat Feb 18 11:48:34 2017.
