 Gaussian 09, Revision E.01,
 Gaussian 09:  ES64L-G09RevE.01 30-Nov-2015

 ----------------------------------------------------------------------
 #rhf/gen scf(symm,tight,novaracc,noincfock,fulldiag) stable(crhf) gues
 s=read geom=nocrowd test
 ----------------------------------------------------------------------

 ----------------------------------------------------------------------
 hf stability analysis of h10 triangular lattice, y= 2.3437412473608381
 ----------------------------------------------------------------------
 Symbolic Z-matrix:
 Charge =  0 Multiplicity = 1

                         Standard orientation:
 ---------------------------------------------------------------------
 Center     Atomic      Atomic             Coordinates (Angstroms)
 Number     Number       Type             X           Y           Z
 ---------------------------------------------------------------------
      1          1           0        0.000000    0.246337    4.687482
      2          1           0        0.000000    0.492674    2.343741
      3          1           0        0.000000   -0.000000    2.343741
      4          1           0        0.000000    0.246337    0.000000
      5          1           0        0.000000    0.000000   -2.343741
      6          1           0       -0.000000   -0.246337   -4.687482
      7          1           0       -0.000000   -0.246337   -0.000000
      8          1           0       -0.000000   -0.492674   -2.343741
      9          1           0       -0.000000   -0.246337    4.687482
     10          1           0       -0.000000   -0.492674    2.343741
     11          1           0        0.000000    0.492674   -2.343741
     12          1           0        0.000000    0.246337   -4.687482
 ---------------------------------------------------------------------

 SCF Done:  E(RHF) =  -3.47128085185     A.U. after   11 cycles
 E2 =    -0.2577479581D+00 EUMP2 =    -0.37290288099584D+01

 The electronic state is 1-AG.
 Alpha  occ. eigenvalues --   -0.79596  -0.78853  -0.71157  -0.67112  -0.19062
 Alpha  occ. eigenvalues --   -0.18619
 Alpha virt. eigenvalues --   -0.61994   0.52086   0.52170   0.67531   1.53832
 Alpha virt. eigenvalues --    1.53909

 Mulliken charges:
               1
     1  H    0.149971
     2  H   -0.150161
     3  H    0.007652
     4  H   -0.007271
     5  H    0.007652
     6  H    0.149971
     7  H   -0.007271
     8  H   -0.150161
     9  H    0.149971
    10  H   -0.150161
    11  H   -0.150161
    12  H    0.149971
 Sum of Mulliken charges =   0.00000

 Dipole moment (field-independent basis, Debye):
    X=              0.0000    Y=             -0.0000    Z=             -0.0000  Tot=              0.0000
 Quadrupole moment (field-independent basis, Debye-Ang):
   XX=            -14.9697   YY=            -20.9313   ZZ=             33.0965
   XY=             -0.0000   XZ=             -0.0000   YZ=              0.0000

 Normal termination of Gaussian 09 at Sat Feb 18 11:51:12 2017.
