 Gaussian 09, Revision E.01,
 Gaussian 09:  ES64L-G09RevE.01 30-Nov-2015

 ----------------------------------------------------------------------
 #rhf/gen scf(symm,tight,novaracc,noincfock,fulldiag) stable(crhf) gues
 s=read geom=nocrowd test
 ----------------------------------------------------------------------

 hf stability analysis of h10 triangular lattice, y= 0.6716215332591580
 8
 ----------------------------------------------------------------------
 Symbolic Z-matrix:
 Charge =  0 Multiplicity = 1

                         Standard orientation:
 ---------------------------------------------------------------------
 Center     Atomic      Atomic             Coordinates (Angstroms)
 Number     Number       Type             X           Y           Z
 ---------------------------------------------------------------------
      1          1           0        0.000000    1.343243    0.859636
      2          1           0        0.000000    0.671622    1.719273
      3          1           0        0.000000    0.671622    0.000000
      4          1           0       -0.000000    0.000000    0.859636
      5          1           0       -0.000000   -0.671622    0.000000
      6          1           0       -0.000000   -1.343243   -0.859636
      7          1           0        0.000000    0.000000   -0.859636
      8          1           0       -0.000000   -0.671622   -1.719273
      9          1           0        0.000000    1.343243   -0.859636
     10          1           0        0.000000    0.671622   -1.719273
     11          1           0       -0.000000   -0.671622    1.719273
     12          1           0       -0.000000   -1.343243    0.859636
 ---------------------------------------------------------------------

 SCF Done:  E(RHF) =  -5.85716567550     A.U. after    8 cycles
 E2 =    -0.1426926632D+00 EUMP2 =    -0.59998583387374D+01

 The electronic state is 1-AG.
 Alpha  occ. eigenvalues --   -0.96653  -0.76674  -0.67209  -0.45304  -0.44495
 Alpha  occ. eigenvalues --   -0.26589
 Alpha virt. eigenvalues --    0.09830   0.14413   0.18914   0.43150   0.51882
 Alpha virt. eigenvalues --    0.74434

 Mulliken charges:
               1
     1  H   -0.079408
     2  H    0.057721
     3  H    0.039777
     4  H    0.003598
     5  H    0.039777
     6  H   -0.079408
     7  H    0.003598
     8  H    0.057721
     9  H   -0.079408
    10  H    0.057721
    11  H    0.057721
    12  H   -0.079408
 Sum of Mulliken charges =  -0.00000

 Dipole moment (field-independent basis, Debye):
    X=              0.0000    Y=             -0.0000    Z=             -0.0000  Tot=              0.0000
 Quadrupole moment (field-independent basis, Debye-Ang):
   XX=            -15.2887   YY=            -21.9963   ZZ=            -15.2959
   XY=             -0.0000   XZ=              0.0000   YZ=              0.0000

 Normal termination of Gaussian 09 at Sat Feb 18 11:49:32 2017.
