 Gaussian 09, Revision E.01,
 Gaussian 09:  ES64L-G09RevE.01 30-Nov-2015

 ----------------------------------------------------------------------
 #rhf/gen scf(symm,tight,novaracc,noincfock,fulldiag) stable(crhf) gues
 s=read geom=nocrowd test
 ----------------------------------------------------------------------

 ----------------------------------------------------------------------
 hf stability analysis of h10 triangular lattice, y= 1.4678899319530556
 ----------------------------------------------------------------------
 Symbolic Z-matrix:
 Charge =  0 Multiplicity = 1

                         Standard orientation:
 ---------------------------------------------------------------------
 Center     Atomic      Atomic             Coordinates (Angstroms)
 Number     Number       Type             X           Y           Z
 ---------------------------------------------------------------------
      1          1           0        0.000000    0.393320    2.935780
      2          1           0        0.000000    0.786640    1.467890
      3          1           0        0.000000   -0.000000    1.467890
      4          1           0        0.000000    0.393320    0.000000
      5          1           0        0.000000    0.000000   -1.467890
      6          1           0       -0.000000   -0.393320   -2.935780
      7          1           0       -0.000000   -0.393320   -0.000000
      8          1           0       -0.000000   -0.786640   -1.467890
      9          1           0       -0.000000   -0.393320    2.935780
     10          1           0       -0.000000   -0.786640    1.467890
     11          1           0        0.000000    0.786640   -1.467890
     12          1           0        0.000000    0.393320   -2.935780
 ---------------------------------------------------------------------

 SCF Done:  E(RHF) =  -5.45382178544     A.U. after   10 cycles
 E2 =    -0.8627160459D+00 EUMP2 =    -0.63165378313526D+01

 The electronic state is 1-AG.
 Alpha  occ. eigenvalues --   -0.81569  -0.78167  -0.60530  -0.37278  -0.34791
 Alpha  occ. eigenvalues --   -0.30441
 Alpha virt. eigenvalues --   -0.36533   0.31308   0.37345   0.61863   0.73134
 Alpha virt. eigenvalues --    0.76475

 Mulliken charges:
               1
     1  H    0.163719
     2  H   -0.167475
     3  H    0.074195
     4  H   -0.066683
     5  H    0.074195
     6  H    0.163719
     7  H   -0.066683
     8  H   -0.167475
     9  H    0.163719
    10  H   -0.167475
    11  H   -0.167475
    12  H    0.163719
 Sum of Mulliken charges =   0.00000

 Dipole moment (field-independent basis, Debye):
    X=              0.0000    Y=             -0.0000    Z=             -0.0000  Tot=              0.0000
 Quadrupole moment (field-independent basis, Debye-Ang):
   XX=            -15.1845   YY=            -20.4057   ZZ=              4.1564
   XY=             -0.0000   XZ=             -0.0000   YZ=              0.0000

 Normal termination of Gaussian 09 at Sat Feb 18 11:50:53 2017.
