 Gaussian 09, Revision E.01,
 Gaussian 09:  ES64L-G09RevE.01 30-Nov-2015

 ----------------------------------------------------------------------
 #rhf/gen scf(symm,tight,novaracc,noincfock,fulldiag) stable(crhf) gues
 s=read geom=nocrowd test
 ----------------------------------------------------------------------

 hf stability analysis of h10 triangular lattice, y= 0.6595943070875844
 9
 ----------------------------------------------------------------------
 Symbolic Z-matrix:
 Charge =  0 Multiplicity = 1

                         Standard orientation:
 ---------------------------------------------------------------------
 Center     Atomic      Atomic             Coordinates (Angstroms)
 Number     Number       Type             X           Y           Z
 ---------------------------------------------------------------------
      1          1           0        0.000000    1.319189    0.875311
      2          1           0        0.000000    0.659594    1.750622
      3          1           0        0.000000    0.659594    0.000000
      4          1           0        0.000000   -0.000000    0.875311
      5          1           0       -0.000000   -0.659594   -0.000000
      6          1           0       -0.000000   -1.319189   -0.875311
      7          1           0        0.000000    0.000000   -0.875311
      8          1           0       -0.000000   -0.659594   -1.750622
      9          1           0        0.000000    1.319189   -0.875311
     10          1           0        0.000000    0.659594   -1.750622
     11          1           0       -0.000000   -0.659594    1.750622
     12          1           0       -0.000000   -1.319189    0.875311
 ---------------------------------------------------------------------

 SCF Done:  E(RHF) =  -5.83782185358     A.U. after    8 cycles
 E2 =    -0.1440500535D+00 EUMP2 =    -0.59818719070468D+01

 The electronic state is 1-AG.
 Alpha  occ. eigenvalues --   -0.96475  -0.77125  -0.66303  -0.46385  -0.44290
 Alpha  occ. eigenvalues --   -0.24927
 Alpha virt. eigenvalues --    0.09859   0.14012   0.17787   0.42811   0.53913
 Alpha virt. eigenvalues --    0.71395

 Mulliken charges:
               1
     1  H   -0.091009
     2  H    0.065929
     3  H    0.044991
     4  H    0.005170
     5  H    0.044991
     6  H   -0.091009
     7  H    0.005170
     8  H    0.065929
     9  H   -0.091009
    10  H    0.065929
    11  H    0.065929
    12  H   -0.091009
 Sum of Mulliken charges =  -0.00000

 Dipole moment (field-independent basis, Debye):
    X=              0.0000    Y=              0.0000    Z=              0.0000  Tot=              0.0000
 Quadrupole moment (field-independent basis, Debye-Ang):
   XX=            -15.2868   YY=            -22.3779   ZZ=            -14.7008
   XY=             -0.0000   XZ=              0.0000   YZ=              0.0000

 Normal termination of Gaussian 09 at Sat Feb 18 11:49:30 2017.
