 Gaussian 09, Revision E.01,
 Gaussian 09:  ES64L-G09RevE.01 30-Nov-2015

 ----------------------------------------------------------------------
 #rhf/gen scf(symm,tight,novaracc,noincfock,fulldiag) stable(crhf) gues
 s=read geom=nocrowd test
 ----------------------------------------------------------------------

 hf stability analysis of h10 triangular lattice, y= 0.5773502789032680
 7
 ----------------------------------------------------------------------
 Symbolic Z-matrix:
 Charge =  0 Multiplicity = 1

                         Standard orientation:
 ---------------------------------------------------------------------
 Center     Atomic      Atomic             Coordinates (Angstroms)
 Number     Number       Type             X           Y           Z
 ---------------------------------------------------------------------
      1          1           0        0.000000    1.154701    1.000000
      2          1           0        0.000000    0.577350    2.000000
      3          1           0        0.000000    0.577350    0.000000
      4          1           0       -0.000000    0.000000    1.000000
      5          1           0       -0.000000   -0.577350    0.000000
      6          1           0       -0.000000   -1.154701   -1.000000
      7          1           0        0.000000   -0.000000   -1.000000
      8          1           0       -0.000000   -0.577350   -2.000000
      9          1           0        0.000000    1.154701   -1.000000
     10          1           0        0.000000    0.577350   -2.000000
     11          1           0       -0.000000   -0.577350    2.000000
     12          1           0       -0.000000   -1.154701    1.000000
 ---------------------------------------------------------------------

 SCF Done:  E(RHF) =  -5.60794344940     A.U. after   10 cycles
 E2 =    -0.1608790993D+00 EUMP2 =    -0.57688225487175D+01

 The electronic state is 1-AG.
 Alpha  occ. eigenvalues --   -0.94727  -0.79657  -0.59034  -0.53507  -0.42073
 Alpha  occ. eigenvalues --   -0.11589
 Alpha virt. eigenvalues --   -0.00674   0.11614   0.24489   0.39589   0.45843
 Alpha virt. eigenvalues --    0.63094

 Mulliken charges:
               1
     1  H   -0.190167
     2  H    0.117947
     3  H    0.086275
     4  H    0.058166
     5  H    0.086275
     6  H   -0.190167
     7  H    0.058166
     8  H    0.117947
     9  H   -0.190167
    10  H    0.117947
    11  H    0.117947
    12  H   -0.190167
 Sum of Mulliken charges =  -0.00000

 Dipole moment (field-independent basis, Debye):
    X=              0.0000    Y=             -0.0000    Z=             -0.0000  Tot=              0.0000
 Quadrupole moment (field-independent basis, Debye-Ang):
   XX=            -15.2611   YY=            -24.8649   ZZ=            -10.0125
   XY=             -0.0000   XZ=             -0.0000   YZ=             -0.0000

 Normal termination of Gaussian 09 at Sat Feb 18 11:49:14 2017.
