 Gaussian 09, Revision E.01,
 Gaussian 09:  ES64L-G09RevE.01 30-Nov-2015

 ----------------------------------------------------------------------
 #rhf/gen scf(symm,tight,novaracc,noincfock,fulldiag) stable(crhf) gues
 s=read geom=nocrowd test
 ----------------------------------------------------------------------

 ----------------------------------------------------------------------
 hf stability analysis of h10 triangular lattice, y= 1.9092530122354845
 ----------------------------------------------------------------------
 Symbolic Z-matrix:
 Charge =  0 Multiplicity = 1

                         Standard orientation:
 ---------------------------------------------------------------------
 Center     Atomic      Atomic             Coordinates (Angstroms)
 Number     Number       Type             X           Y           Z
 ---------------------------------------------------------------------
      1          1           0        0.000000    0.302396    3.818506
      2          1           0       -0.000000    0.604792    1.909253
      3          1           0        0.000000    0.000000    1.909253
      4          1           0       -0.000000    0.302396   -0.000000
      5          1           0        0.000000   -0.000000   -1.909253
      6          1           0       -0.000000   -0.302396   -3.818506
      7          1           0       -0.000000   -0.302396    0.000000
      8          1           0       -0.000000   -0.604792   -1.909253
      9          1           0       -0.000000   -0.302396    3.818506
     10          1           0       -0.000000   -0.604792    1.909253
     11          1           0        0.000000    0.604792   -1.909253
     12          1           0        0.000000    0.302396   -3.818506
 ---------------------------------------------------------------------

 SCF Done:  E(RHF) =  -4.63185767508     A.U. after   11 cycles
 E2 =    -0.2471594540D+00 EUMP2 =    -0.48790171290291D+01

 The electronic state is 1-AG.
 Alpha  occ. eigenvalues --   -0.78970  -0.77752  -0.65882  -0.57812  -0.24272
 Alpha  occ. eigenvalues --   -0.22801
 Alpha virt. eigenvalues --   -0.52618   0.42017   0.42807   0.62153   1.16514
 Alpha virt. eigenvalues --    1.17141

 Mulliken charges:
               1
     1  H    0.176309
     2  H   -0.202178
     3  H    0.076585
     4  H   -0.024848
     5  H    0.076585
     6  H    0.176309
     7  H   -0.024848
     8  H   -0.202178
     9  H    0.176309
    10  H   -0.202178
    11  H   -0.202178
    12  H    0.176309
 Sum of Mulliken charges =  -0.00000

 Dipole moment (field-independent basis, Debye):
    X=              0.0000    Y=              0.0000    Z=              0.0000  Tot=              0.0000
 Quadrupole moment (field-independent basis, Debye-Ang):
   XX=            -15.1536   YY=            -21.0603   ZZ=             22.2212
   XY=             -0.0000   XZ=             -0.0000   YZ=             -0.0000

 Normal termination of Gaussian 09 at Sat Feb 18 11:51:06 2017.
