 Gaussian 09, Revision E.01,
 Gaussian 09:  ES64L-G09RevE.01 30-Nov-2015

 ----------------------------------------------------------------------
 #rhf/gen scf(symm,tight,novaracc,noincfock,fulldiag) stable(crhf) gues
 s=read geom=nocrowd test
 ----------------------------------------------------------------------

 hf stability analysis of h10 triangular lattice, y= 0.2848531043101661
 9
 ----------------------------------------------------------------------
 Symbolic Z-matrix:
 Charge =  0 Multiplicity = 1

                         Standard orientation:
 ---------------------------------------------------------------------
 Center     Atomic      Atomic             Coordinates (Angstroms)
 Number     Number       Type             X           Y           Z
 ---------------------------------------------------------------------
      1          1           0        0.000000    0.569706    2.026835
      2          1           0        0.000000    0.284853    4.053670
      3          1           0        0.000000    0.284853    0.000000
      4          1           0        0.000000   -0.000000    2.026835
      5          1           0       -0.000000   -0.284853   -0.000000
      6          1           0       -0.000000   -0.569706   -2.026835
      7          1           0        0.000000    0.000000   -2.026835
      8          1           0       -0.000000   -0.284853   -4.053670
      9          1           0        0.000000    0.569706   -2.026835
     10          1           0        0.000000    0.284853   -4.053670
     11          1           0       -0.000000   -0.284853    4.053670
     12          1           0       -0.000000   -0.569706    2.026835
 ---------------------------------------------------------------------

 SCF Done:  E(RHF) =  -4.33937053689     A.U. after   10 cycles
 E2 =    -0.2421324507D+00 EUMP2 =    -0.45815029875687D+01

 The electronic state is 1-AG.
 Alpha  occ. eigenvalues --   -0.78920  -0.77909  -0.67280  -0.61157  -0.22602
 Alpha  occ. eigenvalues --   -0.21529
 Alpha virt. eigenvalues --   -0.55566   0.44812   0.45246   0.63291   1.26897
 Alpha virt. eigenvalues --    1.27214

 Mulliken charges:
               1
     1  H   -0.193818
     2  H    0.169253
     3  H   -0.018198
     4  H    0.067328
     5  H   -0.018198
     6  H   -0.193818
     7  H    0.067328
     8  H    0.169253
     9  H   -0.193818
    10  H    0.169253
    11  H    0.169253
    12  H   -0.193818
 Sum of Mulliken charges =   0.00000

 Dipole moment (field-independent basis, Debye):
    X=              0.0000    Y=             -0.0000    Z=              0.0000  Tot=              0.0000
 Quadrupole moment (field-independent basis, Debye-Ang):
   XX=            -15.1083   YY=            -21.0483   ZZ=             25.4074
   XY=             -0.0000   XZ=             -0.0000   YZ=              0.0000

 Normal termination of Gaussian 09 at Sat Feb 18 11:48:26 2017.
