 Gaussian 09, Revision E.01,
 Gaussian 09:  ES64L-G09RevE.01 30-Nov-2015

 ----------------------------------------------------------------------
 #rhf/gen scf(symm,tight,novaracc,noincfock,fulldiag) stable(crhf) gues
 s=read geom=nocrowd test
 ----------------------------------------------------------------------

 hf stability analysis of h10 triangular lattice, y= 0.3933198989211816
 9
 ----------------------------------------------------------------------
 Symbolic Z-matrix:
 Charge =  0 Multiplicity = 1

                         Standard orientation:
 ---------------------------------------------------------------------
 Center     Atomic      Atomic             Coordinates (Angstroms)
 Number     Number       Type             X           Y           Z
 ---------------------------------------------------------------------
      1          1           0        0.000000    0.786640    1.467890
      2          1           0        0.000000    0.393320    2.935780
      3          1           0        0.000000    0.393320   -0.000000
      4          1           0        0.000000    0.000000    1.467890
      5          1           0       -0.000000   -0.393320    0.000000
      6          1           0       -0.000000   -0.786640   -1.467890
      7          1           0        0.000000   -0.000000   -1.467890
      8          1           0       -0.000000   -0.393320   -2.935780
      9          1           0        0.000000    0.786640   -1.467890
     10          1           0        0.000000    0.393320   -2.935780
     11          1           0       -0.000000   -0.393320    2.935780
     12          1           0       -0.000000   -0.786640    1.467890
 ---------------------------------------------------------------------

 SCF Done:  E(RHF) =  -5.45382163155     A.U. after   11 cycles
 E2 =    -0.8627174398D+00 EUMP2 =    -0.63165390713480D+01

 The electronic state is 1-AG.
 Alpha  occ. eigenvalues --   -0.81569  -0.78167  -0.60530  -0.37278  -0.34791
 Alpha  occ. eigenvalues --   -0.30441
 Alpha virt. eigenvalues --   -0.36533   0.31308   0.37345   0.61863   0.73135
 Alpha virt. eigenvalues --    0.76475

 Mulliken charges:
               1
     1  H   -0.167475
     2  H    0.163719
     3  H   -0.066683
     4  H    0.074195
     5  H   -0.066683
     6  H   -0.167475
     7  H    0.074195
     8  H    0.163719
     9  H   -0.167475
    10  H    0.163719
    11  H    0.163719
    12  H   -0.167475
 Sum of Mulliken charges =  -0.00000

 Dipole moment (field-independent basis, Debye):
    X=              0.0000    Y=             -0.0000    Z=             -0.0000  Tot=              0.0000
 Quadrupole moment (field-independent basis, Debye-Ang):
   XX=            -15.1845   YY=            -20.4057   ZZ=              4.1564
   XY=             -0.0000   XZ=             -0.0000   YZ=              0.0000

 Normal termination of Gaussian 09 at Sat Feb 18 11:48:41 2017.
