 Gaussian 09, Revision E.01,
 Gaussian 09:  ES64L-G09RevE.01 30-Nov-2015

 ----------------------------------------------------------------------
 #rhf/gen scf(symm,tight,novaracc,noincfock,fulldiag) stable(crhf) gues
 s=read geom=nocrowd test
 ----------------------------------------------------------------------

 hf stability analysis of h10 triangular lattice, y= 0.9612250668035587
 9
 ----------------------------------------------------------------------
 Symbolic Z-matrix:
 Charge =  0 Multiplicity = 1

                         Standard orientation:
 ---------------------------------------------------------------------
 Center     Atomic      Atomic             Coordinates (Angstroms)
 Number     Number       Type             X           Y           Z
 ---------------------------------------------------------------------
      1          1           0        0.000000    0.600640    1.922450
      2          1           0        0.000000    1.201280    0.961225
      3          1           0        0.000000    0.000000    0.961225
      4          1           0       -0.000000    0.600640   -0.000000
      5          1           0        0.000000    0.000000   -0.961225
      6          1           0       -0.000000   -0.600640   -1.922450
      7          1           0       -0.000000   -0.600640   -0.000000
      8          1           0       -0.000000   -1.201280   -0.961225
      9          1           0       -0.000000   -0.600640    1.922450
     10          1           0       -0.000000   -1.201280    0.961225
     11          1           0        0.000000    1.201280   -0.961225
     12          1           0        0.000000    0.600640   -1.922450
 ---------------------------------------------------------------------

 SCF Done:  E(RHF) =  -5.69202260446     A.U. after    9 cycles
 E2 =    -0.1542642673D+00 EUMP2 =    -0.58462868718088D+01

 The electronic state is 1-AG.
 Alpha  occ. eigenvalues --   -0.95284  -0.79001  -0.61293  -0.51515  -0.42838
 Alpha  occ. eigenvalues --   -0.15691
 Alpha virt. eigenvalues --    0.03859   0.10819   0.21778   0.40636   0.53554
 Alpha virt. eigenvalues --    0.61550

 Mulliken charges:
               1
     1  H    0.103976
     2  H   -0.156545
     3  H    0.031242
     4  H    0.073897
     5  H    0.031242
     6  H    0.103976
     7  H    0.073897
     8  H   -0.156545
     9  H    0.103976
    10  H   -0.156545
    11  H   -0.156545
    12  H    0.103976
 Sum of Mulliken charges =   0.00000

 Dipole moment (field-independent basis, Debye):
    X=              0.0000    Y=             -0.0000    Z=              0.0000  Tot=              0.0000
 Quadrupole moment (field-independent basis, Debye-Ang):
   XX=            -15.2715   YY=            -24.1689   ZZ=            -11.4372
   XY=             -0.0000   XZ=             -0.0000   YZ=             -0.0000

 Normal termination of Gaussian 09 at Sat Feb 18 11:50:16 2017.
