 Gaussian 09, Revision E.01,
 Gaussian 09:  ES64L-G09RevE.01 30-Nov-2015

 ----------------------------------------------------------------------
 #t rhf/gen scf(tight,novaracc,noincfock) stable(crhf) guess=mix geom=n
 ocrowd test
 ----------------------------------------------------------------------

 scf stability calculation for a triangular configuration of 88888888 H
  atoms (made up of 8 iscosceles triangles)
 ----------------------------------------------------------------------
 Symbolic Z-matrix:
 Charge =  0 Multiplicity = 1

                         Standard orientation:
 ---------------------------------------------------------------------
 Center     Atomic      Atomic             Coordinates (Angstroms)
 Number     Number       Type             X           Y           Z
 ---------------------------------------------------------------------
      1          1           0        0.000000    0.000000    5.248250
      2          1           0        0.000000    0.192514    2.249250
      3          1           0       -0.000000   -0.192514    2.249250
      4          1           0        0.000000    0.000000   -0.749750
      5          1           0        0.000000    0.385028   -0.749750
      6          1           0       -0.000000   -0.385028   -0.749750
      7          1           0        0.000000    0.192514   -3.748750
      8          1           0       -0.000000   -0.192514   -3.748750
 ---------------------------------------------------------------------

 SCF Done:  E(RHF) =  -2.28495674147     A.U. after   11 cycles
 E2 =    -0.3027716786D+00 EUMP2 =    -0.25877284200753D+01

 Unable to determine electronic state:  an orbital has unidentified symmetry.
 Alpha  occ. eigenvalues --   -1.16224  -0.80026  -0.75708  -0.13082
 Alpha virt. eigenvalues --   -0.04316   0.70375   0.74663   1.85425

 Mulliken charges:
               1
     1  H   -0.370854
     2  H   -0.000741
     3  H   -0.000032
     4  H   -1.233763
     5  H    0.804164
     6  H    0.801594
     7  H   -0.000169
     8  H   -0.000199
 Sum of Mulliken charges =   0.00000

 Dipole moment (field-independent basis, Debye):
    X=             -0.0000    Y=              0.0041    Z=            -10.6900  Tot=             10.6900

 Test job not archived.
 1\1\GINC-SULU\Stability\RHF\Gen\H8\LCJ1\20-Jan-2017\0\\#t rhf/gen scf(
 tight,novaracc,noincfock) stable(crhf) guess=mix geom=nocrowd test\\sc
 f stability calculation for a triangular configuration of 88888888 H a
 toms (made up of 8 iscosceles triangles)\\0,1\H,0,0.,0.,2.999\H,0,0.19
 2514,0.,0.\H,0,-0.192514,0.,0.\H,0,0.,0.,-2.999\H,0,0.385028,0.,-2.999
 \H,0,-0.385028,0.,-2.999\H,0,0.192514,0.,-5.998\H,0,-0.192514,0.,-5.99
 8\\Version=ES64L-G09RevE.01\HF=-2.2849567\MP2=-2.5877284\RMSD=2.822e-0
 9\Dipole=0.0016233,0.,-4.2057708\Quadrupole=12.1780355,11.9260098,-24.

 Normal termination of Gaussian 09 at Fri Jan 20 17:57:15 2017.
