 Gaussian 09, Revision E.01,
 Gaussian 09:  ES64L-G09RevE.01 30-Nov-2015

 ----------------------------------------------------------------------
 #rhf/gen scf(symm,tight,novaracc,noincfock,fulldiag) stable(crhf) geom
 =nocrowd test
 ----------------------------------------------------------------------

 hf stability analysis of h10 triangular lattice, y= 0.3190649348779894
 3
 ----------------------------------------------------------------------
 Symbolic Z-matrix:
 Charge =  0 Multiplicity = 1

                         Standard orientation:
 ---------------------------------------------------------------------
 Center     Atomic      Atomic             Coordinates (Angstroms)
 Number     Number       Type             X           Y           Z
 ---------------------------------------------------------------------
      1          1           0        1.256870   -2.534512    0.000000
      2          1           0        1.256870   -4.371934    0.000000
      3          1           0        0.628435   -0.807901    0.000000
      4          1           0        0.628435   -2.645322    0.000000
      5          1           0        0.000000    0.918711    0.000000
      6          1           0       -0.000000   -0.918711    0.000000
      7          1           0       -0.628435    2.645322    0.000000
      8          1           0       -0.628435    0.807901    0.000000
      9          1           0       -1.256870    4.371934    0.000000
     10          1           0       -1.256870    2.534512    0.000000
 ---------------------------------------------------------------------

 SCF Done:  E(RHF) =  -4.89701542020     A.U. after    7 cycles
 E2 =    -0.6984321130D+00 EUMP2 =    -0.55954475332219D+01

 The electronic state is 1-AG.
 Alpha  occ. eigenvalues --   -0.73954  -0.70293  -0.64455  -0.57841  -0.18897
 Alpha virt. eigenvalues --   -0.12863   0.34472   0.42671   0.54918   0.66882

 Mulliken charges:
               1
     1  H    0.007291
     2  H   -0.019062
     3  H    0.000504
     4  H    0.008290
     5  H    0.002976
     6  H    0.002976
     7  H    0.008290
     8  H    0.000504
     9  H   -0.019062
    10  H    0.007291
 Sum of Mulliken charges =   0.00000

 Dipole moment (field-independent basis, Debye):
    X=              0.0000    Y=             -0.0000    Z=             -0.0000  Tot=              0.0000
 Quadrupole moment (field-independent basis, Debye-Ang):
   XX=            -12.3427   YY=            -19.4021   ZZ=            -13.1462
   XY=              2.0655   XZ=             -0.0000   YZ=             -0.0000

 Normal termination of Gaussian 09 at Thu Feb  9 15:19:45 2017.
