 Gaussian 09, Revision E.01,
 Gaussian 09:  ES64L-G09RevE.01 30-Nov-2015

 ----------------------------------------------------------------------
 #rhf/gen scf(symm,tight,novaracc,noincfock,fulldiag) stable(crhf) geom
 =nocrowd test
 ----------------------------------------------------------------------

 hf stability analysis of h10 triangular lattice, y= 0.6837609579800398
 9
 ----------------------------------------------------------------------
 Symbolic Z-matrix:
 Charge =  0 Multiplicity = 1

                         Standard orientation:
 ---------------------------------------------------------------------
 Center     Atomic      Atomic             Coordinates (Angstroms)
 Number     Number       Type             X           Y           Z
 ---------------------------------------------------------------------
      1          1           0        2.125528    0.091458    0.000000
      2          1           0        2.125528   -0.995048    0.000000
      3          1           0        1.062764    0.317356    0.000000
      4          1           0        1.062764   -0.769151    0.000000
      5          1           0       -0.000000    0.543253    0.000000
      6          1           0       -0.000000   -0.543253    0.000000
      7          1           0       -1.062764    0.769151    0.000000
      8          1           0       -1.062764   -0.317356    0.000000
      9          1           0       -2.125528    0.995048    0.000000
     10          1           0       -2.125528   -0.091458    0.000000
 ---------------------------------------------------------------------

 SCF Done:  E(RHF) =  -4.84890421817     A.U. after   10 cycles
 E2 =    -0.1146520793D+00 EUMP2 =    -0.49635562974414D+01

 The electronic state is 1-AG.
 Alpha  occ. eigenvalues --   -0.86143  -0.73742  -0.54501  -0.39902  -0.28966
 Alpha virt. eigenvalues --   -0.02958   0.21274   0.31807   0.52436   0.85308

 Mulliken charges:
               1
     1  H    0.095998
     2  H   -0.061253
     3  H   -0.084335
     4  H    0.043503
     5  H    0.006087
     6  H    0.006087
     7  H    0.043503
     8  H   -0.084335
     9  H   -0.061253
    10  H    0.095998
 Sum of Mulliken charges =   0.00000

 Dipole moment (field-independent basis, Debye):
    X=              0.0000    Y=              0.0000    Z=              0.0000  Tot=              0.0000
 Quadrupole moment (field-independent basis, Debye-Ang):
   XX=            -15.7007   YY=            -14.0302   ZZ=            -12.8301
   XY=              1.4823   XZ=              0.0000   YZ=              0.0000

 Normal termination of Gaussian 09 at Thu Feb  9 14:55:32 2017.
