 Gaussian 09, Revision E.01,
 Gaussian 09:  ES64L-G09RevE.01 30-Nov-2015

 ----------------------------------------------------------------------
 #rhf/gen scf(symm,tight,novaracc,noincfock,fulldiag) stable(crhf) geom
 =nocrowd test
 ----------------------------------------------------------------------

 hf stability analysis of h10 triangular lattice, y= 0.6595943070875844
 9
 ----------------------------------------------------------------------
 Symbolic Z-matrix:
 Charge =  0 Multiplicity = 1

                         Standard orientation:
 ---------------------------------------------------------------------
 Center     Atomic      Atomic             Coordinates (Angstroms)
 Number     Number       Type             X           Y           Z
 ---------------------------------------------------------------------
      1          1           0        2.107102   -0.056198    0.000000
      2          1           0        2.107102   -1.152206    0.000000
      3          1           0        1.053551    0.245903    0.000000
      4          1           0        1.053551   -0.850105    0.000000
      5          1           0        0.000000    0.548004    0.000000
      6          1           0       -0.000000   -0.548004    0.000000
      7          1           0       -1.053551    0.850105    0.000000
      8          1           0       -1.053551   -0.245903    0.000000
      9          1           0       -2.107102    1.152206    0.000000
     10          1           0       -2.107102    0.056198    0.000000
 ---------------------------------------------------------------------

 SCF Done:  E(RHF) =  -4.85500849116     A.U. after   11 cycles
 E2 =    -0.1136760624D+00 EUMP2 =    -0.49686845535181D+01

 The electronic state is 1-AG.
 Alpha  occ. eigenvalues --   -0.85923  -0.73863  -0.54616  -0.39086  -0.29310
 Alpha virt. eigenvalues --   -0.02615   0.21696   0.30151   0.52973   0.80354

 Mulliken charges:
               1
     1  H    0.115829
     2  H   -0.079581
     3  H   -0.097753
     4  H    0.063882
     5  H   -0.002378
     6  H   -0.002378
     7  H    0.063882
     8  H   -0.097753
     9  H   -0.079581
    10  H    0.115829
 Sum of Mulliken charges =  -0.00000

 Dipole moment (field-independent basis, Debye):
    X=              0.0000    Y=             -0.0000    Z=              0.0000  Tot=              0.0000
 Quadrupole moment (field-independent basis, Debye-Ang):
   XX=            -15.3501   YY=            -14.4648   ZZ=            -12.8566
   XY=              1.7468   XZ=              0.0000   YZ=             -0.0000

 Normal termination of Gaussian 09 at Thu Feb  9 14:57:05 2017.
