 Gaussian 09, Revision E.01,
 Gaussian 09:  ES64L-G09RevE.01 30-Nov-2015

 ----------------------------------------------------------------------
 #rhf/gen scf(symm,tight,novaracc,noincfock,fulldiag) stable(crhf) geom
 =nocrowd test
 ----------------------------------------------------------------------

 hf stability analysis of h10 triangular lattice, y= 0.4331194750473593
 1
 ----------------------------------------------------------------------
 Symbolic Z-matrix:
 Charge =  0 Multiplicity = 1

                         Standard orientation:
 ---------------------------------------------------------------------
 Center     Atomic      Atomic             Coordinates (Angstroms)
 Number     Number       Type             X           Y           Z
 ---------------------------------------------------------------------
      1          1           0        1.647684   -1.567041    0.000000
      2          1           0        1.647684   -2.968645    0.000000
      3          1           0        0.823842   -0.433119    0.000000
      4          1           0        0.823842   -1.834723    0.000000
      5          1           0        0.000000    0.700802    0.000000
      6          1           0       -0.000000   -0.700802    0.000000
      7          1           0       -0.823842    1.834723   -0.000000
      8          1           0       -0.823842    0.433119   -0.000000
      9          1           0       -1.647684    2.968645   -0.000000
     10          1           0       -1.647684    1.567041   -0.000000
 ---------------------------------------------------------------------

 SCF Done:  E(RHF) =  -4.76375652165     A.U. after   11 cycles
 E2 =    -0.2336808290D+00 EUMP2 =    -0.49974373506166D+01

 The electronic state is 1-AG.
 Alpha  occ. eigenvalues --   -0.82584  -0.73525  -0.59825  -0.42518  -0.11400
 Alpha virt. eigenvalues --    0.01343   0.09131   0.21513   0.39790   0.56298

 Mulliken charges:
               1
     1  H    0.049317
     2  H   -0.234424
     3  H    0.034183
     4  H    0.109823
     5  H    0.041102
     6  H    0.041102
     7  H    0.109823
     8  H    0.034183
     9  H   -0.234424
    10  H    0.049317
 Sum of Mulliken charges =   0.00000

 Dipole moment (field-independent basis, Debye):
    X=             -0.0000    Y=             -0.0000    Z=              0.0000  Tot=              0.0000
 Quadrupole moment (field-independent basis, Debye-Ang):
   XX=            -16.8470   YY=            -32.0232   ZZ=            -12.8006
   XY=             11.4045   XZ=             -0.0000   YZ=              0.0000

 Normal termination of Gaussian 09 at Thu Feb  9 15:12:56 2017.
