 Gaussian 09, Revision E.01,
 Gaussian 09:  ES64L-G09RevE.01 30-Nov-2015

 ----------------------------------------------------------------------
 #rhf/gen scf(symm,tight,novaracc,noincfock,fulldiag) stable(crhf) gues
 s=read geom=nocrowd test
 ----------------------------------------------------------------------

 hf stability analysis of h10 triangular lattice, y= 0.6742820632083509
 3
 ----------------------------------------------------------------------
 Symbolic Z-matrix:
 Charge =  0 Multiplicity = 1

                         Standard orientation:
 ---------------------------------------------------------------------
 Center     Atomic      Atomic             Coordinates (Angstroms)
 Number     Number       Type             X           Y           Z
 ---------------------------------------------------------------------
      1          1           0        2.118974    0.033865    0.000000
      2          1           0        2.118974   -1.056002    0.000000
      3          1           0        1.059487    0.289400    0.000000
      4          1           0        1.059487   -0.800468    0.000000
      5          1           0        0.000000    0.544934    0.000000
      6          1           0       -0.000000   -0.544934    0.000000
      7          1           0       -1.059487    0.800468   -0.000000
      8          1           0       -1.059487   -0.289400    0.000000
      9          1           0       -2.118974    1.056002   -0.000000
     10          1           0       -2.118974   -0.033865    0.000000
 ---------------------------------------------------------------------

 SCF Done:  E(RHF) =  -4.85121275716     A.U. after    6 cycles
 E2 =    -0.1142665642D+00 EUMP2 =    -0.49654793213995D+01

 The electronic state is 1-AG.
 Alpha  occ. eigenvalues --   -0.86068  -0.73789  -0.54543  -0.39615  -0.29091
 Alpha virt. eigenvalues --   -0.02840   0.21425   0.31208   0.52629   0.83497

 Mulliken charges:
               1
     1  H    0.104247
     2  H   -0.069060
     3  H   -0.089949
     4  H    0.051774
     5  H    0.002989
     6  H    0.002989
     7  H    0.051774
     8  H   -0.089949
     9  H   -0.069060
    10  H    0.104247
 Sum of Mulliken charges =  -0.00000

 Dipole moment (field-independent basis, Debye):
    X=              0.0000    Y=              0.0000    Z=              0.0000  Tot=              0.0000
 Quadrupole moment (field-independent basis, Debye-Ang):
   XX=            -15.5750   YY=            -14.1941   ZZ=            -12.8397
   XY=              1.6051   XZ=             -0.0000   YZ=              0.0000

 Normal termination of Gaussian 09 at Tue Feb 21 11:54:11 2017.
