 Gaussian 09, Revision E.01,
 Gaussian 09:  ES64L-G09RevE.01 30-Nov-2015

 ----------------------------------------------------------------------
 #rhf/gen scf(symm,tight,novaracc,noincfock,fulldiag) stable(crhf) gues
 s=read geom=nocrowd test
 ----------------------------------------------------------------------

 hf stability analysis of h10 triangular lattice, y= 0.6742699573710032
 6
 ----------------------------------------------------------------------
 Symbolic Z-matrix:
 Charge =  0 Multiplicity = 1

                         Standard orientation:
 ---------------------------------------------------------------------
 Center     Atomic      Atomic             Coordinates (Angstroms)
 Number     Number       Type             X           Y           Z
 ---------------------------------------------------------------------
      1          1           0        2.118966    0.033792   -0.000000
      2          1           0        2.118966   -1.056080   -0.000000
      3          1           0        1.059483    0.289364   -0.000000
      4          1           0        1.059483   -0.800508   -0.000000
      5          1           0       -0.000000    0.544936    0.000000
      6          1           0       -0.000000   -0.544936    0.000000
      7          1           0       -1.059483    0.800508    0.000000
      8          1           0       -1.059483   -0.289364    0.000000
      9          1           0       -2.118966    1.056080    0.000000
     10          1           0       -2.118966   -0.033792    0.000000
 ---------------------------------------------------------------------

 SCF Done:  E(RHF) =  -4.85121579537     A.U. after    6 cycles
 E2 =    -0.1142660693D+00 EUMP2 =    -0.49654818646178D+01

 The electronic state is 1-AG.
 Alpha  occ. eigenvalues --   -0.86068  -0.73789  -0.54543  -0.39615  -0.29091
 Alpha virt. eigenvalues --   -0.02840   0.21425   0.31207   0.52629   0.83494

 Mulliken charges:
               1
     1  H    0.104257
     2  H   -0.069070
     3  H   -0.089956
     4  H    0.051784
     5  H    0.002985
     6  H    0.002985
     7  H    0.051784
     8  H   -0.089956
     9  H   -0.069070
    10  H    0.104257
 Sum of Mulliken charges =   0.00000

 Dipole moment (field-independent basis, Debye):
    X=              0.0000    Y=             -0.0000    Z=              0.0000  Tot=              0.0000
 Quadrupole moment (field-independent basis, Debye-Ang):
   XX=            -15.5748   YY=            -14.1943   ZZ=            -12.8397
   XY=              1.6053   XZ=              0.0000   YZ=             -0.0000

 Normal termination of Gaussian 09 at Tue Feb 21 11:54:09 2017.
