 Gaussian 09, Revision E.01,
 Gaussian 09:  ES64L-G09RevE.01 30-Nov-2015

 ----------------------------------------------------------------------
 #rhf/gen scf(symm,tight,novaracc,noincfock,fulldiag) stable(crhf) gues
 s=read geom=nocrowd test
 ----------------------------------------------------------------------

 hf stability analysis of h10 triangular lattice, y= 0.6620274703982858
 0
 ----------------------------------------------------------------------
 Symbolic Z-matrix:
 Charge =  0 Multiplicity = 1

                         Standard orientation:
 ---------------------------------------------------------------------
 Center     Atomic      Atomic             Coordinates (Angstroms)
 Number     Number       Type             X           Y           Z
 ---------------------------------------------------------------------
      1          1           0        2.109215   -0.041210   -0.000000
      2          1           0        2.109215   -1.136120    0.000000
      3          1           0        1.054607    0.253123   -0.000000
      4          1           0        1.054607   -0.841788    0.000000
      5          1           0        0.000000    0.547455   -0.000000
      6          1           0       -0.000000   -0.547455    0.000000
      7          1           0       -1.054607    0.841788   -0.000000
      8          1           0       -1.054607   -0.253123   -0.000000
      9          1           0       -2.109215    1.136120   -0.000000
     10          1           0       -2.109215    0.041210   -0.000000
 ---------------------------------------------------------------------

 SCF Done:  E(RHF) =  -4.85436904828     A.U. after    6 cycles
 E2 =    -0.1137714040D+00 EUMP2 =    -0.49681404522977D+01

 The electronic state is 1-AG.
 Alpha  occ. eigenvalues --   -0.85950  -0.73851  -0.54604  -0.39181  -0.29271
 Alpha virt. eigenvalues --   -0.02656   0.21648   0.30337   0.52912   0.80900

 Mulliken charges:
               1
     1  H    0.114019
     2  H   -0.077982
     3  H   -0.096537
     4  H    0.061944
     5  H   -0.001444
     6  H   -0.001444
     7  H    0.061944
     8  H   -0.096537
     9  H   -0.077982
    10  H    0.114019
 Sum of Mulliken charges =  -0.00000

 Dipole moment (field-independent basis, Debye):
    X=              0.0000    Y=              0.0000    Z=             -0.0000  Tot=              0.0000
 Quadrupole moment (field-independent basis, Debye-Ang):
   XX=            -15.3898   YY=            -14.4191   ZZ=            -12.8536
   XY=              1.7278   XZ=             -0.0000   YZ=              0.0000

 Normal termination of Gaussian 09 at Tue Feb 21 11:31:18 2017.
