 Gaussian 09, Revision E.01,
 Gaussian 09:  ES64L-G09RevE.01 30-Nov-2015

 ----------------------------------------------------------------------
 #rhf/gen scf(symm,tight,novaracc,noincfock,fulldiag) stable(crhf) gues
 s=read geom=nocrowd test
 ----------------------------------------------------------------------

 hf stability analysis of h10 triangular lattice, y= 0.6620154743204281
 8
 ----------------------------------------------------------------------
 Symbolic Z-matrix:
 Charge =  0 Multiplicity = 1

                         Standard orientation:
 ---------------------------------------------------------------------
 Center     Atomic      Atomic             Coordinates (Angstroms)
 Number     Number       Type             X           Y           Z
 ---------------------------------------------------------------------
      1          1           0        2.109205   -0.041284   -0.000000
      2          1           0        2.109205   -1.136200   -0.000000
      3          1           0        1.054602    0.253087   -0.000000
      4          1           0        1.054602   -0.841829   -0.000000
      5          1           0       -0.000000    0.547458    0.000000
      6          1           0       -0.000000   -0.547458    0.000000
      7          1           0       -1.054602    0.841829   -0.000000
      8          1           0       -1.054602   -0.253087   -0.000000
      9          1           0       -2.109205    1.136200   -0.000000
     10          1           0       -2.109205    0.041284   -0.000000
 ---------------------------------------------------------------------

 SCF Done:  E(RHF) =  -4.85437219512     A.U. after    6 cycles
 E2 =    -0.1137709305D+00 EUMP2 =    -0.49681431255851D+01

 The electronic state is 1-AG.
 Alpha  occ. eigenvalues --   -0.85950  -0.73851  -0.54604  -0.39181  -0.29271
 Alpha virt. eigenvalues --   -0.02656   0.21648   0.30336   0.52912   0.80898

 Mulliken charges:
               1
     1  H    0.114028
     2  H   -0.077990
     3  H   -0.096543
     4  H    0.061954
     5  H   -0.001449
     6  H   -0.001449
     7  H    0.061954
     8  H   -0.096543
     9  H   -0.077990
    10  H    0.114028
 Sum of Mulliken charges =  -0.00000

 Dipole moment (field-independent basis, Debye):
    X=              0.0000    Y=              0.0000    Z=             -0.0000  Tot=              0.0000
 Quadrupole moment (field-independent basis, Debye-Ang):
   XX=            -15.3896   YY=            -14.4193   ZZ=            -12.8536
   XY=              1.7279   XZ=              0.0000   YZ=             -0.0000

 Normal termination of Gaussian 09 at Tue Feb 21 11:31:16 2017.
