 Gaussian 09, Revision E.01,
 Gaussian 09:  ES64L-G09RevE.01 30-Nov-2015

 ----------------------------------------------------------------------
 #rhf/gen scf(symm,tight,novaracc,noincfock,fulldiag) stable(crhf) gues
 s=read geom=nocrowd test
 ----------------------------------------------------------------------

 ----------------------------------------------------------------------
 hf stability analysis of h10 triangular lattice, y= 1.2628640905174759
 ----------------------------------------------------------------------
 Symbolic Z-matrix:
 Charge =  0 Multiplicity = 1

                         Standard orientation:
 ---------------------------------------------------------------------
 Center     Atomic      Atomic             Coordinates (Angstroms)
 Number     Number       Type             X           Y           Z
 ---------------------------------------------------------------------
      1          1           0        1.719495    2.735191    0.000000
      2          1           0        1.719495    1.392121    0.000000
      3          1           0        0.859748    1.703363    0.000000
      4          1           0        0.859748    0.360293    0.000000
      5          1           0        0.000000    0.671535    0.000000
      6          1           0       -0.000000   -0.671535    0.000000
      7          1           0       -0.859748   -0.360293    0.000000
      8          1           0       -0.859748   -1.703363    0.000000
      9          1           0       -1.719495   -1.392121    0.000000
     10          1           0       -1.719495   -2.735191    0.000000
 ---------------------------------------------------------------------

 SCF Done:  E(RHF) =  -4.73427074225     A.U. after    7 cycles
 E2 =    -0.1351550250D+00 EUMP2 =    -0.48694257672217D+01

 The electronic state is 1-AG.
 Alpha  occ. eigenvalues --   -0.77510  -0.71722  -0.55082  -0.34606  -0.16476
 Alpha virt. eigenvalues --    0.00654   0.15589   0.15882   0.40275   0.64020

 Mulliken charges:
               1
     1  H    0.062899
     2  H    0.029246
     3  H    0.123323
     4  H   -0.058586
     5  H   -0.156882
     6  H   -0.156882
     7  H   -0.058586
     8  H    0.123323
     9  H    0.029246
    10  H    0.062899
 Sum of Mulliken charges =  -0.00000

 Dipole moment (field-independent basis, Debye):
    X=              0.0000    Y=              0.0000    Z=              0.0000  Tot=              0.0000
 Quadrupole moment (field-independent basis, Debye-Ang):
   XX=            -11.6306   YY=             -6.9431   ZZ=            -13.1892
   XY=              5.2852   XZ=             -0.0000   YZ=             -0.0000

 Normal termination of Gaussian 09 at Tue Feb 21 12:49:21 2017.
