 Gaussian 09, Revision E.01,
 Gaussian 09:  ES64L-G09RevE.01 30-Nov-2015

 ----------------------------------------------------------------------
 #rhf/gen scf(symm,tight,novaracc,noincfock,fulldiag) stable(crhf) gues
 s=read geom=nocrowd test
 ----------------------------------------------------------------------

 hf stability analysis of h10 triangular lattice, y= 0.8753112166669652
 1
 ----------------------------------------------------------------------
 Symbolic Z-matrix:
 Charge =  0 Multiplicity = 1

                         Standard orientation:
 ---------------------------------------------------------------------
 Center     Atomic      Atomic             Coordinates (Angstroms)
 Number     Number       Type             X           Y           Z
 ---------------------------------------------------------------------
      1          1           0        2.107102    1.152206   -0.000000
      2          1           0        2.107102    0.056198   -0.000000
      3          1           0        1.053551    0.850105   -0.000000
      4          1           0        1.053551   -0.245903   -0.000000
      5          1           0        0.000000    0.548004    0.000000
      6          1           0       -0.000000   -0.548004    0.000000
      7          1           0       -1.053551    0.245903   -0.000000
      8          1           0       -1.053551   -0.850105   -0.000000
      9          1           0       -2.107102   -0.056198   -0.000000
     10          1           0       -2.107102   -1.152206   -0.000000
 ---------------------------------------------------------------------

 SCF Done:  E(RHF) =  -4.85500850284     A.U. after    6 cycles
 E2 =    -0.1136760636D+00 EUMP2 =    -0.49686845664066D+01

 The electronic state is 1-AG.
 Alpha  occ. eigenvalues --   -0.85923  -0.73863  -0.54616  -0.39086  -0.29310
 Alpha virt. eigenvalues --   -0.02615   0.21696   0.30151   0.52973   0.80354

 Mulliken charges:
               1
     1  H   -0.079581
     2  H    0.115829
     3  H    0.063882
     4  H   -0.097753
     5  H   -0.002378
     6  H   -0.002378
     7  H   -0.097753
     8  H    0.063882
     9  H    0.115829
    10  H   -0.079581
 Sum of Mulliken charges =  -0.00000

 Dipole moment (field-independent basis, Debye):
    X=              0.0000    Y=             -0.0000    Z=             -0.0000  Tot=              0.0000
 Quadrupole moment (field-independent basis, Debye-Ang):
   XX=            -15.3501   YY=            -14.4648   ZZ=            -12.8566
   XY=             -1.7468   XZ=              0.0000   YZ=              0.0000

 Normal termination of Gaussian 09 at Mon Feb 20 19:36:05 2017.
