 Gaussian 09, Revision E.01,
 Gaussian 09:  ES64L-G09RevE.01 30-Nov-2015

 ----------------------------------------------------------------------
 #rhf/gen scf(symm,tight,novaracc,noincfock,fulldiag) stable(crhf) gues
 s=read geom=nocrowd test
 ----------------------------------------------------------------------

 ----------------------------------------------------------------------
 hf stability analysis of h10 triangular lattice, y= 1.3223122386105854
 ----------------------------------------------------------------------
 Symbolic Z-matrix:
 Charge =  0 Multiplicity = 1

                         Standard orientation:
 ---------------------------------------------------------------------
 Center     Atomic      Atomic             Coordinates (Angstroms)
 Number     Number       Type             X           Y           Z
 ---------------------------------------------------------------------
      1          1           0        1.658418    2.933730    0.000000
      2          1           0        1.658418    1.541197    0.000000
      3          1           0        0.829209    1.814998    0.000000
      4          1           0        0.829209    0.422465    0.000000
      5          1           0       -0.000000    0.696267    0.000000
      6          1           0       -0.000000   -0.696267    0.000000
      7          1           0       -0.829209   -0.422465    0.000000
      8          1           0       -0.829209   -1.814998    0.000000
      9          1           0       -1.658418   -1.541197    0.000000
     10          1           0       -1.658418   -2.933730    0.000000
 ---------------------------------------------------------------------

 SCF Done:  E(RHF) =  -4.70036408078     A.U. after    7 cycles
 E2 =    -0.2243991622D+00 EUMP2 =    -0.49247632429802D+01

 The electronic state is 1-AG.
 Alpha  occ. eigenvalues --   -0.76334  -0.70542  -0.56004  -0.37891  -0.11263
 Alpha virt. eigenvalues --   -0.02970   0.12981   0.22116   0.42373   0.63778

 Mulliken charges:
               1
     1  H    0.021946
     2  H   -0.087427
     3  H    0.184899
     4  H    0.074920
     5  H   -0.194337
     6  H   -0.194337
     7  H    0.074920
     8  H    0.184899
     9  H   -0.087427
    10  H    0.021946
 Sum of Mulliken charges =  -0.00000

 Dipole moment (field-independent basis, Debye):
    X=             -0.0000    Y=             -0.0000    Z=              0.0000  Tot=              0.0000
 Quadrupole moment (field-independent basis, Debye-Ang):
   XX=            -13.5882   YY=            -11.2266   ZZ=            -12.8900
   XY=              0.2270   XZ=             -0.0000   YZ=             -0.0000

 Normal termination of Gaussian 09 at Tue Feb 21 13:05:58 2017.
