 Gaussian 09, Revision E.01,
 Gaussian 09:  ES64L-G09RevE.01 30-Nov-2015

 ----------------------------------------------------------------------
 #rhf/gen scf(symm,tight,novaracc,noincfock,fulldiag) stable(crhf) gues
 s=read geom=nocrowd test
 ----------------------------------------------------------------------

 hf stability analysis of h10 triangular lattice, y= 0.4366345684642185
 0
 ----------------------------------------------------------------------
 Symbolic Z-matrix:
 Charge =  0 Multiplicity = 1

                         Standard orientation:
 ---------------------------------------------------------------------
 Center     Atomic      Atomic             Coordinates (Angstroms)
 Number     Number       Type             X           Y           Z
 ---------------------------------------------------------------------
      1          1           0        1.658457   -1.541103    0.000000
      2          1           0        1.658457   -2.933603    0.000000
      3          1           0        0.829228   -0.422426    0.000000
      4          1           0        0.829228   -1.814927    0.000000
      5          1           0        0.000000    0.696250   -0.000000
      6          1           0       -0.000000   -0.696250   -0.000000
      7          1           0       -0.829228    1.814927    0.000000
      8          1           0       -0.829228    0.422426   -0.000000
      9          1           0       -1.658457    2.933603    0.000000
     10          1           0       -1.658457    1.541103    0.000000
 ---------------------------------------------------------------------

 SCF Done:  E(RHF) =  -4.70035135280     A.U. after    7 cycles
 E2 =    -0.2241645091D+00 EUMP2 =    -0.49245158619213D+01

 The electronic state is 1-AG.
 Alpha  occ. eigenvalues --   -0.76333  -0.70542  -0.56002  -0.37886  -0.11266
 Alpha virt. eigenvalues --   -0.02968   0.12980   0.22111   0.42371   0.63781

 Mulliken charges:
               1
     1  H   -0.087448
     2  H    0.022086
     3  H    0.074904
     4  H    0.184936
     5  H   -0.194478
     6  H   -0.194478
     7  H    0.184936
     8  H    0.074904
     9  H    0.022086
    10  H   -0.087448
 Sum of Mulliken charges =   0.00000

 Dipole moment (field-independent basis, Debye):
    X=              0.0000    Y=              0.0000    Z=              0.0000  Tot=              0.0000
 Quadrupole moment (field-independent basis, Debye-Ang):
   XX=            -13.5864   YY=            -11.2132   ZZ=            -12.8904
   XY=             -0.2362   XZ=             -0.0000   YZ=              0.0000

 Normal termination of Gaussian 09 at Tue Feb 21 10:58:29 2017.
