 Gaussian 09, Revision E.01,
 Gaussian 09:  ES64L-G09RevE.01 30-Nov-2015

 ----------------------------------------------------------------------
 #rhf/gen scf(symm,tight,novaracc,noincfock,fulldiag) stable(crhf) gues
 s=read geom=nocrowd test
 ----------------------------------------------------------------------

 ----------------------------------------------------------------------
 hf stability analysis of h10 triangular lattice, y= 1.3330047374615932
 ----------------------------------------------------------------------
 Symbolic Z-matrix:
 Charge =  0 Multiplicity = 1

                         Standard orientation:
 ---------------------------------------------------------------------
 Center     Atomic      Atomic             Coordinates (Angstroms)
 Number     Number       Type             X           Y           Z
 ---------------------------------------------------------------------
      1          1           0        1.647684    2.968645    0.000000
      2          1           0        1.647684    1.567041   -0.000000
      3          1           0        0.823842    1.834724    0.000000
      4          1           0        0.823842    0.433119   -0.000000
      5          1           0        0.000000    0.700802    0.000000
      6          1           0       -0.000000   -0.700802   -0.000000
      7          1           0       -0.823842   -0.433119   -0.000000
      8          1           0       -0.823842   -1.834724   -0.000000
      9          1           0       -1.647684   -1.567041   -0.000000
     10          1           0       -1.647684   -2.968645   -0.000000
 ---------------------------------------------------------------------

 SCF Done:  E(RHF) =  -4.70593997625     A.U. after    7 cycles
 E2 =    -0.2907077262D+00 EUMP2 =    -0.49966477024564D+01

 The electronic state is 1-AG.
 Alpha  occ. eigenvalues --   -0.76596  -0.70460  -0.56580  -0.39074  -0.10771
 Alpha virt. eigenvalues --   -0.03428   0.13248   0.23354   0.42714   0.63072

 Mulliken charges:
               1
     1  H   -0.012637
     2  H   -0.075343
     3  H    0.169901
     4  H    0.072164
     5  H   -0.154085
     6  H   -0.154085
     7  H    0.072164
     8  H    0.169901
     9  H   -0.075343
    10  H   -0.012637
 Sum of Mulliken charges =  -0.00000

 Dipole moment (field-independent basis, Debye):
    X=             -0.0000    Y=             -0.0000    Z=             -0.0000  Tot=              0.0000
 Quadrupole moment (field-independent basis, Debye-Ang):
   XX=            -13.9403   YY=            -14.5441   ZZ=            -12.7999
   XY=             -1.9143   XZ=             -0.0000   YZ=             -0.0000

 Normal termination of Gaussian 09 at Mon Feb 20 20:11:45 2017.
