 Gaussian 09, Revision E.01,
 Gaussian 09:  ES64L-G09RevE.01 30-Nov-2015

 ----------------------------------------------------------------------
 #rhf/gen scf(tight,novaracc,noincfock,fulldiag) stable(crhf) guess=rea
 d geom=nocrowd test
 ----------------------------------------------------------------------

 hf stability analysis of h10 triangular lattice, y= 0.8294933944434413
 9
 ----------------------------------------------------------------------
 Symbolic Z-matrix:
 Charge =  0 Multiplicity = 1

                         Standard orientation:
 ---------------------------------------------------------------------
 Center     Atomic      Atomic             Coordinates (Angstroms)
 Number     Number       Type             X           Y           Z
 ---------------------------------------------------------------------
      1          1           0        2.132752    0.917475    0.000000
      2          1           0        2.132752   -0.165352   -0.000000
      3          1           0        1.066376    0.729444    0.000000
      4          1           0        1.066376   -0.353382   -0.000000
      5          1           0        0.000000    0.541413    0.000000
      6          1           0       -0.000000   -0.541413    0.000000
      7          1           0       -1.066376    0.353382    0.000000
      8          1           0       -1.066376   -0.729444    0.000000
      9          1           0       -2.132752    0.165352    0.000000
     10          1           0       -2.132752   -0.917475    0.000000
 ---------------------------------------------------------------------

 SCF Done:  E(RHF) =  -4.83374037003     A.U. after   15 cycles
 E2 =    -0.9483522695D-01 EUMP2 =    -0.49285755969750D+01

 Unable to determine electronic state:  partially filled degenerate orbitals.
 Alpha  occ. eigenvalues --   -0.86676  -0.73914  -0.53820  -0.42193  -0.27206
 Alpha virt. eigenvalues --   -0.04931   0.19411   0.33393   0.52107   0.86911

 Mulliken charges:
               1
     1  H   -0.266660
     2  H    0.306712
     3  H    0.255370
     4  H   -0.323957
     5  H   -0.108402
     6  H    0.108021
     7  H    0.215313
     8  H   -0.257759
     9  H   -0.173296
    10  H    0.244658
 Sum of Mulliken charges =  -0.00000

 Dipole moment (field-independent basis, Debye):
    X=             -0.4546    Y=             -0.4842    Z=             -0.0000  Tot=              0.6642
 Quadrupole moment (field-independent basis, Debye-Ang):
   XX=            -13.6198   YY=            -15.0708   ZZ=            -12.8686
   XY=             -0.4185   XZ=             -0.0000   YZ=             -0.0000

 Normal termination of Gaussian 09 at Tue Feb 14 13:27:23 2017.
