 Gaussian 09, Revision E.01,
 Gaussian 09:  ES64L-G09RevE.01 30-Nov-2015

 ----------------------------------------------------------------------
 #rhf/gen scf(tight,novaracc,noincfock,fulldiag) stable(crhf) guess=rea
 d geom=nocrowd test
 ----------------------------------------------------------------------

 hf stability analysis of h10 triangular lattice, y= 0.3350007865764852
 4
 ----------------------------------------------------------------------
 Symbolic Z-matrix:
 Charge =  0 Multiplicity = 1

                         Standard orientation:
 ---------------------------------------------------------------------
 Center     Atomic      Atomic             Coordinates (Angstroms)
 Number     Number       Type             X           Y           Z
 ---------------------------------------------------------------------
      1          1           0        1.315383   -2.377845   -0.000000
      2          1           0        1.315383   -4.133532   -0.000000
      3          1           0        0.657692   -0.750001   -0.000000
      4          1           0        0.657692   -2.505687   -0.000000
      5          1           0        0.000000    0.877843    0.000000
      6          1           0       -0.000000   -0.877843    0.000000
      7          1           0       -0.657692    2.505687    0.000000
      8          1           0       -0.657692    0.750001    0.000000
      9          1           0       -1.315383    4.133532    0.000000
     10          1           0       -1.315383    2.377845    0.000000
 ---------------------------------------------------------------------

 SCF Done:  E(RHF) =  -4.91781964244     A.U. after    7 cycles
 E2 =    -0.6341557768D+00 EUMP2 =    -0.55519754192423D+01

 The electronic state is 1-AG.
 Alpha  occ. eigenvalues --   -0.74557  -0.70285  -0.63400  -0.55326  -0.18134
 Alpha virt. eigenvalues --   -0.11635   0.30659   0.39501   0.52803   0.65896

 Mulliken charges:
               1
     1  H    0.011375
     2  H   -0.033165
     3  H    0.001744
     4  H    0.014748
     5  H    0.005298
     6  H    0.005298
     7  H    0.014748
     8  H    0.001744
     9  H   -0.033165
    10  H    0.011375
 Sum of Mulliken charges =   0.00000

 Dipole moment (field-independent basis, Debye):
    X=             -0.0000    Y=              0.0000    Z=             -0.0000  Tot=              0.0000
 Quadrupole moment (field-independent basis, Debye-Ang):
   XX=            -12.4568   YY=            -21.0531   ZZ=            -13.0782
   XY=              2.8541   XZ=             -0.0000   YZ=             -0.0000

 Normal termination of Gaussian 09 at Tue Feb 14 13:26:43 2017.
