 Gaussian 09, Revision E.01,
 Gaussian 09:  ES64L-G09RevE.01 30-Nov-2015

 ----------------------------------------------------------------------
 #rhf/gen scf(tight,novaracc,noincfock,fulldiag) stable(crhf) guess=rea
 d geom=nocrowd test
 ----------------------------------------------------------------------

 hf stability analysis of h10 triangular lattice, y= 0.5188669005588153
 5
 ----------------------------------------------------------------------
 Symbolic Z-matrix:
 Charge =  0 Multiplicity = 1

                         Standard orientation:
 ---------------------------------------------------------------------
 Center     Atomic      Atomic             Coordinates (Angstroms)
 Number     Number       Type             X           Y           Z
 ---------------------------------------------------------------------
      1          1           0        1.881012   -0.964485    0.000000
      2          1           0        1.881012   -2.192229    0.000000
      3          1           0        0.940506   -0.175307   -0.000000
      4          1           0        0.940506   -1.403050    0.000000
      5          1           0        0.000000    0.613872   -0.000000
      6          1           0       -0.000000   -0.613872   -0.000000
      7          1           0       -0.940506    1.403050   -0.000000
      8          1           0       -0.940506    0.175307   -0.000000
      9          1           0       -1.881012    2.192229   -0.000000
     10          1           0       -1.881012    0.964485   -0.000000
 ---------------------------------------------------------------------

 SCF Done:  E(RHF) =  -4.64472618416     A.U. after   12 cycles
 E2 =    -0.1305946491D+00 EUMP2 =    -0.47753208332917D+01

 The electronic state is 1-AG.
 Alpha  occ. eigenvalues --   -0.85454  -0.73602  -0.55966  -0.34853  -0.18851
 Alpha virt. eigenvalues --   -0.07163   0.17951   0.22985   0.39151   0.53797

 Mulliken charges:
               1
     1  H    0.030494
     2  H   -0.111843
     3  H   -0.199334
     4  H    0.096607
     5  H    0.184075
     6  H    0.184075
     7  H    0.096607
     8  H   -0.199334
     9  H   -0.111843
    10  H    0.030494
 Sum of Mulliken charges =   0.00000

 Dipole moment (field-independent basis, Debye):
    X=             -0.0000    Y=              0.0000    Z=             -0.0000  Tot=              0.0000
 Quadrupole moment (field-independent basis, Debye-Ang):
   XX=            -17.9894   YY=            -18.3244   ZZ=            -12.8748
   XY=              3.2472   XZ=             -0.0000   YZ=              0.0000

 Normal termination of Gaussian 09 at Tue Feb 14 13:26:15 2017.
