 Gaussian 09, Revision E.01,
 Gaussian 09:  ES64L-G09RevE.01 30-Nov-2015

 ----------------------------------------------------------------------
 #rhf/gen scf(tight,novaracc,noincfock,fulldiag) stable(crhf) guess=rea
 d geom=nocrowd test
 ----------------------------------------------------------------------

 hf stability analysis of h10 triangular lattice, y= 0.7084369783301545
 1
 ----------------------------------------------------------------------
 Symbolic Z-matrix:
 Charge =  0 Multiplicity = 1

                         Standard orientation:
 ---------------------------------------------------------------------
 Center     Atomic      Atomic             Coordinates (Angstroms)
 Number     Number       Type             X           Y           Z
 ---------------------------------------------------------------------
      1          1           0        2.138657    0.239350    0.000000
      2          1           0        2.138657   -0.840487    0.000000
      3          1           0        1.069328    0.389634    0.000000
      4          1           0        1.069328   -0.690203    0.000000
      5          1           0       -0.000000    0.539919    0.000000
      6          1           0       -0.000000   -0.539919   -0.000000
      7          1           0       -1.069328    0.690203    0.000000
      8          1           0       -1.069328   -0.389634   -0.000000
      9          1           0       -2.138657    0.840487    0.000000
     10          1           0       -2.138657   -0.239350   -0.000000
 ---------------------------------------------------------------------

 SCF Done:  E(RHF) =  -4.83292535368     A.U. after   20 cycles
 E2 =    -0.9497784077D-01 EUMP2 =    -0.49279031944494D+01

 Unable to determine electronic state:  partially filled degenerate orbitals.
 Alpha  occ. eigenvalues --   -0.86718  -0.73881  -0.53821  -0.42271  -0.27159
 Alpha virt. eigenvalues --   -0.04937   0.19356   0.33872   0.51935   0.88671

 Mulliken charges:
               1
     1  H   -0.179244
     2  H    0.245776
     3  H    0.217552
     4  H   -0.264085
     5  H   -0.109309
     6  H    0.115245
     7  H    0.254161
     8  H   -0.321016
     9  H   -0.260931
    10  H    0.301851
 Sum of Mulliken charges =   0.00000

 Dipole moment (field-independent basis, Debye):
    X=              0.3675    Y=             -0.4550    Z=             -0.0000  Tot=              0.5849
 Quadrupole moment (field-independent basis, Debye-Ang):
   XX=            -13.8833   YY=            -14.8767   ZZ=            -12.8579
   XY=              0.4431   XZ=              0.0000   YZ=             -0.0000

 Normal termination of Gaussian 09 at Tue Feb 14 13:27:02 2017.
