 Gaussian 09, Revision E.01,
 Gaussian 09:  ES64L-G09RevE.01 30-Nov-2015

 ----------------------------------------------------------------------
 #uhf/gen scf(tight,novaracc,noincfock,fulldiag) stable(crhf) guess=rea
 d geom=nocrowd test
 ----------------------------------------------------------------------

 hf stability analysis of h10 triangular lattice, y= 0.3287068132830269
 8 alpha= 10.600000000000000
 ----------------------------------------------------------------------
 Symbolic Z-matrix:
 Charge =  0 Multiplicity = 1

                         Standard orientation:
 ---------------------------------------------------------------------
 Center     Atomic      Atomic             Coordinates (Angstroms)
 Number     Number       Type             X           Y           Z
 ---------------------------------------------------------------------
      1          1           0        1.292390   -2.438519   -0.000000
      2          1           0        1.292390   -4.225442   -0.000000
      3          1           0        0.646195   -0.772529   -0.000000
      4          1           0        0.646195   -2.559452   -0.000000
      5          1           0       -0.000000    0.893461    0.000000
      6          1           0       -0.000000   -0.893461    0.000000
      7          1           0       -0.646195    2.559452   -0.000000
      8          1           0       -0.646195    0.772529   -0.000000
      9          1           0       -1.292390    4.225442   -0.000000
     10          1           0       -1.292390    2.438519   -0.000000
 ---------------------------------------------------------------------

 SCF Done:  E(UHF) =  -5.19353409506     A.U. after    7 cycles
 E2 =    -0.3940036045D-01 EUMP2 =    -0.52329344555070D+01

 Unable to determine electronic state:  partially filled degenerate orbitals.
 Alpha  occ. eigenvalues --   -0.73669  -0.69860  -0.63612  -0.56183  -0.46197
 Alpha virt. eigenvalues --    0.15863   0.32885   0.41471   0.54369   0.67069
  Beta  occ. eigenvalues --   -0.73669  -0.69860  -0.63612  -0.56183  -0.46197
  Beta virt. eigenvalues --    0.15863   0.32885   0.41471   0.54369   0.67069

 Mulliken charges and spin densities:
               1          2
     1  H   -0.003034  -0.000556
     2  H    0.001340  -1.001216
     3  H   -0.000216   0.001126
     4  H    0.000709   0.002802
     5  H    0.001202   0.002040
     6  H    0.001202  -0.002040
     7  H    0.000709  -0.002802
     8  H   -0.000216  -0.001126
     9  H    0.001340   1.001216
    10  H   -0.003034   0.000556
 Sum of Mulliken charges =  -0.00000  -0.00000

 Dipole moment (field-independent basis, Debye):
    X=              0.0000    Y=              0.0000    Z=              0.0000  Tot=              0.0000
 Quadrupole moment (field-independent basis, Debye-Ang):
   XX=            -12.1405   YY=            -17.1958   ZZ=            -13.0435
   XY=              1.6626   XZ=             -0.0000   YZ=              0.0000

 Normal termination of Gaussian 09 at Thu Feb 23 17:02:07 2017.
