 Gaussian 09, Revision E.01,
 Gaussian 09:  ES64L-G09RevE.01 30-Nov-2015

 ----------------------------------------------------------------------
 #uhf/gen scf(tight,novaracc,noincfock,fulldiag) stable(crhf) guess=rea
 d geom=nocrowd test
 ----------------------------------------------------------------------

 hf stability analysis of h10 triangular lattice, y= 0.2623830281453579
 7 alpha= 6.7999999999999998
 ----------------------------------------------------------------------
 Symbolic Z-matrix:
 Charge =  0 Multiplicity = 1

                         Standard orientation:
 ---------------------------------------------------------------------
 Center     Atomic      Atomic             Coordinates (Angstroms)
 Number     Number       Type             X           Y           Z
 ---------------------------------------------------------------------
      1          1           0        1.042149   -3.199729    0.000000
      2          1           0        1.042149   -5.415728    0.000000
      3          1           0        0.521075   -1.045865    0.000000
      4          1           0        0.521075   -3.261863    0.000000
      5          1           0        0.000000    1.107999    0.000000
      6          1           0       -0.000000   -1.107999    0.000000
      7          1           0       -0.521075    3.261863   -0.000000
      8          1           0       -0.521075    1.045865   -0.000000
      9          1           0       -1.042149    5.415728   -0.000000
     10          1           0       -1.042149    3.199729   -0.000000
 ---------------------------------------------------------------------

 SCF Done:  E(UHF) =  -4.92826481897     A.U. after    6 cycles
 E2 =    -0.2966115991D-01 EUMP2 =    -0.49579259788851D+01

 Unable to determine electronic state:  partially filled degenerate orbitals.
 Alpha  occ. eigenvalues --   -0.73340  -0.71617  -0.69095  -0.66639  -0.49434
 Alpha virt. eigenvalues --    0.13564   0.49216   0.54946   0.62991   0.70404
  Beta  occ. eigenvalues --   -0.73340  -0.71617  -0.69095  -0.66639  -0.49434
  Beta virt. eigenvalues --    0.13564   0.49216   0.54946   0.62991   0.70404

 Mulliken charges and spin densities:
               1          2
     1  H   -0.001274   0.001924
     2  H    0.003921  -1.003917
     3  H   -0.000141   0.000032
     4  H   -0.002667   0.002017
     5  H    0.000161   0.000055
     6  H    0.000161  -0.000055
     7  H   -0.002667  -0.002017
     8  H   -0.000141  -0.000032
     9  H    0.003921   1.003917
    10  H   -0.001274  -0.001924
 Sum of Mulliken charges =  -0.00000   0.00000

 Dipole moment (field-independent basis, Debye):
    X=             -0.0000    Y=              0.0000    Z=             -0.0000  Tot=              0.0000
 Quadrupole moment (field-independent basis, Debye-Ang):
   XX=            -12.5031   YY=            -15.0935   ZZ=            -13.3849
   XY=              0.4688   XZ=              0.0000   YZ=              0.0000

 Normal termination of Gaussian 09 at Thu Feb 23 17:02:56 2017.
