 Gaussian 09, Revision E.01,
 Gaussian 09:  ES64L-G09RevE.01 30-Nov-2015

 ----------------------------------------------------------------------
 #uhf/gen scf(tight,novaracc,noincfock,fulldiag) stable(crhf) guess=rea
 d geom=nocrowd test
 ----------------------------------------------------------------------

 hf stability analysis of h10 triangular lattice, y= 0.2421675109847944
 4 alpha= 5.7999999999999998
 ----------------------------------------------------------------------
 Symbolic Z-matrix:
 Charge =  0 Multiplicity = 1

                         Standard orientation:
 ---------------------------------------------------------------------
 Center     Atomic      Atomic             Coordinates (Angstroms)
 Number     Number       Type             X           Y           Z
 ---------------------------------------------------------------------
      1          1           0        0.963711   -3.496653    0.000000
      2          1           0        0.963711   -5.893016    0.000000
      3          1           0        0.481856   -1.149236    0.000000
      4          1           0        0.481856   -3.545598    0.000000
      5          1           0        0.000000    1.198181   -0.000000
      6          1           0       -0.000000   -1.198181   -0.000000
      7          1           0       -0.481856    3.545598    0.000000
      8          1           0       -0.481856    1.149236    0.000000
      9          1           0       -0.963711    5.893016    0.000000
     10          1           0       -0.963711    3.496653    0.000000
 ---------------------------------------------------------------------

 SCF Done:  E(UHF) =  -4.74491684791     A.U. after    6 cycles
 E2 =    -0.2737184917D-01 EUMP2 =    -0.47722886970843D+01

 Unable to determine electronic state:  partially filled degenerate orbitals.
 Alpha  occ. eigenvalues --   -0.73726  -0.72576  -0.70974  -0.69517  -0.49740
 Alpha virt. eigenvalues --    0.13168   0.55020   0.59736   0.66205   0.72026
  Beta  occ. eigenvalues --   -0.73726  -0.72576  -0.70974  -0.69517  -0.49740
  Beta virt. eigenvalues --    0.13168   0.55020   0.59736   0.66205   0.72026

 Mulliken charges and spin densities:
               1          2
     1  H   -0.000885   0.001434
     2  H    0.002890  -1.002889
     3  H   -0.000077   0.000009
     4  H   -0.002005   0.001457
     5  H    0.000078   0.000011
     6  H    0.000078  -0.000011
     7  H   -0.002005  -0.001457
     8  H   -0.000077  -0.000009
     9  H    0.002890   1.002889
    10  H   -0.000885  -0.001434
 Sum of Mulliken charges =  -0.00000   0.00000

 Dipole moment (field-independent basis, Debye):
    X=              0.0000    Y=             -0.0000    Z=              0.0000  Tot=              0.0000
 Quadrupole moment (field-independent basis, Debye-Ang):
   XX=            -12.6746   YY=            -14.6507   ZZ=            -13.4675
   XY=              0.2921   XZ=              0.0000   YZ=              0.0000

 Normal termination of Gaussian 09 at Thu Feb 23 17:03:09 2017.
