 Gaussian 09, Revision E.01,
 Gaussian 09:  ES64L-G09RevE.01 30-Nov-2015

 ----------------------------------------------------------------------
 #uhf/gen scf(tight,novaracc,noincfock,fulldiag) stable(crhf) guess=rea
 d geom=nocrowd test
 ----------------------------------------------------------------------

 hf stability analysis of h10 triangular lattice, y= 0.3157937786663429
 5 alpha= 9.8000000000000007
 ----------------------------------------------------------------------
 Symbolic Z-matrix:
 Charge =  0 Multiplicity = 1

                         Standard orientation:
 ---------------------------------------------------------------------
 Center     Atomic      Atomic             Coordinates (Angstroms)
 Number     Number       Type             X           Y           Z
 ---------------------------------------------------------------------
      1          1           0        1.244743   -2.567982    0.000000
      2          1           0        1.244743   -4.423306    0.000000
      3          1           0        0.622371   -0.820160    0.000000
      4          1           0        0.622371   -2.675484    0.000000
      5          1           0        0.000000    0.927662   -0.000000
      6          1           0       -0.000000   -0.927662   -0.000000
      7          1           0       -0.622371    2.675484    0.000000
      8          1           0       -0.622371    0.820160    0.000000
      9          1           0       -1.244743    4.423306    0.000000
     10          1           0       -1.244743    2.567982    0.000000
 ---------------------------------------------------------------------

 SCF Done:  E(UHF) =  -5.17516746656     A.U. after    7 cycles
 E2 =    -0.3722359328D-01 EUMP2 =    -0.52123910598446D+01

 Unable to determine electronic state:  partially filled degenerate orbitals.
 Alpha  occ. eigenvalues --   -0.73439  -0.70044  -0.64553  -0.58224  -0.47217
 Alpha virt. eigenvalues --    0.15279   0.35771   0.43864   0.55889   0.67606
  Beta  occ. eigenvalues --   -0.73439  -0.70044  -0.64553  -0.58224  -0.47217
  Beta virt. eigenvalues --    0.15279   0.35771   0.43864   0.55889   0.67606

 Mulliken charges and spin densities:
               1          2
     1  H   -0.002608   0.000976
     2  H    0.003248  -1.003177
     3  H   -0.000290   0.000600
     4  H   -0.001198   0.002792
     5  H    0.000849   0.001135
     6  H    0.000849  -0.001135
     7  H   -0.001198  -0.002792
     8  H   -0.000290  -0.000600
     9  H    0.003248   1.003177
    10  H   -0.002608  -0.000976
 Sum of Mulliken charges =   0.00000   0.00000

 Dipole moment (field-independent basis, Debye):
    X=             -0.0000    Y=              0.0000    Z=              0.0000  Tot=              0.0000
 Quadrupole moment (field-independent basis, Debye-Ang):
   XX=            -12.1604   YY=            -16.7015   ZZ=            -13.1133
   XY=              1.3353   XZ=             -0.0000   YZ=              0.0000

 Normal termination of Gaussian 09 at Thu Feb 23 17:02:18 2017.
