 Gaussian 09, Revision E.01,
 Gaussian 09:  ES64L-G09RevE.01 30-Nov-2015

 ----------------------------------------------------------------------
 #uhf/gen scf(tight,novaracc,noincfock,fulldiag) stable(crhf) guess=rea
 d geom=nocrowd test
 ----------------------------------------------------------------------

 hf stability analysis of h10 triangular lattice, y= 0.2544802756397182
 6 alpha= 6.4000000000000004
 ----------------------------------------------------------------------
 Symbolic Z-matrix:
 Charge =  0 Multiplicity = 1

                         Standard orientation:
 ---------------------------------------------------------------------
 Center     Atomic      Atomic             Coordinates (Angstroms)
 Number     Number       Type             X           Y           Z
 ---------------------------------------------------------------------
      1          1           0        1.011577   -3.310989   -0.000000
      2          1           0        1.011577   -5.593959   -0.000000
      3          1           0        0.505789   -1.084752   -0.000000
      4          1           0        0.505789   -3.367722   -0.000000
      5          1           0        0.000000    1.141485    0.000000
      6          1           0       -0.000000   -1.141485    0.000000
      7          1           0       -0.505789    3.367722    0.000000
      8          1           0       -0.505789    1.084752    0.000000
      9          1           0       -1.011577    5.593959    0.000000
     10          1           0       -1.011577    3.310989    0.000000
 ---------------------------------------------------------------------

 SCF Done:  E(UHF) =  -4.86352439508     A.U. after    6 cycles
 E2 =    -0.2873137351D-01 EUMP2 =    -0.48922557685916D+01

 Unable to determine electronic state:  partially filled degenerate orbitals.
 Alpha  occ. eigenvalues --   -0.73460  -0.71967  -0.69825  -0.67793  -0.49576
 Alpha virt. eigenvalues --    0.13395   0.51437   0.56775   0.64203   0.70985
  Beta  occ. eigenvalues --   -0.73460  -0.71967  -0.69825  -0.67793  -0.49576
  Beta virt. eigenvalues --    0.13395   0.51437   0.56775   0.64203   0.70985

 Mulliken charges and spin densities:
               1          2
     1  H   -0.001115   0.001748
     2  H    0.003541  -1.003538
     3  H   -0.000113   0.000019
     4  H   -0.002435   0.001802
     5  H    0.000122   0.000031
     6  H    0.000122  -0.000031
     7  H   -0.002435  -0.001802
     8  H   -0.000113  -0.000019
     9  H    0.003541   1.003538
    10  H   -0.001115  -0.001748
 Sum of Mulliken charges =  -0.00000  -0.00000

 Dipole moment (field-independent basis, Debye):
    X=             -0.0000    Y=              0.0000    Z=             -0.0000  Tot=              0.0000
 Quadrupole moment (field-independent basis, Debye-Ang):
   XX=            -12.5699   YY=            -14.9102   ZZ=            -13.4191
   XY=              0.3920   XZ=             -0.0000   YZ=             -0.0000

 Normal termination of Gaussian 09 at Thu Feb 23 17:03:01 2017.
