 Gaussian 09, Revision E.01,
 Gaussian 09:  ES64L-G09RevE.01 30-Nov-2015

 ----------------------------------------------------------------------
 #uhf/gen scf(tight,novaracc,noincfock,fulldiag) stable(crhf) guess=rea
 d geom=nocrowd test
 ----------------------------------------------------------------------

 hf stability analysis of h10 triangular lattice, y= 0.3960588352140311
 8 alpha= 15.199999999999999
 ----------------------------------------------------------------------
 Symbolic Z-matrix:
 Charge =  0 Multiplicity = 1

                         Standard orientation:
 ---------------------------------------------------------------------
 Center     Atomic      Atomic             Coordinates (Angstroms)
 Number     Number       Type             X           Y           Z
 ---------------------------------------------------------------------
      1          1           0        1.528813   -1.850507   -0.000000
      2          1           0        1.528813   -3.361091   -0.000000
      3          1           0        0.764407   -0.547607   -0.000000
      4          1           0        0.764407   -2.058192   -0.000000
      5          1           0        0.000000    0.755292   -0.000000
      6          1           0       -0.000000   -0.755292    0.000000
      7          1           0       -0.764407    2.058192   -0.000000
      8          1           0       -0.764407    0.547607   -0.000000
      9          1           0       -1.528813    3.361091   -0.000000
     10          1           0       -1.528813    1.850507   -0.000000
 ---------------------------------------------------------------------

 SCF Done:  E(UHF) =  -5.10285569264     A.U. after   10 cycles
 E2 =    -0.5262303152D-01 EUMP2 =    -0.51554787241611D+01

 Unable to determine electronic state:  partially filled degenerate orbitals.
 Alpha  occ. eigenvalues --   -0.76058  -0.70005  -0.59988  -0.47385  -0.36793
 Alpha virt. eigenvalues --    0.18686   0.20744   0.30271   0.46953   0.63735
  Beta  occ. eigenvalues --   -0.76058  -0.70005  -0.59988  -0.47385  -0.36793
  Beta virt. eigenvalues --    0.18686   0.20744   0.30271   0.46953   0.63735

 Mulliken charges and spin densities:
               1          2
     1  H   -0.008811  -0.044719
     2  H   -0.034012  -0.963839
     3  H    0.006086   0.022961
     4  H    0.032635   0.018986
     5  H    0.004103   0.030961
     6  H    0.004103  -0.030961
     7  H    0.032635  -0.018986
     8  H    0.006086  -0.022961
     9  H   -0.034012   0.963839
    10  H   -0.008811   0.044719
 Sum of Mulliken charges =   0.00000  -0.00000

 Dipole moment (field-independent basis, Debye):
    X=             -0.0000    Y=              0.0000    Z=              0.0000  Tot=              0.0000
 Quadrupole moment (field-independent basis, Debye-Ang):
   XX=            -13.0236   YY=            -20.4489   ZZ=            -12.7124
   XY=              4.4598   XZ=             -0.0000   YZ=              0.0000

 Normal termination of Gaussian 09 at Thu Feb 23 17:01:04 2017.
