 Gaussian 09, Revision E.01,
 Gaussian 09:  ES64L-G09RevE.01 30-Nov-2015

 ----------------------------------------------------------------------
 #uhf/gen scf(tight,novaracc,noincfock,fulldiag) stable(crhf) guess=rea
 d geom=nocrowd test
 ----------------------------------------------------------------------

 hf stability analysis of h10 triangular lattice, y= 0.4902323214359070
 0 alpha= 22.600000000000001
 ----------------------------------------------------------------------
 Symbolic Z-matrix:
 Charge =  0 Multiplicity = 1

                         Standard orientation:
 ---------------------------------------------------------------------
 Center     Atomic      Atomic             Coordinates (Angstroms)
 Number     Number       Type             X           Y           Z
 ---------------------------------------------------------------------
      1          1           0        1.810350   -1.159922   -0.000000
      2          1           0        1.810350   -2.435588   -0.000000
      3          1           0        0.905175   -0.261045   -0.000000
      4          1           0        0.905175   -1.536710   -0.000000
      5          1           0        0.000000    0.637833   -0.000000
      6          1           0       -0.000000   -0.637833   -0.000000
      7          1           0       -0.905175    1.536710    0.000000
      8          1           0       -0.905175    0.261045   -0.000000
      9          1           0       -1.810350    2.435588   -0.000000
     10          1           0       -1.810350    1.159922   -0.000000
 ---------------------------------------------------------------------

 SCF Done:  E(UHF) =  -4.84341270064     A.U. after   15 cycles
 E2 =    -0.7340186760D-01 EUMP2 =    -0.49168145682383D+01

 Unable to determine electronic state:  partially filled degenerate orbitals.
 Alpha  occ. eigenvalues --   -0.82812  -0.70862  -0.56798  -0.36120  -0.28828
 Alpha virt. eigenvalues --    0.08665   0.16403   0.23355   0.38950   0.60828
  Beta  occ. eigenvalues --   -0.82812  -0.70862  -0.56798  -0.36120  -0.28828
  Beta virt. eigenvalues --    0.08665   0.16403   0.23355   0.38950   0.60828

 Mulliken charges and spin densities:
               1          2
     1  H    0.067501  -0.459272
     2  H   -0.005329   0.509705
     3  H   -0.104996  -0.217408
     4  H    0.044666  -0.239560
     5  H   -0.001842   0.317803
     6  H   -0.001842  -0.317803
     7  H    0.044666   0.239560
     8  H   -0.104996   0.217408
     9  H   -0.005329  -0.509705
    10  H    0.067501   0.459272
 Sum of Mulliken charges =  -0.00000  -0.00000

 Dipole moment (field-independent basis, Debye):
    X=             -0.0000    Y=              0.0000    Z=             -0.0000  Tot=              0.0000
 Quadrupole moment (field-independent basis, Debye-Ang):
   XX=            -13.1530   YY=            -13.7220   ZZ=            -13.0076
   XY=             -1.2160   XZ=              0.0000   YZ=              0.0000

 Normal termination of Gaussian 09 at Thu Feb 23 16:59:29 2017.
