 Gaussian 09, Revision E.01,
 Gaussian 09:  ES64L-G09RevE.01 30-Nov-2015

 ----------------------------------------------------------------------
 #uhf/gen scf(tight,novaracc,noincfock,fulldiag) stable(crhf) guess=rea
 d geom=nocrowd test
 ----------------------------------------------------------------------

 hf stability analysis of h10 triangular lattice, y= 0.3592395840958503
 3 alpha= 12.600000000000000
 ----------------------------------------------------------------------
 Symbolic Z-matrix:
 Charge =  0 Multiplicity = 1

                         Standard orientation:
 ---------------------------------------------------------------------
 Center     Atomic      Atomic             Coordinates (Angstroms)
 Number     Number       Type             X           Y           Z
 ---------------------------------------------------------------------
      1          1           0        1.402352   -2.156746    0.000000
      2          1           0        1.402352   -3.803552    0.000000
      3          1           0        0.701176   -0.666672    0.000000
      4          1           0        0.701176   -2.313477    0.000000
      5          1           0        0.000000    0.823403    0.000000
      6          1           0       -0.000000   -0.823403    0.000000
      7          1           0       -0.701176    2.313477   -0.000000
      8          1           0       -0.701176    0.666672   -0.000000
      9          1           0       -1.402352    3.803552   -0.000000
     10          1           0       -1.402352    2.156746   -0.000000
 ---------------------------------------------------------------------

 SCF Done:  E(UHF) =  -5.18667868452     A.U. after    9 cycles
 E2 =    -0.4506646176D-01 EUMP2 =    -0.52317451462825D+01

 Unable to determine electronic state:  partially filled degenerate orbitals.
 Alpha  occ. eigenvalues --   -0.74497  -0.69702  -0.61705  -0.51762  -0.42728
 Alpha virt. eigenvalues --    0.17524   0.26502   0.36154   0.50940   0.65752
  Beta  occ. eigenvalues --   -0.74497  -0.69702  -0.61705  -0.51762  -0.42728
  Beta virt. eigenvalues --    0.17524   0.26502   0.36154   0.50940   0.65752

 Mulliken charges and spin densities:
               1          2
     1  H   -0.004461  -0.009302
     2  H   -0.008291  -0.991270
     3  H    0.000696   0.004567
     4  H    0.009579   0.003822
     5  H    0.002476   0.007282
     6  H    0.002476  -0.007282
     7  H    0.009579  -0.003822
     8  H    0.000696  -0.004567
     9  H   -0.008291   0.991270
    10  H   -0.004461   0.009302
 Sum of Mulliken charges =   0.00000   0.00000

 Dipole moment (field-independent basis, Debye):
    X=             -0.0000    Y=              0.0000    Z=              0.0000  Tot=              0.0000
 Quadrupole moment (field-independent basis, Debye-Ang):
   XX=            -12.2842   YY=            -18.5409   ZZ=            -12.8830
   XY=              2.6817   XZ=             -0.0000   YZ=              0.0000

 Normal termination of Gaussian 09 at Thu Feb 23 17:01:40 2017.
