 Gaussian 09, Revision E.01,
 Gaussian 09:  ES64L-G09RevE.01 30-Nov-2015

 ----------------------------------------------------------------------
 #uhf/gen scf(tight,novaracc,noincfock,fulldiag) stable(crhf) guess=rea
 d geom=nocrowd test
 ----------------------------------------------------------------------

 hf stability analysis of h10 triangular lattice, y= 0.2989624498377934
 1 alpha= 8.8000000000000007
 ----------------------------------------------------------------------
 Symbolic Z-matrix:
 Charge =  0 Multiplicity = 1

                         Standard orientation:
 ---------------------------------------------------------------------
 Center     Atomic      Atomic             Coordinates (Angstroms)
 Number     Number       Type             X           Y           Z
 ---------------------------------------------------------------------
      1          1           0        1.181773   -2.748328   -0.000000
      2          1           0        1.181773   -4.702511   -0.000000
      3          1           0        0.590886   -0.885618   -0.000000
      4          1           0        0.590886   -2.839802   -0.000000
      5          1           0        0.000000    0.977092    0.000000
      6          1           0       -0.000000   -0.977092    0.000000
      7          1           0       -0.590886    2.839802    0.000000
      8          1           0       -0.590886    0.885618    0.000000
      9          1           0       -1.181773    4.702511    0.000000
     10          1           0       -1.181773    2.748328    0.000000
 ---------------------------------------------------------------------

 SCF Done:  E(UHF) =  -5.12923849638     A.U. after    7 cycles
 E2 =    -0.3459165983D-01 EUMP2 =    -0.51638301562169D+01

 Unable to determine electronic state:  partially filled degenerate orbitals.
 Alpha  occ. eigenvalues --   -0.73252  -0.70394  -0.65885  -0.60935  -0.48215
 Alpha virt. eigenvalues --    0.14622   0.39730   0.47136   0.57962   0.68345
  Beta  occ. eigenvalues --   -0.73252  -0.70394  -0.65885  -0.60935  -0.48215
  Beta virt. eigenvalues --    0.14622   0.39730   0.47136   0.57962   0.68345

 Mulliken charges and spin densities:
               1          2
     1  H   -0.002130   0.001936
     2  H    0.004419  -1.004386
     3  H   -0.000280   0.000253
     4  H   -0.002532   0.002712
     5  H    0.000523   0.000496
     6  H    0.000523  -0.000496
     7  H   -0.002532  -0.002712
     8  H   -0.000280  -0.000253
     9  H    0.004419   1.004386
    10  H   -0.002130  -0.001936
 Sum of Mulliken charges =   0.00000  -0.00000

 Dipole moment (field-independent basis, Debye):
    X=              0.0000    Y=              0.0000    Z=             -0.0000  Tot=              0.0000
 Quadrupole moment (field-independent basis, Debye-Ang):
   XX=            -12.2343   YY=            -16.1215   ZZ=            -13.2037
   XY=              0.9859   XZ=             -0.0000   YZ=             -0.0000

 Normal termination of Gaussian 09 at Thu Feb 23 17:02:30 2017.
