 Gaussian 09, Revision E.01,
 Gaussian 09:  ES64L-G09RevE.01 30-Nov-2015

 ----------------------------------------------------------------------
 #uhf/gen scf(tight,novaracc,noincfock,fulldiag) stable(crhf) guess=rea
 d geom=nocrowd test
 ----------------------------------------------------------------------

 hf stability analysis of h10 triangular lattice, y= 0.2812243791484811
 4 alpha= 7.7999999999999998
 ----------------------------------------------------------------------
 Symbolic Z-matrix:
 Charge =  0 Multiplicity = 1

                         Standard orientation:
 ---------------------------------------------------------------------
 Center     Atomic      Atomic             Coordinates (Angstroms)
 Number     Number       Type             X           Y           Z
 ---------------------------------------------------------------------
      1          1           0        1.114490   -2.955574    0.000000
      2          1           0        1.114490   -5.027734    0.000000
      3          1           0        0.557245   -0.959747    0.000000
      4          1           0        0.557245   -3.031907    0.000000
      5          1           0        0.000000    1.036080    0.000000
      6          1           0       -0.000000   -1.036080    0.000000
      7          1           0       -0.557245    3.031907    0.000000
      8          1           0       -0.557245    0.959747    0.000000
      9          1           0       -1.114490    5.027734    0.000000
     10          1           0       -1.114490    2.955574    0.000000
 ---------------------------------------------------------------------

 SCF Done:  E(UHF) =  -5.05061834411     A.U. after    7 cycles
 E2 =    -0.3206848707D-01 EUMP2 =    -0.50826868311749D+01

 Unable to determine electronic state:  partially filled degenerate orbitals.
 Alpha  occ. eigenvalues --   -0.73204  -0.70905  -0.67399  -0.63761  -0.48939
 Alpha virt. eigenvalues --    0.14049   0.44171   0.50795   0.60295   0.69238
  Beta  occ. eigenvalues --   -0.73204  -0.70905  -0.67399  -0.63761  -0.48939
  Beta virt. eigenvalues --    0.14049   0.44171   0.50795   0.60295   0.69238

 Mulliken charges and spin densities:
               1          2
     1  H   -0.001689   0.002163
     2  H    0.004537  -1.004523
     3  H   -0.000216   0.000096
     4  H   -0.002933   0.002456
     5  H    0.000302   0.000186
     6  H    0.000302  -0.000186
     7  H   -0.002933  -0.002456
     8  H   -0.000216  -0.000096
     9  H    0.004537   1.004523
    10  H   -0.001689  -0.002163
 Sum of Mulliken charges =   0.00000   0.00000

 Dipole moment (field-independent basis, Debye):
    X=             -0.0000    Y=             -0.0000    Z=              0.0000  Tot=              0.0000
 Quadrupole moment (field-independent basis, Debye-Ang):
   XX=            -12.3523   YY=            -15.5849   ZZ=            -13.2953
   XY=              0.6986   XZ=             -0.0000   YZ=             -0.0000

 Normal termination of Gaussian 09 at Thu Feb 23 17:02:43 2017.
