 Gaussian 09, Revision E.01,
 Gaussian 09:  ES64L-G09RevE.01 30-Nov-2015

 ----------------------------------------------------------------------
 #uhf/gen scf(tight,novaracc,noincfock,fulldiag) stable(crhf) guess=rea
 d geom=nocrowd test
 ----------------------------------------------------------------------

 hf stability analysis of h10 triangular lattice, y= 0.4305425621430090
 7 alpha= 17.800000000000001
 ----------------------------------------------------------------------
 Symbolic Z-matrix:
 Charge =  0 Multiplicity = 1

                         Standard orientation:
 ---------------------------------------------------------------------
 Center     Atomic      Atomic             Coordinates (Angstroms)
 Number     Number       Type             X           Y           Z
 ---------------------------------------------------------------------
      1          1           0        1.639729   -1.586147    0.000000
      2          1           0        1.639729   -2.994551    0.000000
      3          1           0        0.819864   -0.440972    0.000000
      4          1           0        0.819864   -1.849377    0.000000
      5          1           0        0.000000    0.704202   -0.000000
      6          1           0       -0.000000   -0.704202   -0.000000
      7          1           0       -0.819864    1.849377    0.000000
      8          1           0       -0.819864    0.440972    0.000000
      9          1           0       -1.639729    2.994551    0.000000
     10          1           0       -1.639729    1.586147    0.000000
 ---------------------------------------------------------------------

 SCF Done:  E(UHF) =  -4.97414363320     A.U. after   28 cycles
 E2 =    -0.5789294445D-01 EUMP2 =    -0.50320365776475D+01

 Unable to determine electronic state:  partially filled degenerate orbitals.
 Alpha  occ. eigenvalues --   -0.78284  -0.70909  -0.58957  -0.43843  -0.30840
 Alpha virt. eigenvalues --    0.12729   0.23065   0.25275   0.43172   0.61138
  Beta  occ. eigenvalues --   -0.78284  -0.70909  -0.58957  -0.43843  -0.30840
  Beta virt. eigenvalues --    0.12729   0.23065   0.25275   0.43172   0.61138

 Mulliken charges and spin densities:
               1          2
     1  H   -0.026950  -0.188404
     2  H   -0.075330  -0.909232
     3  H    0.029067   0.114383
     4  H    0.078164   0.124663
     5  H   -0.004952   0.135740
     6  H   -0.004952  -0.135740
     7  H    0.078164  -0.124663
     8  H    0.029067  -0.114383
     9  H   -0.075330   0.909232
    10  H   -0.026950   0.188404
 Sum of Mulliken charges =  -0.00000  -0.00000

 Dipole moment (field-independent basis, Debye):
    X=              0.0000    Y=             -0.0000    Z=             -0.0000  Tot=              0.0000
 Quadrupole moment (field-independent basis, Debye-Ang):
   XX=            -14.6735   YY=            -22.1076   ZZ=            -12.6019
   XY=              6.5482   XZ=              0.0000   YZ=             -0.0000

 Normal termination of Gaussian 09 at Thu Feb 23 17:00:28 2017.
