 Gaussian 09, Revision E.01,
 Gaussian 09:  ES64L-G09RevE.01 30-Nov-2015

 ----------------------------------------------------------------------
 #uhf/gen scf(tight,novaracc,noincfock,fulldiag) stable(crhf) guess=rea
 d geom=nocrowd test
 ----------------------------------------------------------------------

 hf stability analysis of h10 triangular lattice, y= 0.3822199390688378
 9 alpha= 14.199999999999999
 ----------------------------------------------------------------------
 Symbolic Z-matrix:
 Charge =  0 Multiplicity = 1

                         Standard orientation:
 ---------------------------------------------------------------------
 Center     Atomic      Atomic             Coordinates (Angstroms)
 Number     Number       Type             X           Y           Z
 ---------------------------------------------------------------------
      1          1           0        1.482165   -1.962144    0.000000
      2          1           0        1.482165   -3.520271    0.000000
      3          1           0        0.741083   -0.591540    0.000000
      4          1           0        0.741083   -2.149667    0.000000
      5          1           0        0.000000    0.779063   -0.000000
      6          1           0       -0.000000   -0.779063   -0.000000
      7          1           0       -0.741083    2.149667    0.000000
      8          1           0       -0.741083    0.591540    0.000000
      9          1           0       -1.482165    3.520271    0.000000
     10          1           0       -1.482165    1.962144    0.000000
 ---------------------------------------------------------------------

 SCF Done:  E(UHF) =  -5.14249705994     A.U. after   10 cycles
 E2 =    -0.4973350895D-01 EUMP2 =    -0.51922305688875D+01

 Unable to determine electronic state:  partially filled degenerate orbitals.
 Alpha  occ. eigenvalues --   -0.75392  -0.69827  -0.60562  -0.48928  -0.39183
 Alpha virt. eigenvalues --    0.18912   0.22131   0.32420   0.48444   0.64573
  Beta  occ. eigenvalues --   -0.75392  -0.69827  -0.60562  -0.48928  -0.39183
  Beta virt. eigenvalues --    0.18912   0.22131   0.32420   0.48444   0.64573

 Mulliken charges and spin densities:
               1          2
     1  H   -0.006515  -0.025757
     2  H   -0.022152  -0.976696
     3  H    0.003061   0.012504
     4  H    0.021915   0.009336
     5  H    0.003690   0.017952
     6  H    0.003690  -0.017952
     7  H    0.021915  -0.009336
     8  H    0.003061  -0.012504
     9  H   -0.022152   0.976696
    10  H   -0.006515   0.025757
 Sum of Mulliken charges =  -0.00000   0.00000

 Dipole moment (field-independent basis, Debye):
    X=             -0.0000    Y=              0.0000    Z=             -0.0000  Tot=              0.0000
 Quadrupole moment (field-independent basis, Debye-Ang):
   XX=            -12.6514   YY=            -19.7052   ZZ=            -12.7724
   XY=              3.7158   XZ=              0.0000   YZ=             -0.0000

 Normal termination of Gaussian 09 at Thu Feb 23 17:01:18 2017.
