 Gaussian 09, Revision E.01,
 Gaussian 09:  ES64L-G09RevE.01 30-Nov-2015

 ----------------------------------------------------------------------
 #uhf/gen scf(tight,novaracc,noincfock,fulldiag) stable(crhf) guess=rea
 d geom=nocrowd test
 ----------------------------------------------------------------------

 hf stability analysis of h10 triangular lattice, y= 0.3621750497587933
 9 alpha= 12.800000000000001
 ----------------------------------------------------------------------
 Symbolic Z-matrix:
 Charge =  0 Multiplicity = 1

                         Standard orientation:
 ---------------------------------------------------------------------
 Center     Atomic      Atomic             Coordinates (Angstroms)
 Number     Number       Type             X           Y           Z
 ---------------------------------------------------------------------
      1          1           0        1.412699   -2.131158    0.000000
      2          1           0        1.412699   -3.765902    0.000000
      3          1           0        0.706350   -0.656893    0.000000
      4          1           0        0.706350   -2.291637    0.000000
      5          1           0        0.000000    0.817372    0.000000
      6          1           0       -0.000000   -0.817372    0.000000
      7          1           0       -0.706350    2.291637    0.000000
      8          1           0       -0.706350    0.656893    0.000000
      9          1           0       -1.412699    3.765902    0.000000
     10          1           0       -1.412699    2.131158    0.000000
 ---------------------------------------------------------------------

 SCF Done:  E(UHF) =  -5.18272299330     A.U. after   10 cycles
 E2 =    -0.4564636550D-01 EUMP2 =    -0.52283693588025D+01

 Unable to determine electronic state:  partially filled degenerate orbitals.
 Alpha  occ. eigenvalues --   -0.74597  -0.69707  -0.61545  -0.51377  -0.42314
 Alpha virt. eigenvalues --    0.17702   0.25918   0.35665   0.50618   0.65613
  Beta  occ. eigenvalues --   -0.74597  -0.69707  -0.61545  -0.51377  -0.42314
  Beta virt. eigenvalues --    0.17702   0.25918   0.35665   0.50618   0.65613

 Mulliken charges and spin densities:
               1          2
     1  H   -0.004653  -0.010748
     2  H   -0.009699  -0.989806
     3  H    0.000883   0.005200
     4  H    0.010840   0.004148
     5  H    0.002629   0.008183
     6  H    0.002629  -0.008183
     7  H    0.010840  -0.004148
     8  H    0.000883  -0.005200
     9  H   -0.009699   0.989806
    10  H   -0.004653   0.010748
 Sum of Mulliken charges =  -0.00000  -0.00000

 Dipole moment (field-independent basis, Debye):
    X=             -0.0000    Y=              0.0000    Z=              0.0000  Tot=              0.0000
 Quadrupole moment (field-independent basis, Debye-Ang):
   XX=            -12.3165   YY=            -18.6830   ZZ=            -12.8683
   XY=              2.8002   XZ=              0.0000   YZ=              0.0000

 Normal termination of Gaussian 09 at Thu Feb 23 17:01:37 2017.
