 Gaussian 09, Revision E.01,
 Gaussian 09:  ES64L-G09RevE.01 30-Nov-2015

 ----------------------------------------------------------------------
 #uhf/gen scf(tight,novaracc,noincfock,fulldiag) stable(crhf) guess=rea
 d geom=nocrowd test
 ----------------------------------------------------------------------

 hf stability analysis of h10 triangular lattice, y= 0.3091596997847456
 7 alpha= 9.4000000000000004
 ----------------------------------------------------------------------
 Symbolic Z-matrix:
 Charge =  0 Multiplicity = 1

                         Standard orientation:
 ---------------------------------------------------------------------
 Center     Atomic      Atomic             Coordinates (Angstroms)
 Number     Number       Type             X           Y           Z
 ---------------------------------------------------------------------
      1          1           0        1.220033   -2.637375   -0.000000
      2          1           0        1.220033   -4.530274   -0.000000
      3          1           0        0.610017   -0.845462   -0.000000
      4          1           0        0.610017   -2.738362   -0.000000
      5          1           0        0.000000    0.946450    0.000000
      6          1           0       -0.000000   -0.946450    0.000000
      7          1           0       -0.610017    2.738362   -0.000000
      8          1           0       -0.610017    0.845462   -0.000000
      9          1           0       -1.220033    4.530274   -0.000000
     10          1           0       -1.220033    2.637375   -0.000000
 ---------------------------------------------------------------------

 SCF Done:  E(UHF) =  -5.16017684473     A.U. after    7 cycles
 E2 =    -0.3615837914D-01 EUMP2 =    -0.51963352238723D+01

 Unable to determine electronic state:  partially filled degenerate orbitals.
 Alpha  occ. eigenvalues --   -0.73350  -0.70166  -0.65064  -0.59291  -0.47652
 Alpha virt. eigenvalues --    0.15006   0.37304   0.45132   0.56692   0.67889
  Beta  occ. eigenvalues --   -0.73350  -0.70166  -0.65064  -0.59291  -0.47652
  Beta virt. eigenvalues --    0.15006   0.37304   0.45132   0.56692   0.67889

 Mulliken charges and spin densities:
               1          2
     1  H   -0.002411   0.001468
     2  H    0.003863  -1.003811
     3  H   -0.000296   0.000429
     4  H   -0.001860   0.002777
     5  H    0.000704   0.000827
     6  H    0.000704  -0.000827
     7  H   -0.001860  -0.002777
     8  H   -0.000296  -0.000429
     9  H    0.003863   1.003811
    10  H   -0.002411  -0.001468
 Sum of Mulliken charges =   0.00000  -0.00000

 Dipole moment (field-independent basis, Debye):
    X=              0.0000    Y=             -0.0000    Z=             -0.0000  Tot=              0.0000
 Quadrupole moment (field-independent basis, Debye-Ang):
   XX=            -12.1839   YY=            -16.4644   ZZ=            -13.1491
   XY=              1.1878   XZ=             -0.0000   YZ=              0.0000

 Normal termination of Gaussian 09 at Thu Feb 23 17:02:23 2017.
