 Gaussian 09, Revision E.01,
 Gaussian 09:  ES64L-G09RevE.01 30-Nov-2015

 ----------------------------------------------------------------------
 #uhf/gen scf(tight,novaracc,noincfock,fulldiag) stable(crhf) guess=rea
 d geom=nocrowd test
 ----------------------------------------------------------------------

 hf stability analysis of h10 triangular lattice, y= 0.4756691111166422
 8 alpha= 21.399999999999999
 ----------------------------------------------------------------------
 Symbolic Z-matrix:
 Charge =  0 Multiplicity = 1

                         Standard orientation:
 ---------------------------------------------------------------------
 Center     Atomic      Atomic             Coordinates (Angstroms)
 Number     Number       Type             X           Y           Z
 ---------------------------------------------------------------------
      1          1           0        1.771498   -1.261222    0.000000
      2          1           0        1.771498   -2.564865    0.000000
      3          1           0        0.885749   -0.304700    0.000000
      4          1           0        0.885749   -1.608343    0.000000
      5          1           0        0.000000    0.651822   -0.000000
      6          1           0       -0.000000   -0.651822   -0.000000
      7          1           0       -0.885749    1.608343    0.000000
      8          1           0       -0.885749    0.304700   -0.000000
      9          1           0       -1.771498    2.564865    0.000000
     10          1           0       -1.771498    1.261222    0.000000
 ---------------------------------------------------------------------

 SCF Done:  E(UHF) =  -4.82478480037     A.U. after   15 cycles
 E2 =    -0.7262072129D-01 EUMP2 =    -0.48974055216666D+01

 Unable to determine electronic state:  partially filled degenerate orbitals.
 Alpha  occ. eigenvalues --   -0.82209  -0.70284  -0.57017  -0.37049  -0.26936
 Alpha virt. eigenvalues --    0.08233   0.16834   0.21542   0.38511   0.61744
  Beta  occ. eigenvalues --   -0.82209  -0.70284  -0.57017  -0.37049  -0.26936
  Beta virt. eigenvalues --    0.08233   0.16834   0.21542   0.38511   0.61744

 Mulliken charges and spin densities:
               1          2
     1  H    0.054317  -0.477131
     2  H    0.010862   0.527855
     3  H   -0.094734  -0.223145
     4  H    0.038300  -0.248115
     5  H   -0.008745   0.332577
     6  H   -0.008745  -0.332577
     7  H    0.038300   0.248115
     8  H   -0.094734   0.223145
     9  H    0.010862  -0.527855
    10  H    0.054317   0.477131
 Sum of Mulliken charges =  -0.00000  -0.00000

 Dipole moment (field-independent basis, Debye):
    X=             -0.0000    Y=              0.0000    Z=              0.0000  Tot=              0.0000
 Quadrupole moment (field-independent basis, Debye-Ang):
   XX=            -13.0100   YY=            -12.8759   ZZ=            -13.0190
   XY=             -1.7680   XZ=             -0.0000   YZ=             -0.0000

 Normal termination of Gaussian 09 at Thu Feb 23 16:59:45 2017.
