 Gaussian 09, Revision E.01,
 Gaussian 09:  ES64L-G09RevE.01 30-Nov-2015

 ----------------------------------------------------------------------
 #uhf/gen scf(tight,novaracc,noincfock,fulldiag) stable(crhf) guess=rea
 d geom=nocrowd test
 ----------------------------------------------------------------------

 hf stability analysis of h10 triangular lattice, y= 0.2700672188614934
 9 alpha= 7.2000000000000002
 ----------------------------------------------------------------------
 Symbolic Z-matrix:
 Charge =  0 Multiplicity = 1

                         Standard orientation:
 ---------------------------------------------------------------------
 Center     Atomic      Atomic             Coordinates (Angstroms)
 Number     Number       Type             X           Y           Z
 ---------------------------------------------------------------------
      1          1           0        1.071751   -3.096796    0.000000
      2          1           0        1.071751   -5.251590    0.000000
      3          1           0        0.535875   -1.009700    0.000000
      4          1           0        0.535875   -3.164493    0.000000
      5          1           0        0.000000    1.077397    0.000000
      6          1           0       -0.000000   -1.077397    0.000000
      7          1           0       -0.535875    3.164493    0.000000
      8          1           0       -0.535875    1.009700    0.000000
      9          1           0       -1.071751    5.251590    0.000000
     10          1           0       -1.071751    3.096796    0.000000
 ---------------------------------------------------------------------

 SCF Done:  E(UHF) =  -4.98337234402     A.U. after    6 cycles
 E2 =    -0.3060991486D-01 EUMP2 =    -0.50139822588806D+01

 Unable to determine electronic state:  partially filled degenerate orbitals.
 Alpha  occ. eigenvalues --   -0.73260  -0.71305  -0.68395  -0.65485  -0.49261
 Alpha virt. eigenvalues --    0.13747   0.47117   0.53218   0.61860   0.69894
  Beta  occ. eigenvalues --   -0.73260  -0.71305  -0.68395  -0.65485  -0.49261
  Beta virt. eigenvalues --    0.13747   0.47117   0.53218   0.61860   0.69894

 Mulliken charges and spin densities:
               1          2
     1  H   -0.001437   0.002061
     2  H    0.004235  -1.004228
     3  H   -0.000171   0.000050
     4  H   -0.002837   0.002212
     5  H    0.000210   0.000093
     6  H    0.000210  -0.000093
     7  H   -0.002837  -0.002212
     8  H   -0.000171  -0.000050
     9  H    0.004235   1.004228
    10  H   -0.001437  -0.002061
 Sum of Mulliken charges =   0.00000  -0.00000

 Dipole moment (field-independent basis, Debye):
    X=              0.0000    Y=             -0.0000    Z=              0.0000  Tot=              0.0000
 Quadrupole moment (field-independent basis, Debye-Ang):
   XX=            -12.4396   YY=            -15.2845   ZZ=            -13.3496
   XY=              0.5541   XZ=             -0.0000   YZ=             -0.0000

 Normal termination of Gaussian 09 at Thu Feb 23 17:02:51 2017.
