 Gaussian 09, Revision E.01,
 Gaussian 09:  ES64L-G09RevE.01 30-Nov-2015

 ----------------------------------------------------------------------
 #uhf/gen scf(tight,novaracc,noincfock,fulldiag) stable(crhf) guess=rea
 d geom=nocrowd test
 ----------------------------------------------------------------------

 hf stability analysis of h10 triangular lattice, y= 0.4781099763290523
 9 alpha= 21.600000000000001
 ----------------------------------------------------------------------
 Symbolic Z-matrix:
 Charge =  0 Multiplicity = 1

                         Standard orientation:
 ---------------------------------------------------------------------
 Center     Atomic      Atomic             Coordinates (Angstroms)
 Number     Number       Type             X           Y           Z
 ---------------------------------------------------------------------
      1          1           0        1.778142   -1.244142   -0.000000
      2          1           0        1.778142   -2.542915   -0.000000
      3          1           0        0.889071   -0.297378   -0.000000
      4          1           0        0.889071   -1.596150   -0.000000
      5          1           0        0.000000    0.649386    0.000000
      6          1           0       -0.000000   -0.649386    0.000000
      7          1           0       -0.889071    1.596150   -0.000000
      8          1           0       -0.889071    0.297378   -0.000000
      9          1           0       -1.778142    2.542915   -0.000000
     10          1           0       -1.778142    1.244142   -0.000000
 ---------------------------------------------------------------------

 SCF Done:  E(UHF) =  -4.82822222566     A.U. after   15 cycles
 E2 =    -0.7265939095D-01 EUMP2 =    -0.49008816166020D+01

 Unable to determine electronic state:  partially filled degenerate orbitals.
 Alpha  occ. eigenvalues --   -0.82310  -0.70381  -0.56982  -0.36897  -0.27264
 Alpha virt. eigenvalues --    0.08352   0.16766   0.21843   0.38532   0.61596
  Beta  occ. eigenvalues --   -0.82310  -0.70381  -0.56982  -0.36897  -0.27264
  Beta virt. eigenvalues --    0.08352   0.16766   0.21843   0.38532   0.61596

 Mulliken charges and spin densities:
               1          2
     1  H    0.056659  -0.473841
     2  H    0.008352   0.526736
     3  H   -0.096494  -0.223062
     4  H    0.039013  -0.246916
     5  H   -0.007530   0.330688
     6  H   -0.007530  -0.330688
     7  H    0.039013   0.246916
     8  H   -0.096494   0.223062
     9  H    0.008352  -0.526736
    10  H    0.056659   0.473841
 Sum of Mulliken charges =   0.00000  -0.00000

 Dipole moment (field-independent basis, Debye):
    X=              0.0000    Y=             -0.0000    Z=             -0.0000  Tot=              0.0000
 Quadrupole moment (field-independent basis, Debye-Ang):
   XX=            -13.0252   YY=            -13.0223   ZZ=            -13.0170
   XY=             -1.6827   XZ=              0.0000   YZ=             -0.0000

 Normal termination of Gaussian 09 at Thu Feb 23 16:59:43 2017.
