 Gaussian 09, Revision E.01,
 Gaussian 09:  ES64L-G09RevE.01 30-Nov-2015

 ----------------------------------------------------------------------
 #uhf/gen scf(tight,novaracc,noincfock,fulldiag) stable(crhf) guess=rea
 d geom=nocrowd test
 ----------------------------------------------------------------------

 hf stability analysis of h10 triangular lattice, y= 0.3442571619217983
 9 alpha= 11.600000000000000
 ----------------------------------------------------------------------
 Symbolic Z-matrix:
 Charge =  0 Multiplicity = 1

                         Standard orientation:
 ---------------------------------------------------------------------
 Center     Atomic      Atomic             Coordinates (Angstroms)
 Number     Number       Type             X           Y           Z
 ---------------------------------------------------------------------
      1          1           0        1.348903   -2.291198   -0.000000
      2          1           0        1.348903   -4.003256   -0.000000
      3          1           0        0.674452   -0.717584   -0.000000
      4          1           0        0.674452   -2.429643   -0.000000
      5          1           0        0.000000    0.856029    0.000000
      6          1           0       -0.000000   -0.856029    0.000000
      7          1           0       -0.674452    2.429643   -0.000000
      8          1           0       -0.674452    0.717584   -0.000000
      9          1           0       -1.348903    4.003256   -0.000000
     10          1           0       -1.348903    2.291198   -0.000000
 ---------------------------------------------------------------------

 SCF Done:  E(UHF) =  -5.19824429671     A.U. after    8 cycles
 E2 =    -0.4219873169D-01 EUMP2 =    -0.52404430283977D+01

 Unable to determine electronic state:  partially filled degenerate orbitals.
 Alpha  occ. eigenvalues --   -0.74040  -0.69733  -0.62584  -0.53842  -0.44623
 Alpha virt. eigenvalues --    0.16661   0.29562   0.38707   0.52600   0.66419
  Beta  occ. eigenvalues --   -0.74040  -0.69733  -0.62584  -0.53842  -0.44623
  Beta virt. eigenvalues --    0.16661   0.29562   0.38707   0.52600   0.66419

 Mulliken charges and spin densities:
               1          2
     1  H   -0.003659  -0.003834
     2  H   -0.002519  -0.997244
     3  H    0.000065   0.002328
     4  H    0.004342   0.002975
     5  H    0.001771   0.003963
     6  H    0.001771  -0.003963
     7  H    0.004342  -0.002975
     8  H    0.000065  -0.002328
     9  H   -0.002519   0.997244
    10  H   -0.003659   0.003834
 Sum of Mulliken charges =  -0.00000  -0.00000

 Dipole moment (field-independent basis, Debye):
    X=             -0.0000    Y=              0.0000    Z=              0.0000  Tot=              0.0000
 Quadrupole moment (field-independent basis, Debye-Ang):
   XX=            -12.1742   YY=            -17.8500   ZZ=            -12.9604
   XY=              2.1351   XZ=              0.0000   YZ=             -0.0000

 Normal termination of Gaussian 09 at Thu Feb 23 17:01:53 2017.
