 Gaussian 09, Revision E.01,
 Gaussian 09:  ES64L-G09RevE.01 30-Nov-2015

 ----------------------------------------------------------------------
 #uhf/gen scf(tight,novaracc,noincfock,fulldiag) stable(crhf) guess=rea
 d geom=nocrowd test
 ----------------------------------------------------------------------

 hf stability analysis of h10 triangular lattice, y= 0.3562845674507317
 8 alpha= 12.400000000000000
 ----------------------------------------------------------------------
 Symbolic Z-matrix:
 Charge =  0 Multiplicity = 1

                         Standard orientation:
 ---------------------------------------------------------------------
 Center     Atomic      Atomic             Coordinates (Angstroms)
 Number     Number       Type             X           Y           Z
 ---------------------------------------------------------------------
      1          1           0        1.391893   -2.182742    0.000000
      2          1           0        1.391893   -3.841922    0.000000
      3          1           0        0.695947   -0.676576    0.000000
      4          1           0        0.695947   -2.335756    0.000000
      5          1           0        0.000000    0.829590    0.000000
      6          1           0       -0.000000   -0.829590   -0.000000
      7          1           0       -0.695947    2.335756    0.000000
      8          1           0       -0.695947    0.676576    0.000000
      9          1           0       -1.391893    3.841922    0.000000
     10          1           0       -1.391893    2.182742    0.000000
 ---------------------------------------------------------------------

 SCF Done:  E(UHF) =  -5.19012056115     A.U. after    9 cycles
 E2 =    -0.4448840050D-01 EUMP2 =    -0.52346089616551D+01

 Unable to determine electronic state:  partially filled degenerate orbitals.
 Alpha  occ. eigenvalues --   -0.74399  -0.69701  -0.61869  -0.52157  -0.43130
 Alpha virt. eigenvalues --    0.17347   0.27095   0.36650   0.51264   0.65888
  Beta  occ. eigenvalues --   -0.74399  -0.69701  -0.61869  -0.52157  -0.43130
  Beta virt. eigenvalues --    0.17347   0.27095   0.36650   0.51264   0.65888

 Mulliken charges and spin densities:
               1          2
     1  H   -0.004281  -0.007987
     2  H   -0.006970  -0.992641
     3  H    0.000532   0.004005
     4  H    0.008392   0.003561
     5  H    0.002326   0.006470
     6  H    0.002326  -0.006470
     7  H    0.008392  -0.003561
     8  H    0.000532  -0.004005
     9  H   -0.006970   0.992641
    10  H   -0.004281   0.007987
 Sum of Mulliken charges =   0.00000  -0.00000

 Dipole moment (field-independent basis, Debye):
    X=             -0.0000    Y=              0.0000    Z=             -0.0000  Tot=              0.0000
 Quadrupole moment (field-independent basis, Debye-Ang):
   XX=            -12.2555   YY=            -18.4001   ZZ=            -12.8980
   XY=              2.5663   XZ=              0.0000   YZ=              0.0000

 Normal termination of Gaussian 09 at Thu Feb 23 17:01:43 2017.
