 Gaussian 09, Revision E.01,
 Gaussian 09:  ES64L-G09RevE.01 30-Nov-2015

 ----------------------------------------------------------------------
 #uhf/gen scf(tight,novaracc,noincfock,fulldiag) stable(crhf) guess=rea
 d geom=nocrowd test
 ----------------------------------------------------------------------

 hf stability analysis of h10 triangular lattice, y= 0.3255205158934494
 9 alpha= 10.400000000000000
 ----------------------------------------------------------------------
 Symbolic Z-matrix:
 Charge =  0 Multiplicity = 1

                         Standard orientation:
 ---------------------------------------------------------------------
 Center     Atomic      Atomic             Coordinates (Angstroms)
 Number     Number       Type             X           Y           Z
 ---------------------------------------------------------------------
      1          1           0        1.280691   -2.469819   -0.000000
      2          1           0        1.280691   -4.273065   -0.000000
      3          1           0        0.640345   -0.784098   -0.000000
      4          1           0        0.640345   -2.587344   -0.000000
      5          1           0        0.000000    0.901623    0.000000
      6          1           0       -0.000000   -0.901623    0.000000
      7          1           0       -0.640345    2.587344   -0.000000
      8          1           0       -0.640345    0.784098   -0.000000
      9          1           0       -1.280691    4.273065   -0.000000
     10          1           0       -1.280691    2.469819   -0.000000
 ---------------------------------------------------------------------

 SCF Done:  E(UHF) =  -5.19027785503     A.U. after    7 cycles
 E2 =    -0.3885064106D-01 EUMP2 =    -0.52291284960824D+01

 Unable to determine electronic state:  partially filled degenerate orbitals.
 Alpha  occ. eigenvalues --   -0.73605  -0.69899  -0.63837  -0.56681  -0.46472
 Alpha virt. eigenvalues --    0.15712   0.33585   0.42053   0.54739   0.67201
  Beta  occ. eigenvalues --   -0.73605  -0.69899  -0.63837  -0.56681  -0.46472
  Beta virt. eigenvalues --    0.15712   0.33585   0.42053   0.54739   0.67201

 Mulliken charges and spin densities:
               1          2
     1  H   -0.002923  -0.000096
     2  H    0.001908  -1.001800
     3  H   -0.000244   0.000966
     4  H    0.000154   0.002798
     5  H    0.001105   0.001771
     6  H    0.001105  -0.001771
     7  H    0.000154  -0.002798
     8  H   -0.000244  -0.000966
     9  H    0.001908   1.001800
    10  H   -0.002923   0.000096
 Sum of Mulliken charges =   0.00000   0.00000

 Dipole moment (field-independent basis, Debye):
    X=              0.0000    Y=             -0.0000    Z=              0.0000  Tot=              0.0000
 Quadrupole moment (field-independent basis, Debye-Ang):
   XX=            -12.1418   YY=            -17.0698   ZZ=            -13.0607
   XY=              1.5767   XZ=             -0.0000   YZ=             -0.0000

 Normal termination of Gaussian 09 at Thu Feb 23 17:02:09 2017.
