 Gaussian 09, Revision E.01,
 Gaussian 09:  ES64L-G09RevE.01 30-Nov-2015

 ----------------------------------------------------------------------
 #uhf/gen scf(tight,novaracc,noincfock,fulldiag) stable(crhf) guess=rea
 d geom=nocrowd test
 ----------------------------------------------------------------------

 hf stability analysis of h10 triangular lattice, y= 0.3533094255888762
 9 alpha= 12.199999999999999
 ----------------------------------------------------------------------
 Symbolic Z-matrix:
 Charge =  0 Multiplicity = 1

                         Standard orientation:
 ---------------------------------------------------------------------
 Center     Atomic      Atomic             Coordinates (Angstroms)
 Number     Number       Type             X           Y           Z
 ---------------------------------------------------------------------
      1          1           0        1.381321   -2.209166    0.000000
      2          1           0        1.381321   -3.881044    0.000000
      3          1           0        0.690660   -0.686613    0.000000
      4          1           0        0.690660   -2.358492    0.000000
      5          1           0        0.000000    0.835939   -0.000000
      6          1           0       -0.000000   -0.835939   -0.000000
      7          1           0       -0.690660    2.358492    0.000000
      8          1           0       -0.690660    0.686613    0.000000
      9          1           0       -1.381321    3.881044    0.000000
     10          1           0       -1.381321    2.209166    0.000000
 ---------------------------------------------------------------------

 SCF Done:  E(UHF) =  -5.19302420843     A.U. after    9 cycles
 E2 =    -0.4391240118D-01 EUMP2 =    -0.52369366096074D+01

 Unable to determine electronic state:  partially filled degenerate orbitals.
 Alpha  occ. eigenvalues --   -0.74304  -0.69704  -0.62040  -0.52563  -0.43522
 Alpha virt. eigenvalues --    0.17172   0.27697   0.37153   0.51593   0.66023
  Beta  occ. eigenvalues --   -0.74304  -0.69704  -0.62040  -0.52563  -0.43522
  Beta virt. eigenvalues --    0.17172   0.27697   0.37153   0.51593   0.66023

 Mulliken charges and spin densities:
               1          2
     1  H   -0.004112  -0.006792
     2  H   -0.005735  -0.993921
     3  H    0.000389   0.003506
     4  H    0.007277   0.003353
     5  H    0.002180   0.005740
     6  H    0.002180  -0.005740
     7  H    0.007277  -0.003353
     8  H    0.000389  -0.003506
     9  H   -0.005735   0.993921
    10  H   -0.004112   0.006792
 Sum of Mulliken charges =  -0.00000   0.00000

 Dipole moment (field-independent basis, Debye):
    X=             -0.0000    Y=              0.0000    Z=             -0.0000  Tot=              0.0000
 Quadrupole moment (field-independent basis, Debye-Ang):
   XX=            -12.2303   YY=            -18.2605   ZZ=            -12.9132
   XY=              2.4540   XZ=              0.0000   YZ=              0.0000

 Normal termination of Gaussian 09 at Thu Feb 23 17:01:45 2017.
