 Gaussian 09, Revision E.01,
 Gaussian 09:  ES64L-G09RevE.01 30-Nov-2015

 ----------------------------------------------------------------------
 #uhf/gen scf(tight,novaracc,noincfock,fulldiag) stable(crhf) guess=rea
 d geom=nocrowd test
 ----------------------------------------------------------------------

 hf stability analysis of h10 triangular lattice, y= 0.3708695720272197
 6 alpha= 13.400000000000000
 ----------------------------------------------------------------------
 Symbolic Z-matrix:
 Charge =  0 Multiplicity = 1

                         Standard orientation:
 ---------------------------------------------------------------------
 Center     Atomic      Atomic             Coordinates (Angstroms)
 Number     Number       Type             X           Y           Z
 ---------------------------------------------------------------------
      1          1           0        1.443092   -2.056679   -0.000000
      2          1           0        1.443092   -3.656994   -0.000000
      3          1           0        0.721546   -0.628261   -0.000000
      4          1           0        0.721546   -2.228575   -0.000000
      5          1           0        0.000000    0.800157    0.000000
      6          1           0       -0.000000   -0.800157    0.000000
      7          1           0       -0.721546    2.228575   -0.000000
      8          1           0       -0.721546    0.628261   -0.000000
      9          1           0       -1.443092    3.656994   -0.000000
     10          1           0       -1.443092    2.056679   -0.000000
 ---------------------------------------------------------------------

 SCF Done:  E(UHF) =  -5.16800203274     A.U. after   10 cycles
 E2 =    -0.4739461922D-01 EUMP2 =    -0.52153966519624D+01

 Unable to determine electronic state:  partially filled degenerate orbitals.
 Alpha  occ. eigenvalues --   -0.74919  -0.69740  -0.61096  -0.50278  -0.41017
 Alpha virt. eigenvalues --    0.18241   0.24222   0.34238   0.49672   0.65184
  Beta  occ. eigenvalues --   -0.74919  -0.69740  -0.61096  -0.50278  -0.41017
  Beta virt. eigenvalues --    0.18241   0.24222   0.34238   0.49672   0.65184

 Mulliken charges and spin densities:
               1          2
     1  H   -0.005322  -0.015998
     2  H   -0.014465  -0.984824
     3  H    0.001604   0.007619
     4  H    0.015084   0.005622
     5  H    0.003099   0.011523
     6  H    0.003099  -0.011523
     7  H    0.015084  -0.005622
     8  H    0.001604  -0.007619
     9  H   -0.014465   0.984824
    10  H   -0.005322   0.015998
 Sum of Mulliken charges =  -0.00000   0.00000

 Dipole moment (field-independent basis, Debye):
    X=             -0.0000    Y=             -0.0000    Z=              0.0000  Tot=              0.0000
 Quadrupole moment (field-independent basis, Debye-Ang):
   XX=            -12.4357   YY=            -19.1160   ZZ=            -12.8256
   XY=              3.1741   XZ=             -0.0000   YZ=             -0.0000

 Normal termination of Gaussian 09 at Thu Feb 23 17:01:29 2017.
