 Gaussian 09, Revision E.01,
 Gaussian 09:  ES64L-G09RevE.01 30-Nov-2015

 ----------------------------------------------------------------------
 #uhf/gen scf(tight,novaracc,noincfock,fulldiag) stable(crhf) guess=rea
 d geom=nocrowd test
 ----------------------------------------------------------------------

 hf stability analysis of h10 triangular lattice, y= 0.3472963558201168
 6 alpha= 11.800000000000001
 ----------------------------------------------------------------------
 Symbolic Z-matrix:
 Charge =  0 Multiplicity = 1

                         Standard orientation:
 ---------------------------------------------------------------------
 Center     Atomic      Atomic             Coordinates (Angstroms)
 Number     Number       Type             X           Y           Z
 ---------------------------------------------------------------------
      1          1           0        1.359828   -2.263372    0.000000
      2          1           0        1.359828   -3.961676    0.000000
      3          1           0        0.679914   -0.707110    0.000000
      4          1           0        0.679914   -2.405414    0.000000
      5          1           0        0.000000    0.849152   -0.000000
      6          1           0       -0.000000   -0.849152   -0.000000
      7          1           0       -0.679914    2.405414    0.000000
      8          1           0       -0.679914    0.707110    0.000000
      9          1           0       -1.359828    3.961676    0.000000
     10          1           0       -1.359828    2.263372    0.000000
 ---------------------------------------------------------------------

 SCF Done:  E(UHF) =  -5.19711346815     A.U. after    8 cycles
 E2 =    -0.4276738455D-01 EUMP2 =    -0.52398808527087D+01

 Unable to determine electronic state:  partially filled degenerate orbitals.
 Alpha  occ. eigenvalues --   -0.74125  -0.69719  -0.62397  -0.53405  -0.44268
 Alpha virt. eigenvalues --    0.16829   0.28931   0.38181   0.52260   0.66288
  Beta  occ. eigenvalues --   -0.74125  -0.69719  -0.62397  -0.53405  -0.44268
  Beta virt. eigenvalues --    0.16829   0.28931   0.38181   0.52260   0.66288

 Mulliken charges and spin densities:
               1          2
     1  H   -0.003802  -0.004724
     2  H   -0.003511  -0.996220
     3  H    0.000157   0.002673
     4  H    0.005254   0.003067
     5  H    0.001902   0.004493
     6  H    0.001902  -0.004493
     7  H    0.005254  -0.003067
     8  H    0.000157  -0.002673
     9  H   -0.003511   0.996220
    10  H   -0.003802   0.004724
 Sum of Mulliken charges =  -0.00000   0.00000

 Dipole moment (field-independent basis, Debye):
    X=             -0.0000    Y=              0.0000    Z=             -0.0000  Tot=              0.0000
 Quadrupole moment (field-independent basis, Debye-Ang):
   XX=            -12.1897   YY=            -17.9854   ZZ=            -12.9444
   XY=              2.2384   XZ=              0.0000   YZ=              0.0000

 Normal termination of Gaussian 09 at Thu Feb 23 17:01:51 2017.
