 Gaussian 09, Revision E.01,
 Gaussian 09:  ES64L-G09RevE.01 30-Nov-2015

 ----------------------------------------------------------------------
 #uhf/gen scf(tight,novaracc,noincfock,fulldiag) stable(crhf) guess=rea
 d geom=nocrowd test
 ----------------------------------------------------------------------

 hf stability analysis of h10 triangular lattice, y= 0.4633731184901936
 9 alpha= 20.399999999999999
 ----------------------------------------------------------------------
 Symbolic Z-matrix:
 Charge =  0 Multiplicity = 1

                         Standard orientation:
 ---------------------------------------------------------------------
 Center     Atomic      Atomic             Coordinates (Angstroms)
 Number     Number       Type             X           Y           Z
 ---------------------------------------------------------------------
      1          1           0        1.737245   -1.347944   -0.000000
      2          1           0        1.737245   -2.677291   -0.000000
      3          1           0        0.868623   -0.341636   -0.000000
      4          1           0        0.868623   -1.670982   -0.000000
      5          1           0        0.000000    0.664673    0.000000
      6          1           0       -0.000000   -0.664673    0.000000
      7          1           0       -0.868623    1.670982    0.000000
      8          1           0       -0.868623    0.341636    0.000000
      9          1           0       -1.737245    2.677291    0.000000
     10          1           0       -1.737245    1.347944    0.000000
 ---------------------------------------------------------------------

 SCF Done:  E(UHF) =  -4.80555238675     A.U. after   20 cycles
 E2 =    -0.7604931484D-01 EUMP2 =    -0.48816017015969D+01

 Unable to determine electronic state:  partially filled degenerate orbitals.
 Alpha  occ. eigenvalues --   -0.81677  -0.69941  -0.57062  -0.37466  -0.25153
 Alpha virt. eigenvalues --    0.07319   0.16195   0.20448   0.38616   0.62260
  Beta  occ. eigenvalues --   -0.81677  -0.69941  -0.57062  -0.37466  -0.25153
  Beta virt. eigenvalues --    0.07319   0.16195   0.20448   0.38616   0.62260

 Mulliken charges and spin densities:
               1          2
     1  H    0.036459  -0.500562
     2  H    0.015346   0.456468
     3  H   -0.079568  -0.195943
     4  H    0.049255  -0.228742
     5  H   -0.021492   0.331700
     6  H   -0.021492  -0.331700
     7  H    0.049255   0.228742
     8  H   -0.079568   0.195943
     9  H    0.015346  -0.456468
    10  H    0.036459   0.500562
 Sum of Mulliken charges =  -0.00000  -0.00000

 Dipole moment (field-independent basis, Debye):
    X=              0.0000    Y=             -0.0000    Z=              0.0000  Tot=              0.0000
 Quadrupole moment (field-independent basis, Debye-Ang):
   XX=            -13.1748   YY=            -12.3929   ZZ=            -13.0364
   XY=             -1.8583   XZ=              0.0000   YZ=              0.0000

 Normal termination of Gaussian 09 at Thu Feb 23 16:59:59 2017.
