 Gaussian 09, Revision E.01,
 Gaussian 09:  ES64L-G09RevE.01 30-Nov-2015

 ----------------------------------------------------------------------
 #uhf/gen scf(tight,novaracc,noincfock,fulldiag) stable(crhf) guess=rea
 d geom=nocrowd test
 ----------------------------------------------------------------------

 hf stability analysis of h10 triangular lattice, y= 0.2884396766747220
 9 alpha= 8.1999999999999993
 ----------------------------------------------------------------------
 Symbolic Z-matrix:
 Charge =  0 Multiplicity = 1

                         Standard orientation:
 ---------------------------------------------------------------------
 Center     Atomic      Atomic             Coordinates (Angstroms)
 Number     Number       Type             X           Y           Z
 ---------------------------------------------------------------------
      1          1           0        1.141963   -2.868903   -0.000000
      2          1           0        1.141963   -4.891211   -0.000000
      3          1           0        0.570981   -0.928874   -0.000000
      4          1           0        0.570981   -2.951183   -0.000000
      5          1           0        0.000000    1.011154    0.000000
      6          1           0       -0.000000   -1.011154    0.000000
      7          1           0       -0.570981    2.951183   -0.000000
      8          1           0       -0.570981    0.928874   -0.000000
      9          1           0       -1.141963    4.891211   -0.000000
     10          1           0       -1.141963    2.868903   -0.000000
 ---------------------------------------------------------------------

 SCF Done:  E(UHF) =  -5.08659525609     A.U. after    7 cycles
 E2 =    -0.3306416163D-01 EUMP2 =    -0.51196594177149D+01

 Unable to determine electronic state:  partially filled degenerate orbitals.
 Alpha  occ. eigenvalues --   -0.73204  -0.70679  -0.66771  -0.62621  -0.48679
 Alpha virt. eigenvalues --    0.14268   0.42330   0.49279   0.59325   0.68855
  Beta  occ. eigenvalues --   -0.73204  -0.70679  -0.66771  -0.62621  -0.48679
  Beta virt. eigenvalues --    0.14268   0.42330   0.49279   0.59325   0.68855

 Mulliken charges and spin densities:
               1          2
     1  H   -0.001862   0.002142
     2  H    0.004595  -1.004576
     3  H   -0.000245   0.000143
     4  H   -0.002868   0.002582
     5  H    0.000379   0.000282
     6  H    0.000379  -0.000282
     7  H   -0.002868  -0.002582
     8  H   -0.000245  -0.000143
     9  H    0.004595   1.004576
    10  H   -0.001862  -0.002142
 Sum of Mulliken charges =   0.00000   0.00000

 Dipole moment (field-independent basis, Debye):
    X=              0.0000    Y=             -0.0000    Z=             -0.0000  Tot=              0.0000
 Quadrupole moment (field-independent basis, Debye-Ang):
   XX=            -12.3005   YY=            -15.7943   ZZ=            -13.2587
   XY=              0.8064   XZ=              0.0000   YZ=              0.0000

 Normal termination of Gaussian 09 at Thu Feb 23 17:02:38 2017.
