 Gaussian 09, Revision E.01,
 Gaussian 09:  ES64L-G09RevE.01 30-Nov-2015

 ----------------------------------------------------------------------
 #uhf/gen scf(tight,novaracc,noincfock,fulldiag) stable(crhf) guess=rea
 d geom=nocrowd test
 ----------------------------------------------------------------------

 hf stability analysis of h10 triangular lattice, y= 0.4014960725920105
 3 alpha= 15.600000000000000
 ----------------------------------------------------------------------
 Symbolic Z-matrix:
 Charge =  0 Multiplicity = 1

                         Standard orientation:
 ---------------------------------------------------------------------
 Center     Atomic      Atomic             Coordinates (Angstroms)
 Number     Number       Type             X           Y           Z
 ---------------------------------------------------------------------
      1          1           0        1.546824   -1.807612    0.000000
      2          1           0        1.546824   -3.300608    0.000000
      3          1           0        0.773412   -0.530557    0.000000
      4          1           0        0.773412   -2.023553    0.000000
      5          1           0        0.000000    0.746498    0.000000
      6          1           0       -0.000000   -0.746498   -0.000000
      7          1           0       -0.773412    2.023553    0.000000
      8          1           0       -0.773412    0.530557    0.000000
      9          1           0       -1.546824    3.300608    0.000000
     10          1           0       -1.546824    1.807612    0.000000
 ---------------------------------------------------------------------

 SCF Done:  E(UHF) =  -5.08502187482     A.U. after   11 cycles
 E2 =    -0.5374373195D-01 EUMP2 =    -0.51387656067664D+01

 Unable to determine electronic state:  partially filled degenerate orbitals.
 Alpha  occ. eigenvalues --   -0.76349  -0.70098  -0.59784  -0.46803  -0.35826
 Alpha virt. eigenvalues --    0.17881   0.20943   0.29447   0.46366   0.63374
  Beta  occ. eigenvalues --   -0.76349  -0.70098  -0.59784  -0.46803  -0.35826
  Beta virt. eigenvalues --    0.17881   0.20943   0.29447   0.46366   0.63374

 Mulliken charges and spin densities:
               1          2
     1  H   -0.010129  -0.055480
     2  H   -0.039472  -0.957737
     3  H    0.007846   0.029268
     4  H    0.037727   0.025415
     5  H    0.004027   0.038532
     6  H    0.004027  -0.038532
     7  H    0.037727  -0.025415
     8  H    0.007846  -0.029268
     9  H   -0.039472   0.957737
    10  H   -0.010129   0.055480
 Sum of Mulliken charges =   0.00000  -0.00000

 Dipole moment (field-independent basis, Debye):
    X=             -0.0000    Y=              0.0000    Z=             -0.0000  Tot=              0.0000
 Quadrupole moment (field-independent basis, Debye-Ang):
   XX=            -13.2084   YY=            -20.7437   ZZ=            -12.6906
   XY=              4.7762   XZ=              0.0000   YZ=             -0.0000

 Normal termination of Gaussian 09 at Thu Feb 23 17:00:59 2017.
