 Gaussian 09, Revision E.01,
 Gaussian 09:  ES64L-G09RevE.01 30-Nov-2015

 ----------------------------------------------------------------------
 #uhf/gen scf(tight,novaracc,noincfock,fulldiag) stable(crhf) guess=rea
 d geom=nocrowd test
 ----------------------------------------------------------------------

 hf stability analysis of h10 triangular lattice, y= 0.2738333615898873
 0 alpha= 7.4000000000000004
 ----------------------------------------------------------------------
 Symbolic Z-matrix:
 Charge =  0 Multiplicity = 1

                         Standard orientation:
 ---------------------------------------------------------------------
 Center     Atomic      Atomic             Coordinates (Angstroms)
 Number     Number       Type             X           Y           Z
 ---------------------------------------------------------------------
      1          1           0        1.086211   -3.048088    0.000000
      2          1           0        1.086211   -5.174196    0.000000
      3          1           0        0.543105   -0.992517    0.000000
      4          1           0        0.543105   -3.118625    0.000000
      5          1           0        0.000000    1.063054    0.000000
      6          1           0       -0.000000   -1.063054    0.000000
      7          1           0       -0.543105    3.118625    0.000000
      8          1           0       -0.543105    0.992517    0.000000
      9          1           0       -1.086211    5.174196    0.000000
     10          1           0       -1.086211    3.048088    0.000000
 ---------------------------------------------------------------------

 SCF Done:  E(UHF) =  -5.00770973420     A.U. after    6 cycles
 E2 =    -0.3109140031D-01 EUMP2 =    -0.50388011345099D+01

 Unable to determine electronic state:  partially filled degenerate orbitals.
 Alpha  occ. eigenvalues --   -0.73233  -0.71164  -0.68055  -0.64909  -0.49162
 Alpha virt. eigenvalues --    0.13844   0.46109   0.52389   0.61322   0.69663
  Beta  occ. eigenvalues --   -0.73233  -0.71164  -0.68055  -0.64909  -0.49162
  Beta virt. eigenvalues --    0.13844   0.46109   0.52389   0.61322   0.69663

 Mulliken charges and spin densities:
               1          2
     1  H   -0.001520   0.002110
     2  H    0.004361  -1.004352
     3  H   -0.000186   0.000062
     4  H   -0.002892   0.002300
     5  H    0.000237   0.000119
     6  H    0.000237  -0.000119
     7  H   -0.002892  -0.002300
     8  H   -0.000186  -0.000062
     9  H    0.004361   1.004352
    10  H   -0.001520  -0.002110
 Sum of Mulliken charges =   0.00000  -0.00000

 Dipole moment (field-independent basis, Debye):
    X=             -0.0000    Y=              0.0000    Z=              0.0000  Tot=              0.0000
 Quadrupole moment (field-independent basis, Debye-Ang):
   XX=            -12.4093   YY=            -15.3828   ZZ=            -13.3316
   XY=              0.6001   XZ=             -0.0000   YZ=             -0.0000

 Normal termination of Gaussian 09 at Thu Feb 23 17:02:49 2017.
