 Gaussian 09, Revision E.01,
 Gaussian 09:  ES64L-G09RevE.01 30-Nov-2015

 ----------------------------------------------------------------------
 #uhf/gen scf(tight,novaracc,noincfock,fulldiag) stable(crhf) guess=rea
 d geom=nocrowd test
 ----------------------------------------------------------------------

 hf stability analysis of h10 triangular lattice, y= 0.2292225818925564
 5 alpha= 5.2000000000000002
 ----------------------------------------------------------------------
 Symbolic Z-matrix:
 Charge =  0 Multiplicity = 1

                         Standard orientation:
 ---------------------------------------------------------------------
 Center     Atomic      Atomic             Coordinates (Angstroms)
 Number     Number       Type             X           Y           Z
 ---------------------------------------------------------------------
      1          1           0        0.913117   -3.710611   -0.000000
      2          1           0        0.913117   -6.239752   -0.000000
      3          1           0        0.456558   -1.223020   -0.000000
      4          1           0        0.456558   -3.752161   -0.000000
      5          1           0        0.000000    1.264571    0.000000
      6          1           0       -0.000000   -1.264571    0.000000
      7          1           0       -0.456558    3.752161   -0.000000
      8          1           0       -0.456558    1.223020   -0.000000
      9          1           0       -0.913117    6.239752   -0.000000
     10          1           0       -0.913117    3.710611   -0.000000
 ---------------------------------------------------------------------

 SCF Done:  E(UHF) =  -4.59421521217     A.U. after    5 cycles
 E2 =    -0.2605294863D-01 EUMP2 =    -0.46202681607973D+01

 Unable to determine electronic state:  partially filled degenerate orbitals.
 Alpha  occ. eigenvalues --   -0.74118  -0.73295  -0.72189  -0.71227  -0.49852
 Alpha virt. eigenvalues --    0.12975   0.58947   0.63000   0.68478   0.73333
  Beta  occ. eigenvalues --   -0.74118  -0.73295  -0.72189  -0.71227  -0.49852
  Beta virt. eigenvalues --    0.12975   0.58947   0.63000   0.68478   0.73333

 Mulliken charges and spin densities:
               1          2
     1  H   -0.000670   0.001096
     2  H    0.002201  -1.002200
     3  H   -0.000049   0.000004
     4  H   -0.001529   0.001104
     5  H    0.000047   0.000003
     6  H    0.000047  -0.000003
     7  H   -0.001529  -0.001104
     8  H   -0.000049  -0.000004
     9  H    0.002201   1.002200
    10  H   -0.000670  -0.001096
 Sum of Mulliken charges =  -0.00000  -0.00000

 Dipole moment (field-independent basis, Debye):
    X=             -0.0000    Y=              0.0000    Z=             -0.0000  Tot=              0.0000
 Quadrupole moment (field-independent basis, Debye-Ang):
   XX=            -12.7820   YY=            -14.4111   ZZ=            -13.5108
   XY=              0.2096   XZ=             -0.0000   YZ=             -0.0000

 Normal termination of Gaussian 09 at Thu Feb 23 17:03:17 2017.
