 Gaussian 09, Revision E.01,
 Gaussian 09:  ES64L-G09RevE.01 30-Nov-2015

 ----------------------------------------------------------------------
 #uhf/gen scf(tight,novaracc,noincfock,fulldiag) stable(crhf) guess=rea
 d geom=nocrowd test
 ----------------------------------------------------------------------

 hf stability analysis of h10 triangular lattice, y= 0.4805451482874157
 4 alpha= 21.800000000000001
 ----------------------------------------------------------------------
 Symbolic Z-matrix:
 Charge =  0 Multiplicity = 1

                         Standard orientation:
 ---------------------------------------------------------------------
 Center     Atomic      Atomic             Coordinates (Angstroms)
 Number     Number       Type             X           Y           Z
 ---------------------------------------------------------------------
      1          1           0        1.784717   -1.227144    0.000000
      2          1           0        1.784717   -2.521131    0.000000
      3          1           0        0.892359   -0.290075    0.000000
      4          1           0        0.892359   -1.584062    0.000000
      5          1           0        0.000000    0.646993    0.000000
      6          1           0       -0.000000   -0.646993    0.000000
      7          1           0       -0.892359    1.584062    0.000000
      8          1           0       -0.892359    0.290075    0.000000
      9          1           0       -1.784717    2.521131    0.000000
     10          1           0       -1.784717    1.227144    0.000000
 ---------------------------------------------------------------------

 SCF Done:  E(UHF) =  -4.83152280404     A.U. after   15 cycles
 E2 =    -0.7274780017D-01 EUMP2 =    -0.49042706042024D+01

 Unable to determine electronic state:  partially filled degenerate orbitals.
 Alpha  occ. eigenvalues --   -0.82411  -0.70479  -0.56946  -0.36743  -0.27587
 Alpha virt. eigenvalues --    0.08452   0.16687   0.22152   0.38572   0.61444
  Beta  occ. eigenvalues --   -0.82411  -0.70479  -0.56946  -0.36743  -0.27587
  Beta virt. eigenvalues --    0.08452   0.16687   0.22152   0.38572   0.61444

 Mulliken charges and spin densities:
               1          2
     1  H    0.058926  -0.470711
     2  H    0.005735   0.524591
     3  H   -0.098216  -0.222535
     4  H    0.039919  -0.245537
     5  H   -0.006364   0.328534
     6  H   -0.006364  -0.328534
     7  H    0.039919   0.245537
     8  H   -0.098216   0.222535
     9  H    0.005735  -0.524591
    10  H    0.058926   0.470711
 Sum of Mulliken charges =  -0.00000   0.00000

 Dipole moment (field-independent basis, Debye):
    X=             -0.0000    Y=              0.0000    Z=              0.0000  Tot=              0.0000
 Quadrupole moment (field-independent basis, Debye-Ang):
   XX=            -13.0446   YY=            -13.1678   ZZ=            -13.0150
   XY=             -1.5934   XZ=              0.0000   YZ=              0.0000

 Normal termination of Gaussian 09 at Thu Feb 23 16:59:40 2017.
