 Gaussian 09, Revision E.01,
 Gaussian 09:  ES64L-G09RevE.01 30-Nov-2015

 ----------------------------------------------------------------------
 #uhf/gen scf(tight,novaracc,noincfock,fulldiag) stable(crhf) guess=rea
 d geom=nocrowd test
 ----------------------------------------------------------------------

 hf stability analysis of h10 triangular lattice, y= 0.3057946069064340
 6 alpha= 9.1999999999999993
 ----------------------------------------------------------------------
 Symbolic Z-matrix:
 Charge =  0 Multiplicity = 1

                         Standard orientation:
 ---------------------------------------------------------------------
 Center     Atomic      Atomic             Coordinates (Angstroms)
 Number     Number       Type             X           Y           Z
 ---------------------------------------------------------------------
      1          1           0        1.207444   -2.673392    0.000000
      2          1           0        1.207444   -4.586028    0.000000
      3          1           0        0.603722   -0.858537    0.000000
      4          1           0        0.603722   -2.771173    0.000000
      5          1           0        0.000000    0.956318   -0.000000
      6          1           0       -0.000000   -0.956318   -0.000000
      7          1           0       -0.603722    2.771173    0.000000
      8          1           0       -0.603722    0.858537    0.000000
      9          1           0       -1.207444    4.586028    0.000000
     10          1           0       -1.207444    2.673392    0.000000
 ---------------------------------------------------------------------

 SCF Done:  E(UHF) =  -5.15105041456     A.U. after    7 cycles
 E2 =    -0.3563190662D-01 EUMP2 =    -0.51866823211841D+01

 Unable to determine electronic state:  partially filled degenerate orbitals.
 Alpha  occ. eigenvalues --   -0.73312  -0.70236  -0.65331  -0.59834  -0.47851
 Alpha virt. eigenvalues --    0.14875   0.38095   0.45786   0.57106   0.68036
  Beta  occ. eigenvalues --   -0.73312  -0.70236  -0.65331  -0.59834  -0.47851
  Beta virt. eigenvalues --    0.14875   0.38095   0.45786   0.57106   0.68036

 Mulliken charges and spin densities:
               1          2
     1  H   -0.002315   0.001657
     2  H    0.004094  -1.004050
     3  H   -0.000294   0.000361
     4  H   -0.002124   0.002762
     5  H    0.000639   0.000701
     6  H    0.000639  -0.000701
     7  H   -0.002124  -0.002762
     8  H   -0.000294  -0.000361
     9  H    0.004094   1.004050
    10  H   -0.002315  -0.001657
 Sum of Mulliken charges =  -0.00000   0.00000

 Dipole moment (field-independent basis, Debye):
    X=              0.0000    Y=             -0.0000    Z=              0.0000  Tot=              0.0000
 Quadrupole moment (field-independent basis, Debye-Ang):
   XX=            -12.1988   YY=            -16.3484   ZZ=            -13.1672
   XY=              1.1180   XZ=             -0.0000   YZ=             -0.0000

 Normal termination of Gaussian 09 at Thu Feb 23 17:02:25 2017.
