 Gaussian 09, Revision E.01,
 Gaussian 09:  ES64L-G09RevE.01 30-Nov-2015

 ----------------------------------------------------------------------
 #uhf/gen scf(tight,novaracc,noincfock,fulldiag) stable(crhf) guess=rea
 d geom=nocrowd test
 ----------------------------------------------------------------------

 hf stability analysis of h10 triangular lattice, y= 0.3381100930164076
 5 alpha= 11.199999999999999
 ----------------------------------------------------------------------
 Symbolic Z-matrix:
 Charge =  0 Multiplicity = 1

                         Standard orientation:
 ---------------------------------------------------------------------
 Center     Atomic      Atomic             Coordinates (Angstroms)
 Number     Number       Type             X           Y           Z
 ---------------------------------------------------------------------
      1          1           0        1.326683   -2.348409   -0.000000
      2          1           0        1.326683   -4.089141   -0.000000
      3          1           0        0.663342   -0.739021   -0.000000
      4          1           0        0.663342   -2.479754   -0.000000
      5          1           0        0.000000    0.870366    0.000000
      6          1           0       -0.000000   -0.870366    0.000000
      7          1           0       -0.663342    2.479754   -0.000000
      8          1           0       -0.663342    0.739021   -0.000000
      9          1           0       -1.326683    4.089141   -0.000000
     10          1           0       -1.326683    2.348409   -0.000000
 ---------------------------------------------------------------------

 SCF Done:  E(UHF) =  -5.19853102005     A.U. after    7 cycles
 E2 =    -0.4106996336D-01 EUMP2 =    -0.52396009834135D+01

 Unable to determine electronic state:  partially filled degenerate orbitals.
 Alpha  occ. eigenvalues --   -0.73881  -0.69771  -0.62976  -0.54748  -0.45293
 Alpha virt. eigenvalues --    0.16333   0.30857   0.39785   0.53292   0.66679
  Beta  occ. eigenvalues --   -0.73881  -0.69771  -0.62976  -0.54748  -0.45293
  Beta virt. eigenvalues --    0.16333   0.30857   0.39785   0.53292   0.66679

 Mulliken charges and spin densities:
               1          2
     1  H   -0.003393  -0.002307
     2  H   -0.000762  -0.999054
     3  H   -0.000080   0.001753
     4  H    0.002709   0.002861
     5  H    0.001526   0.003062
     6  H    0.001526  -0.003062
     7  H    0.002709  -0.002861
     8  H   -0.000080  -0.001753
     9  H   -0.000762   0.999054
    10  H   -0.003393   0.002307
 Sum of Mulliken charges =  -0.00000   0.00000

 Dipole moment (field-independent basis, Debye):
    X=              0.0000    Y=             -0.0000    Z=              0.0000  Tot=              0.0000
 Quadrupole moment (field-independent basis, Debye-Ang):
   XX=            -12.1522   YY=            -17.5836   ZZ=            -12.9930
   XY=              1.9374   XZ=             -0.0000   YZ=              0.0000

 Normal termination of Gaussian 09 at Thu Feb 23 17:01:59 2017.
