 Gaussian 09, Revision E.01,
 Gaussian 09:  ES64L-G09RevE.01 30-Nov-2015

 ----------------------------------------------------------------------
 #uhf/gen scf(tight,novaracc,noincfock,fulldiag) stable(crhf) guess=rea
 d geom=nocrowd test
 ----------------------------------------------------------------------

 hf stability analysis of h10 triangular lattice, y= 0.4095555687169111
 8 alpha= 16.199999999999999
 ----------------------------------------------------------------------
 Symbolic Z-matrix:
 Charge =  0 Multiplicity = 1

                         Standard orientation:
 ---------------------------------------------------------------------
 Center     Atomic      Atomic             Coordinates (Angstroms)
 Number     Number       Type             X           Y           Z
 ---------------------------------------------------------------------
      1          1           0        1.573174   -1.744932   -0.000000
      2          1           0        1.573174   -3.212920   -0.000000
      3          1           0        0.786587   -0.505469   -0.000000
      4          1           0        0.786587   -1.973457   -0.000000
      5          1           0        0.000000    0.733994   -0.000000
      6          1           0       -0.000000   -0.733994    0.000000
      7          1           0       -0.786587    1.973457   -0.000000
      8          1           0       -0.786587    0.505469   -0.000000
      9          1           0       -1.573174    3.212920   -0.000000
     10          1           0       -1.573174    1.744932   -0.000000
 ---------------------------------------------------------------------

 SCF Done:  E(UHF) =  -5.05656002505     A.U. after   11 cycles
 E2 =    -0.5533805985D-01 EUMP2 =    -0.51118980849000D+01

 Unable to determine electronic state:  partially filled degenerate orbitals.
 Alpha  occ. eigenvalues --   -0.76816  -0.70263  -0.59507  -0.45960  -0.34385
 Alpha virt. eigenvalues --    0.16482   0.21467   0.28249   0.45494   0.62804
  Beta  occ. eigenvalues --   -0.76816  -0.70263  -0.59507  -0.45960  -0.34385
  Beta virt. eigenvalues --    0.16482   0.21467   0.28249   0.45494   0.62804

 Mulliken charges and spin densities:
               1          2
     1  H   -0.012769  -0.076758
     2  H   -0.048409  -0.947372
     3  H    0.011342   0.042237
     4  H    0.046423   0.039428
     5  H    0.003413   0.053744
     6  H    0.003413  -0.053744
     7  H    0.046423  -0.039428
     8  H    0.011342  -0.042237
     9  H   -0.048409   0.947372
    10  H   -0.012769   0.076758
 Sum of Mulliken charges =  -0.00000   0.00000

 Dipole moment (field-independent basis, Debye):
    X=              0.0000    Y=             -0.0000    Z=              0.0000  Tot=              0.0000
 Quadrupole moment (field-independent basis, Debye-Ang):
   XX=            -13.5284   YY=            -21.1749   ZZ=            -12.6605
   XY=              5.2667   XZ=             -0.0000   YZ=             -0.0000

 Normal termination of Gaussian 09 at Thu Feb 23 17:00:51 2017.
