 Gaussian 09, Revision E.01,
 Gaussian 09:  ES64L-G09RevE.01 30-Nov-2015

 ----------------------------------------------------------------------
 #uhf/gen scf(tight,novaracc,noincfock,fulldiag) stable(crhf) guess=rea
 d geom=nocrowd test
 ----------------------------------------------------------------------

 hf stability analysis of h10 triangular lattice, y= 0.2379279101569440
 6 alpha= 5.5999999999999996
 ----------------------------------------------------------------------
 Symbolic Z-matrix:
 Charge =  0 Multiplicity = 1

                         Standard orientation:
 ---------------------------------------------------------------------
 Center     Atomic      Atomic             Coordinates (Angstroms)
 Number     Number       Type             X           Y           Z
 ---------------------------------------------------------------------
      1          1           0        0.947169   -3.564449    0.000000
      2          1           0        0.947169   -6.002662    0.000000
      3          1           0        0.473585   -1.172671    0.000000
      4          1           0        0.473585   -3.610884    0.000000
      5          1           0        0.000000    1.219107    0.000000
      6          1           0       -0.000000   -1.219107    0.000000
      7          1           0       -0.473585    3.610884   -0.000000
      8          1           0       -0.473585    1.172671   -0.000000
      9          1           0       -0.947169    6.002662   -0.000000
     10          1           0       -0.947169    3.564449   -0.000000
 ---------------------------------------------------------------------

 SCF Done:  E(UHF) =  -4.69866593396     A.U. after    6 cycles
 E2 =    -0.2692782896D-01 EUMP2 =    -0.47255937629209D+01

 Unable to determine electronic state:  partially filled degenerate orbitals.
 Alpha  occ. eigenvalues --   -0.73842  -0.72802  -0.71372  -0.70089  -0.49783
 Alpha virt. eigenvalues --    0.13100   0.56288   0.60787   0.66929   0.72428
  Beta  occ. eigenvalues --   -0.73842  -0.72802  -0.71372  -0.70089  -0.49783
  Beta virt. eigenvalues --    0.13100   0.56288   0.60787   0.66929   0.72428

 Mulliken charges and spin densities:
               1          2
     1  H   -0.000812   0.001322
     2  H    0.002661  -1.002660
     3  H   -0.000067   0.000007
     4  H   -0.001849   0.001339
     5  H    0.000066   0.000007
     6  H    0.000066  -0.000007
     7  H   -0.001849  -0.001339
     8  H   -0.000067  -0.000007
     9  H    0.002661   1.002660
    10  H   -0.000812  -0.001322
 Sum of Mulliken charges =   0.00000   0.00000

 Dipole moment (field-independent basis, Debye):
    X=             -0.0000    Y=              0.0000    Z=             -0.0000  Tot=              0.0000
 Quadrupole moment (field-independent basis, Debye-Ang):
   XX=            -12.7103   YY=            -14.5686   ZZ=            -13.4826
   XY=              0.2627   XZ=             -0.0000   YZ=              0.0000

 Normal termination of Gaussian 09 at Thu Feb 23 17:03:12 2017.
