 Gaussian 09, Revision E.01,
 Gaussian 09:  ES64L-G09RevE.01 30-Nov-2015

 ----------------------------------------------------------------------
 #uhf/gen scf(tight,novaracc,noincfock,fulldiag) stable(crhf) guess=rea
 d geom=nocrowd test
 ----------------------------------------------------------------------

 hf stability analysis of h10 triangular lattice, y= 0.4658451521794359
 5 alpha= 20.600000000000001
 ----------------------------------------------------------------------
 Symbolic Z-matrix:
 Charge =  0 Multiplicity = 1

                         Standard orientation:
 ---------------------------------------------------------------------
 Center     Atomic      Atomic             Coordinates (Angstroms)
 Number     Number       Type             X           Y           Z
 ---------------------------------------------------------------------
      1          1           0        1.744235   -1.330414    0.000000
      2          1           0        1.744235   -2.654433    0.000000
      3          1           0        0.872118   -0.334202    0.000000
      4          1           0        0.872118   -1.658222    0.000000
      5          1           0       -0.000000    0.662010    0.000000
      6          1           0       -0.000000   -0.662010    0.000000
      7          1           0       -0.872118    1.658222   -0.000000
      8          1           0       -0.872118    0.334202   -0.000000
      9          1           0       -1.744235    2.654433   -0.000000
     10          1           0       -1.744235    1.330414   -0.000000
 ---------------------------------------------------------------------

 SCF Done:  E(UHF) =  -4.80964882652     A.U. after   17 cycles
 E2 =    -0.7368332820D-01 EUMP2 =    -0.48833321547183D+01

 Unable to determine electronic state:  partially filled degenerate orbitals.
 Alpha  occ. eigenvalues --   -0.81795  -0.69930  -0.57117  -0.37552  -0.25553
 Alpha virt. eigenvalues --    0.07582   0.16671   0.20606   0.38591   0.62267
  Beta  occ. eigenvalues --   -0.81795  -0.69930  -0.57117  -0.37552  -0.25553
  Beta virt. eigenvalues --    0.07582   0.16671   0.20606   0.38591   0.62267

 Mulliken charges and spin densities:
               1          2
     1  H    0.043041  -0.493302
     2  H    0.018189   0.507216
     3  H   -0.085982  -0.213758
     4  H    0.040250  -0.245774
     5  H   -0.015498   0.335746
     6  H   -0.015498  -0.335746
     7  H    0.040250   0.245774
     8  H   -0.085982   0.213758
     9  H    0.018189  -0.507216
    10  H    0.043041   0.493302
 Sum of Mulliken charges =  -0.00000   0.00000

 Dipole moment (field-independent basis, Debye):
    X=             -0.0000    Y=              0.0000    Z=             -0.0000  Tot=              0.0000
 Quadrupole moment (field-independent basis, Debye-Ang):
   XX=            -13.0336   YY=            -12.3472   ZZ=            -13.0296
   XY=             -2.0006   XZ=             -0.0000   YZ=             -0.0000

 Normal termination of Gaussian 09 at Thu Feb 23 16:59:57 2017.
