 Gaussian 09, Revision E.01,
 Gaussian 09:  ES64L-G09RevE.01 30-Nov-2015

 ----------------------------------------------------------------------
 #uhf/gen scf(tight,novaracc,noincfock,fulldiag) stable(crhf) guess=rea
 d geom=nocrowd test
 ----------------------------------------------------------------------

 hf stability analysis of h10 triangular lattice, y= 0.2584602623460263
 7 alpha= 6.5999999999999996
 ----------------------------------------------------------------------
 Symbolic Z-matrix:
 Charge =  0 Multiplicity = 1

                         Standard orientation:
 ---------------------------------------------------------------------
 Center     Atomic      Atomic             Coordinates (Angstroms)
 Number     Number       Type             X           Y           Z
 ---------------------------------------------------------------------
      1          1           0        1.026990   -3.254237    0.000000
      2          1           0        1.026990   -5.502947    0.000000
      3          1           0        0.513495   -1.064941    0.000000
      4          1           0        0.513495   -3.313651   -0.000000
      5          1           0        0.000000    1.124355    0.000000
      6          1           0       -0.000000   -1.124355    0.000000
      7          1           0       -0.513495    3.313651   -0.000000
      8          1           0       -0.513495    1.064941   -0.000000
      9          1           0       -1.026990    5.502947   -0.000000
     10          1           0       -1.026990    3.254237   -0.000000
 ---------------------------------------------------------------------

 SCF Done:  E(UHF) =  -4.89718630391     A.U. after    6 cycles
 E2 =    -0.2919390040D-01 EUMP2 =    -0.49263802043135D+01

 Unable to determine electronic state:  partially filled degenerate orbitals.
 Alpha  occ. eigenvalues --   -0.73394  -0.71787  -0.69456  -0.67216  -0.49509
 Alpha virt. eigenvalues --    0.13477   0.50311   0.55847   0.63586   0.70684
  Beta  occ. eigenvalues --   -0.73394  -0.71787  -0.69456  -0.67216  -0.49509
  Beta virt. eigenvalues --    0.13477   0.50311   0.55847   0.63586   0.70684

 Mulliken charges and spin densities:
               1          2
     1  H   -0.001194   0.001840
     2  H    0.003738  -1.003734
     3  H   -0.000127   0.000025
     4  H   -0.002558   0.001912
     5  H    0.000141   0.000042
     6  H    0.000141  -0.000042
     7  H   -0.002558  -0.001912
     8  H   -0.000127  -0.000025
     9  H    0.003738   1.003734
    10  H   -0.001194  -0.001840
 Sum of Mulliken charges =  -0.00000   0.00000

 Dipole moment (field-independent basis, Debye):
    X=              0.0000    Y=              0.0000    Z=             -0.0000  Tot=              0.0000
 Quadrupole moment (field-independent basis, Debye-Ang):
   XX=            -12.5362   YY=            -15.0009   ZZ=            -13.4022
   XY=              0.4294   XZ=              0.0000   YZ=              0.0000

 Normal termination of Gaussian 09 at Thu Feb 23 17:02:59 2017.
