 Gaussian 09, Revision E.01,
 Gaussian 09:  ES64L-G09RevE.01 30-Nov-2015

 ----------------------------------------------------------------------
 #uhf/gen scf(tight,novaracc,noincfock,fulldiag) stable(crhf) guess=rea
 d geom=nocrowd test
 ----------------------------------------------------------------------

 hf stability analysis of h10 triangular lattice, y= 0.3765777897089523
 4 alpha= 13.800000000000001
 ----------------------------------------------------------------------
 Symbolic Z-matrix:
 Charge =  0 Multiplicity = 1

                         Standard orientation:
 ---------------------------------------------------------------------
 Center     Atomic      Atomic             Coordinates (Angstroms)
 Number     Number       Type             X           Y           Z
 ---------------------------------------------------------------------
      1          1           0        1.462830   -2.008776   -0.000000
      2          1           0        1.462830   -3.587497   -0.000000
      3          1           0        0.731415   -0.609708   -0.000000
      4          1           0        0.731415   -2.188429   -0.000000
      5          1           0        0.000000    0.789361    0.000000
      6          1           0       -0.000000   -0.789361    0.000000
      7          1           0       -0.731415    2.188429   -0.000000
      8          1           0       -0.731415    0.609708   -0.000000
      9          1           0       -1.462830    3.587497   -0.000000
     10          1           0       -1.462830    2.008776   -0.000000
 ---------------------------------------------------------------------

 SCF Done:  E(UHF) =  -5.15602316725     A.U. after   10 cycles
 E2 =    -0.4856422206D-01 EUMP2 =    -0.52045873893138D+01

 Unable to determine electronic state:  partially filled degenerate orbitals.
 Alpha  occ. eigenvalues --   -0.75149  -0.69777  -0.60820  -0.49588  -0.40112
 Alpha virt. eigenvalues --    0.18593   0.23144   0.33318   0.49053   0.64885
  Beta  occ. eigenvalues --   -0.75149  -0.69777  -0.60820  -0.49588  -0.40112
  Beta virt. eigenvalues --    0.18593   0.23144   0.33318   0.49053   0.64885

 Mulliken charges and spin densities:
               1          2
     1  H   -0.005867  -0.020416
     2  H   -0.018113  -0.980982
     3  H    0.002250   0.009776
     4  H    0.018323   0.007167
     5  H    0.003407   0.014403
     6  H    0.003407  -0.014403
     7  H    0.018323  -0.007167
     8  H    0.002250  -0.009776
     9  H   -0.018113   0.980982
    10  H   -0.005867   0.020416
 Sum of Mulliken charges =  -0.00000   0.00000

 Dipole moment (field-independent basis, Debye):
    X=             -0.0000    Y=              0.0000    Z=              0.0000  Tot=              0.0000
 Quadrupole moment (field-independent basis, Debye-Ang):
   XX=            -12.5350   YY=            -19.4092   ZZ=            -12.7984
   XY=              3.4388   XZ=             -0.0000   YZ=              0.0000

 Normal termination of Gaussian 09 at Thu Feb 23 17:01:23 2017.
