 Gaussian 09, Revision E.01,
 Gaussian 09:  ES64L-G09RevE.01 30-Nov-2015

 ----------------------------------------------------------------------
 #uhf/gen scf(tight,novaracc,noincfock,fulldiag) stable(crhf) guess=rea
 d geom=nocrowd test
 ----------------------------------------------------------------------

 hf stability analysis of h10 triangular lattice, y= 0.3679895202330282
 8 alpha= 13.199999999999999
 ----------------------------------------------------------------------
 Symbolic Z-matrix:
 Charge =  0 Multiplicity = 1

                         Standard orientation:
 ---------------------------------------------------------------------
 Center     Atomic      Atomic             Coordinates (Angstroms)
 Number     Number       Type             X           Y           Z
 ---------------------------------------------------------------------
      1          1           0        1.433067   -2.081141   -0.000000
      2          1           0        1.433067   -3.692650   -0.000000
      3          1           0        0.716534   -0.637693   -0.000000
      4          1           0        0.716534   -2.249202   -0.000000
      5          1           0        0.000000    0.805755    0.000000
      6          1           0       -0.000000   -0.805755    0.000000
      7          1           0       -0.716534    2.249202   -0.000000
      8          1           0       -0.716534    0.637693   -0.000000
      9          1           0       -1.433067    3.692650   -0.000000
     10          1           0       -1.433067    2.081141   -0.000000
 ---------------------------------------------------------------------

 SCF Done:  E(UHF) =  -5.17336270318     A.U. after   10 cycles
 E2 =    -0.4681072101D-01 EUMP2 =    -0.52201734241941D+01

 Unable to determine electronic state:  partially filled degenerate orbitals.
 Alpha  occ. eigenvalues --   -0.74809  -0.69726  -0.61241  -0.50635  -0.41458
 Alpha virt. eigenvalues --    0.18062   0.24777   0.34708   0.49984   0.65330
  Beta  occ. eigenvalues --   -0.74809  -0.69726  -0.61241  -0.50635  -0.41458
  Beta virt. eigenvalues --    0.18062   0.24777   0.34708   0.49984   0.65330

 Mulliken charges and spin densities:
               1          2
     1  H   -0.005082  -0.014081
     2  H   -0.012784  -0.986585
     3  H    0.001334   0.006716
     4  H    0.013590   0.005034
     5  H    0.002942   0.010292
     6  H    0.002942  -0.010292
     7  H    0.013590  -0.005034
     8  H    0.001334  -0.006716
     9  H   -0.012784   0.986585
    10  H   -0.005082   0.014081
 Sum of Mulliken charges =  -0.00000  -0.00000

 Dipole moment (field-independent basis, Debye):
    X=              0.0000    Y=             -0.0000    Z=              0.0000  Tot=              0.0000
 Quadrupole moment (field-independent basis, Debye-Ang):
   XX=            -12.3921   YY=            -18.9706   ZZ=            -12.8395
   XY=              3.0463   XZ=             -0.0000   YZ=             -0.0000

 Normal termination of Gaussian 09 at Thu Feb 23 17:01:32 2017.
