 Gaussian 09, Revision E.01,
 Gaussian 09:  ES64L-G09RevE.01 30-Nov-2015

 ----------------------------------------------------------------------
 #uhf/gen scf(tight,novaracc,noincfock,fulldiag) stable(crhf) guess=rea
 d geom=nocrowd test
 ----------------------------------------------------------------------

 hf stability analysis of h10 triangular lattice, y= 0.4041950807883822
 3 alpha= 15.800000000000001
 ----------------------------------------------------------------------
 Symbolic Z-matrix:
 Charge =  0 Multiplicity = 1

                         Standard orientation:
 ---------------------------------------------------------------------
 Center     Atomic      Atomic             Coordinates (Angstroms)
 Number     Number       Type             X           Y           Z
 ---------------------------------------------------------------------
      1          1           0        1.555695   -1.786505   -0.000000
      2          1           0        1.555695   -3.270987   -0.000000
      3          1           0        0.777848   -0.522132   -0.000000
      4          1           0        0.777848   -2.006614   -0.000000
      5          1           0        0.000000    0.742241   -0.000000
      6          1           0       -0.000000   -0.742241   -0.000000
      7          1           0       -0.777848    2.006614   -0.000000
      8          1           0       -0.777848    0.522132   -0.000000
      9          1           0       -1.555695    3.270987   -0.000000
     10          1           0       -1.555695    1.786505   -0.000000
 ---------------------------------------------------------------------

 SCF Done:  E(UHF) =  -5.07574634577     A.U. after   11 cycles
 E2 =    -0.5428970638D-01 EUMP2 =    -0.51300360521568D+01

 Unable to determine electronic state:  partially filled degenerate orbitals.
 Alpha  occ. eigenvalues --   -0.76501  -0.70149  -0.59688  -0.46519  -0.35344
 Alpha virt. eigenvalues --    0.17426   0.21103   0.29043   0.46075   0.63188
  Beta  occ. eigenvalues --   -0.76501  -0.70149  -0.59688  -0.46519  -0.35344
  Beta virt. eigenvalues --    0.17426   0.21103   0.29043   0.46075   0.63188

 Mulliken charges and spin densities:
               1          2
     1  H   -0.010908  -0.061796
     2  H   -0.042353  -0.954454
     3  H    0.008884   0.033059
     4  H    0.040475   0.029418
     5  H    0.003903   0.043019
     6  H    0.003903  -0.043019
     7  H    0.040475  -0.029418
     8  H    0.008884  -0.033059
     9  H   -0.042353   0.954454
    10  H   -0.010908   0.061796
 Sum of Mulliken charges =  -0.00000   0.00000

 Dipole moment (field-independent basis, Debye):
    X=              0.0000    Y=             -0.0000    Z=              0.0000  Tot=              0.0000
 Quadrupole moment (field-independent basis, Debye-Ang):
   XX=            -13.3091   YY=            -20.8893   ZZ=            -12.6802
   XY=              4.9379   XZ=              0.0000   YZ=             -0.0000

 Normal termination of Gaussian 09 at Thu Feb 23 17:00:56 2017.
