 Gaussian 09, Revision E.01,
 Gaussian 09:  ES64L-G09RevE.01 30-Nov-2015

 ----------------------------------------------------------------------
 #uhf/gen scf(tight,novaracc,noincfock,fulldiag) stable(crhf) guess=rea
 d geom=nocrowd test
 ----------------------------------------------------------------------

 hf stability analysis of h10 triangular lattice, y= 0.3987841068513602
 3 alpha= 15.400000000000000
 ----------------------------------------------------------------------
 Symbolic Z-matrix:
 Charge =  0 Multiplicity = 1

                         Standard orientation:
 ---------------------------------------------------------------------
 Center     Atomic      Atomic             Coordinates (Angstroms)
 Number     Number       Type             X           Y           Z
 ---------------------------------------------------------------------
      1          1           0        1.537864   -1.828943   -0.000000
      2          1           0        1.537864   -3.330637   -0.000000
      3          1           0        0.768932   -0.539048   -0.000000
      4          1           0        0.768932   -2.040742   -0.000000
      5          1           0        0.000000    0.750847    0.000000
      6          1           0       -0.000000   -0.750847    0.000000
      7          1           0       -0.768932    2.040742   -0.000000
      8          1           0       -0.768932    0.539048   -0.000000
      9          1           0       -1.537864    3.330637   -0.000000
     10          1           0       -1.537864    1.828943   -0.000000
 ---------------------------------------------------------------------

 SCF Done:  E(UHF) =  -5.09406371748     A.U. after   10 cycles
 E2 =    -0.5318740394D-01 EUMP2 =    -0.51472511214167D+01

 Unable to determine electronic state:  partially filled degenerate orbitals.
 Alpha  occ. eigenvalues --   -0.76202  -0.70050  -0.59884  -0.47092  -0.36310
 Alpha virt. eigenvalues --    0.18310   0.20815   0.29856   0.46659   0.63557
  Beta  occ. eigenvalues --   -0.76202  -0.70050  -0.59884  -0.47092  -0.36310
  Beta virt. eigenvalues --    0.18310   0.20815   0.29856   0.46659   0.63557

 Mulliken charges and spin densities:
               1          2
     1  H   -0.009433  -0.049814
     2  H   -0.036691  -0.960863
     3  H    0.006918   0.025921
     4  H    0.035117   0.021962
     5  H    0.004090   0.034533
     6  H    0.004090  -0.034533
     7  H    0.035117  -0.021962
     8  H    0.006918  -0.025921
     9  H   -0.036691   0.960863
    10  H   -0.009433   0.049814
 Sum of Mulliken charges =   0.00000  -0.00000

 Dipole moment (field-independent basis, Debye):
    X=             -0.0000    Y=              0.0000    Z=              0.0000  Tot=              0.0000
 Quadrupole moment (field-independent basis, Debye-Ang):
   XX=            -13.1133   YY=            -20.5968   ZZ=            -12.7014
   XY=              4.6168   XZ=              0.0000   YZ=             -0.0000

 Normal termination of Gaussian 09 at Thu Feb 23 17:01:02 2017.
