 Gaussian 09, Revision E.01,
 Gaussian 09:  ES64L-G09RevE.01 30-Nov-2015

 ----------------------------------------------------------------------
 #uhf/gen scf(tight,novaracc,noincfock,fulldiag) stable(crhf) guess=rea
 d geom=nocrowd test
 ----------------------------------------------------------------------

 hf stability analysis of h10 triangular lattice, y= 0.4253593920508348
 4 alpha= 17.399999999999999
 ----------------------------------------------------------------------
 Symbolic Z-matrix:
 Charge =  0 Multiplicity = 1

                         Standard orientation:
 ---------------------------------------------------------------------
 Center     Atomic      Atomic             Coordinates (Angstroms)
 Number     Number       Type             X           Y           Z
 ---------------------------------------------------------------------
      1          1           0        1.623580   -1.624820   -0.000000
      2          1           0        1.623580   -3.047232   -0.000000
      3          1           0        0.811790   -0.456807   -0.000000
      4          1           0        0.811790   -1.879219   -0.000000
      5          1           0        0.000000    0.711206    0.000000
      6          1           0       -0.000000   -0.711206   -0.000000
      7          1           0       -0.811790    1.879219   -0.000000
      8          1           0       -0.811790    0.456807   -0.000000
      9          1           0       -1.623580    3.047232   -0.000000
     10          1           0       -1.623580    1.624820   -0.000000
 ---------------------------------------------------------------------

 SCF Done:  E(UHF) =  -4.99523516603     A.U. after   12 cycles
 E2 =    -0.5768792836D-01 EUMP2 =    -0.50529230943902D+01

 Unable to determine electronic state:  partially filled degenerate orbitals.
 Alpha  occ. eigenvalues --   -0.77879  -0.70711  -0.59063  -0.44356  -0.31652
 Alpha virt. eigenvalues --    0.13639   0.22664   0.25989   0.43756   0.61568
  Beta  occ. eigenvalues --   -0.77879  -0.70711  -0.59063  -0.44356  -0.31652
  Beta virt. eigenvalues --    0.13639   0.22664   0.25989   0.43756   0.61568

 Mulliken charges and spin densities:
               1          2
     1  H   -0.022053  -0.150072
     2  H   -0.068455  -0.920733
     3  H    0.023124   0.089293
     4  H    0.068843   0.094308
     5  H   -0.001459   0.107351
     6  H   -0.001459  -0.107351
     7  H    0.068843  -0.094308
     8  H    0.023124  -0.089293
     9  H   -0.068455   0.920733
    10  H   -0.022053   0.150072
 Sum of Mulliken charges =  -0.00000   0.00000

 Dipole moment (field-independent basis, Debye):
    X=              0.0000    Y=             -0.0000    Z=              0.0000  Tot=              0.0000
 Quadrupole moment (field-independent basis, Debye-Ang):
   XX=            -14.3450   YY=            -21.9295   ZZ=            -12.6127
   XY=              6.2534   XZ=             -0.0000   YZ=              0.0000

 Normal termination of Gaussian 09 at Thu Feb 23 17:00:34 2017.
