 Gaussian 09, Revision E.01,
 Gaussian 09:  ES64L-G09RevE.01 30-Nov-2015

 ----------------------------------------------------------------------
 #uhf/gen scf(tight,novaracc,noincfock,fulldiag) stable(crhf) guess=rea
 d geom=nocrowd test
 ----------------------------------------------------------------------

 hf stability analysis of h10 triangular lattice, y= 0.4926415667038366
 9 alpha= 22.800000000000001
 ----------------------------------------------------------------------
 Symbolic Z-matrix:
 Charge =  0 Multiplicity = 1

                         Standard orientation:
 ---------------------------------------------------------------------
 Center     Atomic      Atomic             Coordinates (Angstroms)
 Number     Number       Type             X           Y           Z
 ---------------------------------------------------------------------
      1          1           0        1.816592   -1.143298    0.000000
      2          1           0        1.816592   -2.414580    0.000000
      3          1           0        0.908296   -0.253828    0.000000
      4          1           0        0.908296   -1.525110    0.000000
      5          1           0        0.000000    0.635641   -0.000000
      6          1           0       -0.000000   -0.635641   -0.000000
      7          1           0       -0.908296    1.525110    0.000000
      8          1           0       -0.908296    0.253828    0.000000
      9          1           0       -1.816592    2.414580    0.000000
     10          1           0       -1.816592    1.143298    0.000000
 ---------------------------------------------------------------------

 SCF Done:  E(UHF) =  -4.84607283055     A.U. after   14 cycles
 E2 =    -0.7361146353D-01 EUMP2 =    -0.49196842940828D+01

 Unable to determine electronic state:  partially filled degenerate orbitals.
 Alpha  occ. eigenvalues --   -0.82912  -0.70954  -0.56762  -0.35965  -0.29127
 Alpha virt. eigenvalues --    0.08670   0.16359   0.23630   0.39103   0.60673
  Beta  occ. eigenvalues --   -0.82912  -0.70954  -0.56762  -0.35965  -0.29127
  Beta virt. eigenvalues --    0.08670   0.16359   0.23630   0.39103   0.60673

 Mulliken charges and spin densities:
               1          2
     1  H    0.069551  -0.456605
     2  H   -0.008168   0.504990
     3  H   -0.106699  -0.215573
     4  H    0.046013  -0.238143
     5  H   -0.000698   0.314676
     6  H   -0.000698  -0.314676
     7  H    0.046013   0.238143
     8  H   -0.106699   0.215573
     9  H   -0.008168  -0.504990
    10  H    0.069551   0.456605
 Sum of Mulliken charges =  -0.00000   0.00000

 Dipole moment (field-independent basis, Debye):
    X=             -0.0000    Y=              0.0000    Z=              0.0000  Tot=              0.0000
 Quadrupole moment (field-independent basis, Debye-Ang):
   XX=            -13.1862   YY=            -13.8513   ZZ=            -13.0058
   XY=             -1.1195   XZ=              0.0000   YZ=              0.0000

 Normal termination of Gaussian 09 at Thu Feb 23 16:59:26 2017.
