 Gaussian 09, Revision E.01,
 Gaussian 09:  ES64L-G09RevE.01 30-Nov-2015

 ----------------------------------------------------------------------
 #uhf/gen scf(tight,novaracc,noincfock,fulldiag) stable(crhf) guess=rea
 d geom=nocrowd test
 ----------------------------------------------------------------------

 hf stability analysis of h10 triangular lattice, y= 0.3905669283099810
 8 alpha= 14.800000000000001
 ----------------------------------------------------------------------
 Symbolic Z-matrix:
 Charge =  0 Multiplicity = 1

                         Standard orientation:
 ---------------------------------------------------------------------
 Center     Atomic      Atomic             Coordinates (Angstroms)
 Number     Number       Type             X           Y           Z
 ---------------------------------------------------------------------
      1          1           0        1.510437   -1.894369   -0.000000
      2          1           0        1.510437   -3.423331   -0.000000
      3          1           0        0.755218   -0.564944   -0.000000
      4          1           0        0.755218   -2.093906   -0.000000
      5          1           0        0.000000    0.764481    0.000000
      6          1           0       -0.000000   -0.764481   -0.000000
      7          1           0       -0.755218    2.093906   -0.000000
      8          1           0       -0.755218    0.564944   -0.000000
      9          1           0       -1.510437    3.423331   -0.000000
     10          1           0       -1.510437    1.894369   -0.000000
 ---------------------------------------------------------------------

 SCF Done:  E(UHF) =  -5.11962535241     A.U. after   10 cycles
 E2 =    -0.5147711942D-01 EUMP2 =    -0.51711024718365D+01

 Unable to determine electronic state:  partially filled degenerate orbitals.
 Alpha  occ. eigenvalues --   -0.75782  -0.69925  -0.60206  -0.47986  -0.37757
 Alpha virt. eigenvalues --    0.19110   0.20947   0.31115   0.47544   0.64081
  Beta  occ. eigenvalues --   -0.75782  -0.69925  -0.60206  -0.47986  -0.37757
  Beta virt. eigenvalues --    0.19110   0.20947   0.31115   0.47544   0.64081

 Mulliken charges and spin densities:
               1          2
     1  H   -0.007750  -0.035982
     2  H   -0.028962  -0.969371
     3  H    0.004674   0.018018
     4  H    0.028026   0.014222
     5  H    0.004012   0.024903
     6  H    0.004012  -0.024903
     7  H    0.028026  -0.014222
     8  H    0.004674  -0.018018
     9  H   -0.028962   0.969371
    10  H   -0.007750   0.035982
 Sum of Mulliken charges =   0.00000  -0.00000

 Dipole moment (field-independent basis, Debye):
    X=              0.0000    Y=             -0.0000    Z=              0.0000  Tot=              0.0000
 Quadrupole moment (field-independent basis, Debye-Ang):
   XX=            -12.8600   YY=            -20.1517   ZZ=            -12.7355
   XY=              4.1536   XZ=             -0.0000   YZ=              0.0000

 Normal termination of Gaussian 09 at Thu Feb 23 17:01:10 2017.
