 Gaussian 09, Revision E.01,
 Gaussian 09:  ES64L-G09RevE.01 30-Nov-2015

 ----------------------------------------------------------------------
 #uhf/gen scf(tight,novaracc,noincfock,fulldiag) stable(crhf) guess=rea
 d geom=nocrowd test
 ----------------------------------------------------------------------

 hf stability analysis of h10 triangular lattice, y= 0.2775517524837422
 0 alpha= 7.5999999999999996
 ----------------------------------------------------------------------
 Symbolic Z-matrix:
 Charge =  0 Multiplicity = 1

                         Standard orientation:
 ---------------------------------------------------------------------
 Center     Atomic      Atomic             Coordinates (Angstroms)
 Number     Number       Type             X           Y           Z
 ---------------------------------------------------------------------
      1          1           0        1.100454   -3.001051    0.000000
      2          1           0        1.100454   -5.099639    0.000000
      3          1           0        0.550227   -0.975878    0.000000
      4          1           0        0.550227   -3.074467    0.000000
      5          1           0        0.000000    1.049294   -0.000000
      6          1           0       -0.000000   -1.049294    0.000000
      7          1           0       -0.550227    3.074467   -0.000000
      8          1           0       -0.550227    0.975878    0.000000
      9          1           0       -1.100454    5.099639   -0.000000
     10          1           0       -1.100454    3.001051    0.000000
 ---------------------------------------------------------------------

 SCF Done:  E(UHF) =  -5.03008468935     A.U. after    6 cycles
 E2 =    -0.3157760072D-01 EUMP2 =    -0.50616622900781D+01

 Unable to determine electronic state:  partially filled degenerate orbitals.
 Alpha  occ. eigenvalues --   -0.73215  -0.71030  -0.67723  -0.64334  -0.49055
 Alpha virt. eigenvalues --    0.13945   0.45127   0.51581   0.60801   0.69444
  Beta  occ. eigenvalues --   -0.73215  -0.71030  -0.67723  -0.64334  -0.49055
  Beta virt. eigenvalues --    0.13945   0.45127   0.51581   0.60801   0.69444

 Mulliken charges and spin densities:
               1          2
     1  H   -0.001604   0.002145
     2  H    0.004462  -1.004451
     3  H   -0.000201   0.000077
     4  H   -0.002925   0.002382
     5  H    0.000268   0.000150
     6  H    0.000268  -0.000150
     7  H   -0.002925  -0.002382
     8  H   -0.000201  -0.000077
     9  H    0.004462   1.004451
    10  H   -0.001604  -0.002145
 Sum of Mulliken charges =   0.00000  -0.00000

 Dipole moment (field-independent basis, Debye):
    X=              0.0000    Y=             -0.0000    Z=              0.0000  Tot=              0.0000
 Quadrupole moment (field-independent basis, Debye-Ang):
   XX=            -12.3802   YY=            -15.4830   ZZ=            -13.3135
   XY=              0.6482   XZ=              0.0000   YZ=              0.0000

 Normal termination of Gaussian 09 at Thu Feb 23 17:02:46 2017.
