 Gaussian 09, Revision E.01,
 Gaussian 09:  ES64L-G09RevE.01 30-Nov-2015

 ----------------------------------------------------------------------
 #uhf/gen scf(tight,novaracc,noincfock,fulldiag) stable(crhf) guess=rea
 d geom=nocrowd test
 ----------------------------------------------------------------------

 hf stability analysis of h10 triangular lattice, y= 0.4148681665323517
 6 alpha= 16.600000000000001
 ----------------------------------------------------------------------
 Symbolic Z-matrix:
 Charge =  0 Multiplicity = 1

                         Standard orientation:
 ---------------------------------------------------------------------
 Center     Atomic      Atomic             Coordinates (Angstroms)
 Number     Number       Type             X           Y           Z
 ---------------------------------------------------------------------
      1          1           0        1.590310   -1.704163    0.000000
      2          1           0        1.590310   -3.156334    0.000000
      3          1           0        0.795155   -0.489039    0.000000
      4          1           0        0.795155   -1.941209    0.000000
      5          1           0       -0.000000    0.726085    0.000000
      6          1           0       -0.000000   -0.726085    0.000000
      7          1           0       -0.795155    1.941209   -0.000000
      8          1           0       -0.795155    0.489039   -0.000000
      9          1           0       -1.590310    3.156334   -0.000000
     10          1           0       -1.590310    1.704163   -0.000000
 ---------------------------------------------------------------------

 SCF Done:  E(UHF) =  -5.03664129194     A.U. after   11 cycles
 E2 =    -0.5629772730D-01 EUMP2 =    -0.50929390192394D+01

 Unable to determine electronic state:  partially filled degenerate orbitals.
 Alpha  occ. eigenvalues --   -0.77149  -0.70392  -0.59341  -0.45414  -0.33442
 Alpha virt. eigenvalues --    0.15526   0.21859   0.27475   0.44915   0.62405
  Beta  occ. eigenvalues --   -0.77149  -0.70392  -0.59341  -0.45414  -0.33442
  Beta virt. eigenvalues --    0.15526   0.21859   0.27475   0.44915   0.62405

 Mulliken charges and spin densities:
               1          2
     1  H   -0.015138  -0.095619
     2  H   -0.054829  -0.939510
     3  H    0.014423   0.054098
     4  H    0.053057   0.052834
     5  H    0.002487   0.067404
     6  H    0.002487  -0.067404
     7  H    0.053057  -0.052834
     8  H    0.014423  -0.054098
     9  H   -0.054829   0.939510
    10  H   -0.015138   0.095619
 Sum of Mulliken charges =   0.00000   0.00000

 Dipole moment (field-independent basis, Debye):
    X=             -0.0000    Y=              0.0000    Z=              0.0000  Tot=              0.0000
 Quadrupole moment (field-independent basis, Debye-Ang):
   XX=            -13.7730   YY=            -21.4489   ZZ=            -12.6425
   XY=              5.6000   XZ=             -0.0000   YZ=              0.0000

 Normal termination of Gaussian 09 at Thu Feb 23 17:00:45 2017.
