 Gaussian 09, Revision E.01,
 Gaussian 09:  ES64L-G09RevE.01 30-Nov-2015

 ----------------------------------------------------------------------
 #uhf/gen scf(tight,novaracc,noincfock,fulldiag) stable(crhf) guess=rea
 d geom=nocrowd test
 ----------------------------------------------------------------------

 hf stability analysis of h10 triangular lattice, y= 0.4853991015761644
 5 alpha= 22.199999999999999
 ----------------------------------------------------------------------
 Symbolic Z-matrix:
 Charge =  0 Multiplicity = 1

                         Standard orientation:
 ---------------------------------------------------------------------
 Center     Atomic      Atomic             Coordinates (Angstroms)
 Number     Number       Type             X           Y           Z
 ---------------------------------------------------------------------
      1          1           0        1.797667   -1.193384    0.000000
      2          1           0        1.797667   -2.478050    0.000000
      3          1           0        0.898833   -0.275526    0.000000
      4          1           0        0.898833   -1.560191    0.000000
      5          1           0        0.000000    0.642333   -0.000000
      6          1           0       -0.000000   -0.642333   -0.000000
      7          1           0       -0.898833    1.560191    0.000000
      8          1           0       -0.898833    0.275526   -0.000000
      9          1           0       -1.797667    2.478050    0.000000
     10          1           0       -1.797667    1.193384    0.000000
 ---------------------------------------------------------------------

 SCF Done:  E(UHF) =  -4.83772411327     A.U. after   15 cycles
 E2 =    -0.7302867302D-01 EUMP2 =    -0.49107527862922D+01

 Unable to determine electronic state:  partially filled degenerate orbitals.
 Alpha  occ. eigenvalues --   -0.82613  -0.70672  -0.56872  -0.36431  -0.28217
 Alpha virt. eigenvalues --    0.08597   0.16529   0.22768   0.38716   0.61138
  Beta  occ. eigenvalues --   -0.82613  -0.70672  -0.56872  -0.36431  -0.28217
  Beta virt. eigenvalues --    0.08597   0.16529   0.22768   0.38716   0.61138

 Mulliken charges and spin densities:
               1          2
     1  H    0.063296  -0.464813
     2  H    0.000287   0.518130
     3  H   -0.101609  -0.220476
     4  H    0.042125  -0.242548
     5  H   -0.004099   0.323551
     6  H   -0.004099  -0.323551
     7  H    0.042125   0.242548
     8  H   -0.101609   0.220476
     9  H    0.000287  -0.518130
    10  H    0.063296   0.464813
 Sum of Mulliken charges =   0.00000  -0.00000

 Dipole moment (field-independent basis, Debye):
    X=              0.0000    Y=             -0.0000    Z=              0.0000  Tot=              0.0000
 Quadrupole moment (field-independent basis, Debye-Ang):
   XX=            -13.0935   YY=            -13.4517   ZZ=            -13.0112
   XY=             -1.4073   XZ=             -0.0000   YZ=             -0.0000

 Normal termination of Gaussian 09 at Thu Feb 23 16:59:35 2017.
