 Gaussian 09, Revision E.01,
 Gaussian 09:  ES64L-G09RevE.01 30-Nov-2015

 ----------------------------------------------------------------------
 #uhf/gen scf(tight,novaracc,noincfock,fulldiag) stable(crhf) guess=rea
 d geom=nocrowd test
 ----------------------------------------------------------------------

 hf stability analysis of h10 triangular lattice, y= 0.2919857406029052
 2 alpha= 8.4000000000000004
 ----------------------------------------------------------------------
 Symbolic Z-matrix:
 Charge =  0 Multiplicity = 1

                         Standard orientation:
 ---------------------------------------------------------------------
 Center     Atomic      Atomic             Coordinates (Angstroms)
 Number     Number       Type             X           Y           Z
 ---------------------------------------------------------------------
      1          1           0        1.155414   -2.827532   -0.000000
      2          1           0        1.155414   -4.826297   -0.000000
      3          1           0        0.577707   -0.914074   -0.000000
      4          1           0        0.577707   -2.912840   -0.000000
      5          1           0        0.000000    0.999383    0.000000
      6          1           0       -0.000000   -0.999383    0.000000
      7          1           0       -0.577707    2.912840    0.000000
      8          1           0       -0.577707    0.914074    0.000000
      9          1           0       -1.155414    4.826297    0.000000
     10          1           0       -1.155414    2.827532    0.000000
 ---------------------------------------------------------------------

 SCF Done:  E(UHF) =  -5.10223319698     A.U. after    7 cycles
 E2 =    -0.3356885391D-01 EUMP2 =    -0.51358020508955D+01

 Unable to determine electronic state:  partially filled degenerate orbitals.
 Alpha  occ. eigenvalues --   -0.73214  -0.70577  -0.66469  -0.62056  -0.48535
 Alpha virt. eigenvalues --    0.14382   0.41442   0.48548   0.58859   0.68678
  Beta  occ. eigenvalues --   -0.73214  -0.70577  -0.66469  -0.62056  -0.48535
  Beta virt. eigenvalues --    0.14382   0.41442   0.48548   0.58859   0.68678

 Mulliken charges and spin densities:
               1          2
     1  H   -0.001950   0.002098
     2  H    0.004574  -1.004551
     3  H   -0.000258   0.000174
     4  H   -0.002790   0.002633
     5  H    0.000423   0.000342
     6  H    0.000423  -0.000342
     7  H   -0.002790  -0.002633
     8  H   -0.000258  -0.000174
     9  H    0.004574   1.004551
    10  H   -0.001950  -0.002098
 Sum of Mulliken charges =   0.00000   0.00000

 Dipole moment (field-independent basis, Debye):
    X=             -0.0000    Y=              0.0000    Z=              0.0000  Tot=              0.0000
 Quadrupole moment (field-independent basis, Debye-Ang):
   XX=            -12.2768   YY=            -15.9016   ZZ=            -13.2403
   XY=              0.8638   XZ=             -0.0000   YZ=             -0.0000

 Normal termination of Gaussian 09 at Thu Feb 23 17:02:36 2017.
