 Gaussian 09, Revision E.01,
 Gaussian 09:  ES64L-G09RevE.01 30-Nov-2015

 ----------------------------------------------------------------------
 #uhf/gen scf(tight,novaracc,noincfock,fulldiag) stable(crhf) guess=rea
 d geom=nocrowd test
 ----------------------------------------------------------------------

 hf stability analysis of h10 triangular lattice, y= 0.2336143623688560
 5 alpha= 5.4000000000000004
 ----------------------------------------------------------------------
 Symbolic Z-matrix:
 Charge =  0 Multiplicity = 1

                         Standard orientation:
 ---------------------------------------------------------------------
 Center     Atomic      Atomic             Coordinates (Angstroms)
 Number     Number       Type             X           Y           Z
 ---------------------------------------------------------------------
      1          1           0        0.930310   -3.635658    0.000000
      2          1           0        0.930310   -6.118057    0.000000
      3          1           0        0.465155   -1.197229    0.000000
      4          1           0        0.465155   -3.679628    0.000000
      5          1           0        0.000000    1.241199   -0.000000
      6          1           0       -0.000000   -1.241199   -0.000000
      7          1           0       -0.465155    3.679628    0.000000
      8          1           0       -0.465155    1.197229    0.000000
      9          1           0       -0.930310    6.118057    0.000000
     10          1           0       -0.930310    3.635658    0.000000
 ---------------------------------------------------------------------

 SCF Done:  E(UHF) =  -4.64855366478     A.U. after    6 cycles
 E2 =    -0.2648823716D-01 EUMP2 =    -0.46750419019342D+01

 Unable to determine electronic state:  partially filled degenerate orbitals.
 Alpha  occ. eigenvalues --   -0.73972  -0.73042  -0.71777  -0.70659  -0.49820
 Alpha virt. eigenvalues --    0.13036   0.57596   0.61875   0.67686   0.72863
  Beta  occ. eigenvalues --   -0.73972  -0.73042  -0.71777  -0.70659  -0.49820
  Beta virt. eigenvalues --    0.13036   0.57596   0.61875   0.67686   0.72863

 Mulliken charges and spin densities:
               1          2
     1  H   -0.000740   0.001209
     2  H    0.002431  -1.002430
     3  H   -0.000057   0.000005
     4  H   -0.001690   0.001220
     5  H    0.000056   0.000004
     6  H    0.000056  -0.000004
     7  H   -0.001690  -0.001220
     8  H   -0.000057  -0.000005
     9  H    0.002431   1.002430
    10  H   -0.000740  -0.001209
 Sum of Mulliken charges =   0.00000  -0.00000

 Dipole moment (field-independent basis, Debye):
    X=              0.0000    Y=             -0.0000    Z=              0.0000  Tot=              0.0000
 Quadrupole moment (field-independent basis, Debye-Ang):
   XX=            -12.7461   YY=            -14.4887   ZZ=            -13.4970
   XY=              0.2352   XZ=             -0.0000   YZ=             -0.0000

 Normal termination of Gaussian 09 at Thu Feb 23 17:03:14 2017.
