 Gaussian 09, Revision E.01,
 Gaussian 09:  ES64L-G09RevE.01 30-Nov-2015

 ----------------------------------------------------------------------
 #uhf/gen scf(tight,novaracc,noincfock,fulldiag) stable(crhf) guess=rea
 d geom=nocrowd test
 ----------------------------------------------------------------------

 hf stability analysis of h10 triangular lattice, y= 0.4279559544474910
 2 alpha= 17.600000000000001
 ----------------------------------------------------------------------
 Symbolic Z-matrix:
 Charge =  0 Multiplicity = 1

                         Standard orientation:
 ---------------------------------------------------------------------
 Center     Atomic      Atomic             Coordinates (Angstroms)
 Number     Number       Type             X           Y           Z
 ---------------------------------------------------------------------
      1          1           0        1.631694   -1.605405    0.000000
      2          1           0        1.631694   -3.020744    0.000000
      3          1           0        0.815847   -0.448868    0.000000
      4          1           0        0.815847   -1.864207    0.000000
      5          1           0        0.000000    0.707670    0.000000
      6          1           0       -0.000000   -0.707670    0.000000
      7          1           0       -0.815847    1.864207   -0.000000
      8          1           0       -0.815847    0.448868   -0.000000
      9          1           0       -1.631694    3.020744   -0.000000
     10          1           0       -1.631694    1.605405   -0.000000
 ---------------------------------------------------------------------

 SCF Done:  E(UHF) =  -4.98469679547     A.U. after   12 cycles
 E2 =    -0.5784664744D-01 EUMP2 =    -0.50425434429103D+01

 Unable to determine electronic state:  partially filled degenerate orbitals.
 Alpha  occ. eigenvalues --   -0.78078  -0.70807  -0.59007  -0.44098  -0.31237
 Alpha virt. eigenvalues --    0.13180   0.22865   0.25629   0.43465   0.61353
  Beta  occ. eigenvalues --   -0.78078  -0.70807  -0.59007  -0.44098  -0.31237
  Beta virt. eigenvalues --    0.13180   0.22865   0.25629   0.43465   0.61353

 Mulliken charges and spin densities:
               1          2
     1  H   -0.024367  -0.168201
     2  H   -0.071914  -0.915199
     3  H    0.025952   0.101151
     4  H    0.073384   0.108603
     5  H   -0.003055   0.120757
     6  H   -0.003055  -0.120757
     7  H    0.073384  -0.108603
     8  H    0.025952  -0.101151
     9  H   -0.071914   0.915199
    10  H   -0.024367   0.168201
 Sum of Mulliken charges =  -0.00000  -0.00000

 Dipole moment (field-independent basis, Debye):
    X=             -0.0000    Y=              0.0000    Z=              0.0000  Tot=              0.0000
 Quadrupole moment (field-independent basis, Debye-Ang):
   XX=            -14.5059   YY=            -22.0258   ZZ=            -12.6069
   XY=              6.4054   XZ=             -0.0000   YZ=              0.0000

 Normal termination of Gaussian 09 at Thu Feb 23 17:00:31 2017.
