 Gaussian 09, Revision E.01,
 Gaussian 09:  ES64L-G09RevE.01 30-Nov-2015

 ----------------------------------------------------------------------
 #uhf/gen scf(tight,novaracc,noincfock,fulldiag) stable(crhf) guess=rea
 d geom=nocrowd test
 ----------------------------------------------------------------------

 hf stability analysis of h10 triangular lattice, y= 0.2504402367905124
 2 alpha= 6.2000000000000002
 ----------------------------------------------------------------------
 Symbolic Z-matrix:
 Charge =  0 Multiplicity = 1

                         Standard orientation:
 ---------------------------------------------------------------------
 Center     Atomic      Atomic             Coordinates (Angstroms)
 Number     Number       Type             X           Y           Z
 ---------------------------------------------------------------------
      1          1           0        0.995902   -3.370168   -0.000000
      2          1           0        0.995902   -5.689073   -0.000000
      3          1           0        0.497951   -1.105358   -0.000000
      4          1           0        0.497951   -3.424263   -0.000000
      5          1           0        0.000000    1.159452    0.000000
      6          1           0       -0.000000   -1.159452    0.000000
      7          1           0       -0.497951    3.424263   -0.000000
      8          1           0       -0.497951    1.105358   -0.000000
      9          1           0       -0.995902    5.689073   -0.000000
     10          1           0       -0.995902    3.370168   -0.000000
 ---------------------------------------------------------------------

 SCF Done:  E(UHF) =  -4.82707911931     A.U. after    6 cycles
 E2 =    -0.2827355313D-01 EUMP2 =    -0.48553526724431D+01

 Unable to determine electronic state:  partially filled degenerate orbitals.
 Alpha  occ. eigenvalues --   -0.73536  -0.72159  -0.70201  -0.68369  -0.49637
 Alpha virt. eigenvalues --    0.13315   0.52596   0.57731   0.64844   0.71307
  Beta  occ. eigenvalues --   -0.73536  -0.72159  -0.70201  -0.68369  -0.49637
  Beta virt. eigenvalues --    0.13315   0.52596   0.57731   0.64844   0.71307

 Mulliken charges and spin densities:
               1          2
     1  H   -0.001037   0.001648
     2  H    0.003332  -1.003330
     3  H   -0.000100   0.000015
     4  H   -0.002300   0.001690
     5  H    0.000106   0.000022
     6  H    0.000106  -0.000022
     7  H   -0.002300  -0.001690
     8  H   -0.000100  -0.000015
     9  H    0.003332   1.003330
    10  H   -0.001037  -0.001648
 Sum of Mulliken charges =  -0.00000  -0.00000

 Dipole moment (field-independent basis, Debye):
    X=              0.0000    Y=             -0.0000    Z=             -0.0000  Tot=              0.0000
 Quadrupole moment (field-independent basis, Debye-Ang):
   XX=            -12.6044   YY=            -14.8216   ZZ=            -13.4357
   XY=              0.3567   XZ=             -0.0000   YZ=             -0.0000

 Normal termination of Gaussian 09 at Thu Feb 23 17:03:04 2017.
