 Gaussian 09, Revision E.01,
 Gaussian 09:  ES64L-G09RevE.01 30-Nov-2015

 ----------------------------------------------------------------------
 #uhf/gen scf(tight,novaracc,noincfock,fulldiag) stable(crhf) guess=rea
 d geom=nocrowd test
 ----------------------------------------------------------------------

 hf stability analysis of h10 triangular lattice, y= 0.4122176972190069
 7 alpha= 16.399999999999999
 ----------------------------------------------------------------------
 Symbolic Z-matrix:
 Charge =  0 Multiplicity = 1

                         Standard orientation:
 ---------------------------------------------------------------------
 Center     Atomic      Atomic             Coordinates (Angstroms)
 Number     Number       Type             X           Y           Z
 ---------------------------------------------------------------------
      1          1           0        1.581785   -1.724451   -0.000000
      2          1           0        1.581785   -3.184448   -0.000000
      3          1           0        0.790892   -0.497226   -0.000000
      4          1           0        0.790892   -1.957223   -0.000000
      5          1           0       -0.000000    0.729999    0.000000
      6          1           0       -0.000000   -0.729999    0.000000
      7          1           0       -0.790892    1.957223   -0.000000
      8          1           0       -0.790892    0.497226   -0.000000
      9          1           0       -1.581785    3.184448   -0.000000
     10          1           0       -1.581785    1.724451   -0.000000
 ---------------------------------------------------------------------

 SCF Done:  E(UHF) =  -5.04668324474     A.U. after   11 cycles
 E2 =    -0.5583189364D-01 EUMP2 =    -0.51025151383831D+01

 Unable to determine electronic state:  partially filled degenerate orbitals.
 Alpha  occ. eigenvalues --   -0.76980  -0.70326  -0.59422  -0.45686  -0.33911
 Alpha virt. eigenvalues --    0.16005   0.21661   0.27860   0.45204   0.62606
  Beta  occ. eigenvalues --   -0.76980  -0.70326  -0.59422  -0.45686  -0.33911
  Beta virt. eigenvalues --    0.16005   0.21661   0.27860   0.45204   0.62606

 Mulliken charges and spin densities:
               1          2
     1  H   -0.013881  -0.085633
     2  H   -0.051576  -0.943547
     3  H    0.012795   0.047785
     4  H    0.049647   0.045645
     5  H    0.003015   0.060155
     6  H    0.003015  -0.060155
     7  H    0.049647  -0.045645
     8  H    0.012795  -0.047785
     9  H   -0.051576   0.943547
    10  H   -0.013881   0.085633
 Sum of Mulliken charges =   0.00000   0.00000

 Dipole moment (field-independent basis, Debye):
    X=              0.0000    Y=             -0.0000    Z=              0.0000  Tot=              0.0000
 Quadrupole moment (field-independent basis, Debye-Ang):
   XX=            -13.6475   YY=            -21.3137   ZZ=            -12.6513
   XY=              5.4331   XZ=              0.0000   YZ=             -0.0000

 Normal termination of Gaussian 09 at Thu Feb 23 17:00:48 2017.
