 Gaussian 09, Revision E.01,
 Gaussian 09:  ES64L-G09RevE.01 30-Nov-2015

 ----------------------------------------------------------------------
 #uhf/gen scf(tight,novaracc,noincfock,fulldiag) stable(crhf) guess=rea
 d geom=nocrowd test
 ----------------------------------------------------------------------

 hf stability analysis of h10 triangular lattice, y= 0.4227526086182665
 8 alpha= 17.199999999999999
 ----------------------------------------------------------------------
 Symbolic Z-matrix:
 Charge =  0 Multiplicity = 1

                         Standard orientation:
 ---------------------------------------------------------------------
 Center     Atomic      Atomic             Coordinates (Angstroms)
 Number     Number       Type             X           Y           Z
 ---------------------------------------------------------------------
      1          1           0        1.615386   -1.644397    0.000000
      2          1           0        1.615386   -3.074025    0.000000
      3          1           0        0.807693   -0.464791    0.000000
      4          1           0        0.807693   -1.894420    0.000000
      5          1           0       -0.000000    0.714814    0.000000
      6          1           0       -0.000000   -0.714814   -0.000000
      7          1           0       -0.807693    1.894420    0.000000
      8          1           0       -0.807693    0.464791    0.000000
      9          1           0       -1.615386    3.074025    0.000000
     10          1           0       -1.615386    1.644397    0.000000
 ---------------------------------------------------------------------

 SCF Done:  E(UHF) =  -5.00572611152     A.U. after   12 cycles
 E2 =    -0.5743682791D-01 EUMP2 =    -0.50631629394310D+01

 Unable to determine electronic state:  partially filled degenerate orbitals.
 Alpha  occ. eigenvalues --   -0.77687  -0.70623  -0.59125  -0.44617  -0.32082
 Alpha virt. eigenvalues --    0.14105   0.22462   0.26353   0.44047   0.61781
  Beta  occ. eigenvalues --   -0.77687  -0.70623  -0.59125  -0.44617  -0.32082
  Beta virt. eigenvalues --    0.14105   0.22462   0.26353   0.44047   0.61781

 Mulliken charges and spin densities:
               1          2
     1  H   -0.019995  -0.133918
     2  H   -0.064990  -0.925887
     3  H    0.020576   0.078763
     4  H    0.064547   0.081719
     5  H   -0.000138   0.095443
     6  H   -0.000138  -0.095443
     7  H    0.064547  -0.081719
     8  H    0.020576  -0.078763
     9  H   -0.064990   0.925887
    10  H   -0.019995   0.133918
 Sum of Mulliken charges =   0.00000   0.00000

 Dipole moment (field-independent basis, Debye):
    X=             -0.0000    Y=              0.0000    Z=             -0.0000  Tot=              0.0000
 Quadrupole moment (field-independent basis, Debye-Ang):
   XX=            -14.1913   YY=            -21.8215   ZZ=            -12.6192
   XY=              6.0949   XZ=              0.0000   YZ=             -0.0000

 Normal termination of Gaussian 09 at Thu Feb 23 17:00:36 2017.
