 Gaussian 09, Revision E.01,
 Gaussian 09:  ES64L-G09RevE.01 30-Nov-2015

 ----------------------------------------------------------------------
 #uhf/gen scf(tight,novaracc,noincfock,fulldiag) stable(crhf) guess=rea
 d geom=nocrowd test
 ----------------------------------------------------------------------

 hf stability analysis of h10 triangular lattice, y= 0.4732223767050167
 7 alpha= 21.199999999999999
 ----------------------------------------------------------------------
 Symbolic Z-matrix:
 Charge =  0 Multiplicity = 1

                         Standard orientation:
 ---------------------------------------------------------------------
 Center     Atomic      Atomic             Coordinates (Angstroms)
 Number     Number       Type             X           Y           Z
 ---------------------------------------------------------------------
      1          1           0        1.764786   -1.278387   -0.000000
      2          1           0        1.764786   -2.586988   -0.000000
      3          1           0        0.882393   -0.312043   -0.000000
      4          1           0        0.882393   -1.620644   -0.000000
      5          1           0        0.000000    0.654301    0.000000
      6          1           0       -0.000000   -0.654301   -0.000000
      7          1           0       -0.882393    1.620644   -0.000000
      8          1           0       -0.882393    0.312043   -0.000000
      9          1           0       -1.764786    2.586988   -0.000000
     10          1           0       -1.764786    1.278387   -0.000000
 ---------------------------------------------------------------------

 SCF Done:  E(UHF) =  -4.82120851011     A.U. after   15 cycles
 E2 =    -0.7265050068D-01 EUMP2 =    -0.48938590107908D+01

 Unable to determine electronic state:  partially filled degenerate orbitals.
 Alpha  occ. eigenvalues --   -0.82106  -0.70188  -0.57050  -0.37195  -0.26602
 Alpha virt. eigenvalues --    0.08098   0.16880   0.21256   0.38508   0.61889
  Beta  occ. eigenvalues --   -0.82106  -0.70188  -0.57050  -0.37195  -0.26602
  Beta virt. eigenvalues --    0.08098   0.16880   0.21256   0.38508   0.61889

 Mulliken charges and spin densities:
               1          2
     1  H    0.051872  -0.480622
     2  H    0.013220   0.527568
     3  H   -0.092902  -0.222646
     4  H    0.037854  -0.249002
     5  H   -0.010045   0.334151
     6  H   -0.010045  -0.334151
     7  H    0.037854   0.249002
     8  H   -0.092902   0.222646
     9  H    0.013220  -0.527568
    10  H    0.051872   0.480622
 Sum of Mulliken charges =   0.00000  -0.00000

 Dipole moment (field-independent basis, Debye):
    X=             -0.0000    Y=              0.0000    Z=             -0.0000  Tot=              0.0000
 Quadrupole moment (field-independent basis, Debye-Ang):
   XX=            -13.0000   YY=            -12.7301   ZZ=            -13.0212
   XY=             -1.8476   XZ=             -0.0000   YZ=             -0.0000

 Normal termination of Gaussian 09 at Thu Feb 23 16:59:48 2017.
