 Gaussian 09, Revision E.01,
 Gaussian 09:  ES64L-G09RevE.01 30-Nov-2015

 ----------------------------------------------------------------------
 #uhf/gen scf(tight,novaracc,noincfock,fulldiag) stable(crhf) guess=rea
 d geom=nocrowd test
 ----------------------------------------------------------------------

 hf stability analysis of h10 triangular lattice, y= 0.3124923861548579
 2 alpha= 9.5999999999999996
 ----------------------------------------------------------------------
 Symbolic Z-matrix:
 Charge =  0 Multiplicity = 1

                         Standard orientation:
 ---------------------------------------------------------------------
 Center     Atomic      Atomic             Coordinates (Angstroms)
 Number     Number       Type             X           Y           Z
 ---------------------------------------------------------------------
      1          1           0        1.232465   -2.602254   -0.000000
      2          1           0        1.232465   -4.476061   -0.000000
      3          1           0        0.616232   -0.832675   -0.000000
      4          1           0        0.616232   -2.706482   -0.000000
      5          1           0       -0.000000    0.936903    0.000000
      6          1           0       -0.000000   -0.936903    0.000000
      7          1           0       -0.616232    2.706482   -0.000000
      8          1           0       -0.616232    0.832675   -0.000000
      9          1           0       -1.232465    4.476061   -0.000000
     10          1           0       -1.232465    2.602254   -0.000000
 ---------------------------------------------------------------------

 SCF Done:  E(UHF) =  -5.16819739405     A.U. after    7 cycles
 E2 =    -0.3668897173D-01 EUMP2 =    -0.52048863657761D+01

 Unable to determine electronic state:  partially filled degenerate orbitals.
 Alpha  occ. eigenvalues --   -0.73392  -0.70102  -0.64805  -0.58754  -0.47440
 Alpha virt. eigenvalues --    0.15141   0.36529   0.44492   0.56286   0.67745
  Beta  occ. eigenvalues --   -0.73392  -0.70102  -0.64805  -0.58754  -0.47440
  Beta virt. eigenvalues --    0.15141   0.36529   0.44492   0.56286   0.67745

 Mulliken charges and spin densities:
               1          2
     1  H   -0.002508   0.001242
     2  H    0.003581  -1.003521
     3  H   -0.000295   0.000508
     4  H   -0.001552   0.002787
     5  H    0.000774   0.000971
     6  H    0.000774  -0.000971
     7  H   -0.001552  -0.002787
     8  H   -0.000295  -0.000508
     9  H    0.003581   1.003521
    10  H   -0.002508  -0.001242
 Sum of Mulliken charges =  -0.00000   0.00000

 Dipole moment (field-independent basis, Debye):
    X=             -0.0000    Y=              0.0000    Z=             -0.0000  Tot=              0.0000
 Quadrupole moment (field-independent basis, Debye-Ang):
   XX=            -12.1711   YY=            -16.5821   ZZ=            -13.1312
   XY=              1.2603   XZ=             -0.0000   YZ=              0.0000

 Normal termination of Gaussian 09 at Thu Feb 23 17:02:20 2017.
