 Gaussian 09, Revision E.01,
 Gaussian 09:  ES64L-G09RevE.01 30-Nov-2015

 ----------------------------------------------------------------------
 #uhf/gen scf(tight,novaracc,noincfock,fulldiag) stable(crhf) guess=rea
 d geom=nocrowd test
 ----------------------------------------------------------------------

 hf stability analysis of h10 triangular lattice, y= 0.4707695940863088
 6 alpha= 21.000000000000000
 ----------------------------------------------------------------------
 Symbolic Z-matrix:
 Charge =  0 Multiplicity = 1

                         Standard orientation:
 ---------------------------------------------------------------------
 Center     Atomic      Atomic             Coordinates (Angstroms)
 Number     Number       Type             X           Y           Z
 ---------------------------------------------------------------------
      1          1           0        1.758005   -1.295638    0.000000
      2          1           0        1.758005   -2.609287    0.000000
      3          1           0        0.879003   -0.319407    0.000000
      4          1           0        0.879003   -1.633056    0.000000
      5          1           0        0.000000    0.656824    0.000000
      6          1           0       -0.000000   -0.656824    0.000000
      7          1           0       -0.879003    1.633056   -0.000000
      8          1           0       -0.879003    0.319407   -0.000000
      9          1           0       -1.758005    2.609287   -0.000000
     10          1           0       -1.758005    1.295638   -0.000000
 ---------------------------------------------------------------------

 SCF Done:  E(UHF) =  -4.81749234865     A.U. after   15 cycles
 E2 =    -0.7278025536D-01 EUMP2 =    -0.48902726040106D+01

 Unable to determine electronic state:  partially filled degenerate orbitals.
 Alpha  occ. eigenvalues --   -0.82004  -0.70094  -0.57080  -0.37334  -0.26262
 Alpha virt. eigenvalues --    0.07945   0.16887   0.20996   0.38522   0.62028
  Beta  occ. eigenvalues --   -0.82004  -0.70094  -0.57080  -0.37334  -0.26262
  Beta virt. eigenvalues --    0.07945   0.16887   0.20996   0.38522   0.62028

 Mulliken charges and spin densities:
               1          2
     1  H    0.049275  -0.484382
     2  H    0.015356   0.525232
     3  H   -0.090943  -0.221331
     4  H    0.037801  -0.249346
     5  H   -0.011489   0.335333
     6  H   -0.011489  -0.335333
     7  H    0.037801   0.249346
     8  H   -0.090943   0.221331
     9  H    0.015356  -0.525232
    10  H    0.049275   0.484382
 Sum of Mulliken charges =  -0.00000  -0.00000

 Dipole moment (field-independent basis, Debye):
    X=             -0.0000    Y=             -0.0000    Z=             -0.0000  Tot=              0.0000
 Quadrupole moment (field-independent basis, Debye-Ang):
   XX=            -12.9972   YY=            -12.5881   ZZ=            -13.0236
   XY=             -1.9184   XZ=              0.0000   YZ=             -0.0000

 Normal termination of Gaussian 09 at Thu Feb 23 16:59:51 2017.
