 Gaussian 09, Revision E.01,
 Gaussian 09:  ES64L-G09RevE.01 30-Nov-2015

 ----------------------------------------------------------------------
 #uhf/gen scf(tight,novaracc,noincfock,fulldiag) stable(crhf) guess=rea
 d geom=nocrowd test
 ----------------------------------------------------------------------

 hf stability analysis of h10 triangular lattice, y= 0.4683105810735408
 4 alpha= 20.800000000000001
 ----------------------------------------------------------------------
 Symbolic Z-matrix:
 Charge =  0 Multiplicity = 1

                         Standard orientation:
 ---------------------------------------------------------------------
 Center     Atomic      Atomic             Coordinates (Angstroms)
 Number     Number       Type             X           Y           Z
 ---------------------------------------------------------------------
      1          1           0        1.751155   -1.312980    0.000000
      2          1           0        1.751155   -2.631767    0.000000
      3          1           0        0.875577   -0.326793    0.000000
      4          1           0        0.875577   -1.645580    0.000000
      5          1           0        0.000000    0.659394    0.000000
      6          1           0       -0.000000   -0.659394   -0.000000
      7          1           0       -0.875577    1.645580    0.000000
      8          1           0       -0.875577    0.326793    0.000000
      9          1           0       -1.751155    2.631767    0.000000
     10          1           0       -1.751155    1.312980    0.000000
 ---------------------------------------------------------------------

 SCF Done:  E(UHF) =  -4.81363727150     A.U. after   16 cycles
 E2 =    -0.7307156511D-01 EUMP2 =    -0.48867088366177D+01

 Unable to determine electronic state:  partially filled degenerate orbitals.
 Alpha  occ. eigenvalues --   -0.81900  -0.70005  -0.57104  -0.37458  -0.25913
 Alpha virt. eigenvalues --    0.07774   0.16830   0.20776   0.38551   0.62158
  Beta  occ. eigenvalues --   -0.81900  -0.70005  -0.57104  -0.37458  -0.25913
  Beta virt. eigenvalues --    0.07774   0.16830   0.20776   0.38551   0.62158

 Mulliken charges and spin densities:
               1          2
     1  H    0.046423  -0.488523
     2  H    0.017130   0.519569
     3  H   -0.088742  -0.218752
     4  H    0.038387  -0.248684
     5  H   -0.013199   0.335980
     6  H   -0.013199  -0.335980
     7  H    0.038387   0.248684
     8  H   -0.088742   0.218752
     9  H    0.017130  -0.519569
    10  H    0.046423   0.488523
 Sum of Mulliken charges =  -0.00000   0.00000

 Dipole moment (field-independent basis, Debye):
    X=             -0.0000    Y=              0.0000    Z=              0.0000  Tot=              0.0000
 Quadrupole moment (field-independent basis, Debye-Ang):
   XX=            -13.0051   YY=            -12.4555   ZZ=            -13.0263
   XY=             -1.9744   XZ=             -0.0000   YZ=             -0.0000

 Normal termination of Gaussian 09 at Thu Feb 23 16:59:54 2017.
