 Gaussian 09, Revision E.01,
 Gaussian 09:  ES64L-G09RevE.01 30-Nov-2015

 ----------------------------------------------------------------------
 #uhf/gen scf(tight,novaracc,noincfock,fulldiag) stable(crhf) guess=rea
 d geom=nocrowd test
 ----------------------------------------------------------------------

 hf stability analysis of h10 triangular lattice, y= 0.4878182204690272
 3 alpha= 22.399999999999999
 ----------------------------------------------------------------------
 Symbolic Z-matrix:
 Charge =  0 Multiplicity = 1

                         Standard orientation:
 ---------------------------------------------------------------------
 Center     Atomic      Atomic             Coordinates (Angstroms)
 Number     Number       Type             X           Y           Z
 ---------------------------------------------------------------------
      1          1           0        1.804042   -1.176617   -0.000000
      2          1           0        1.804042   -2.456743   -0.000000
      3          1           0        0.902021   -0.268277   -0.000000
      4          1           0        0.902021   -1.548403   -0.000000
      5          1           0        0.000000    0.640063    0.000000
      6          1           0       -0.000000   -0.640063    0.000000
      7          1           0       -0.902021    1.548403   -0.000000
      8          1           0       -0.902021    0.268277   -0.000000
      9          1           0       -1.804042    2.456743   -0.000000
     10          1           0       -1.804042    1.176617   -0.000000
 ---------------------------------------------------------------------

 SCF Done:  E(UHF) =  -4.84063089300     A.U. after   15 cycles
 E2 =    -0.7320632429D-01 EUMP2 =    -0.49138372172915D+01

 Unable to determine electronic state:  partially filled degenerate orbitals.
 Alpha  occ. eigenvalues --   -0.82713  -0.70768  -0.56835  -0.36275  -0.28525
 Alpha virt. eigenvalues --    0.08641   0.16460   0.23066   0.38821   0.60983
  Beta  occ. eigenvalues --   -0.82713  -0.70768  -0.56835  -0.36275  -0.28525
  Beta virt. eigenvalues --    0.08641   0.16460   0.23066   0.38821   0.60983

 Mulliken charges and spin densities:
               1          2
     1  H    0.065417  -0.462005
     2  H   -0.002507   0.514111
     3  H   -0.103300  -0.219050
     4  H    0.043364  -0.241037
     5  H   -0.002974   0.320765
     6  H   -0.002974  -0.320765
     7  H    0.043364   0.241037
     8  H   -0.103300   0.219050
     9  H   -0.002507  -0.514111
    10  H    0.065417   0.462005
 Sum of Mulliken charges =   0.00000  -0.00000

 Dipole moment (field-independent basis, Debye):
    X=             -0.0000    Y=              0.0000    Z=             -0.0000  Tot=              0.0000
 Quadrupole moment (field-independent basis, Debye-Ang):
   XX=            -13.1221   YY=            -13.5887   ZZ=            -13.0094
   XY=             -1.3121   XZ=              0.0000   YZ=              0.0000

 Normal termination of Gaussian 09 at Thu Feb 23 16:59:32 2017.
