 Gaussian 09, Revision E.01,
 Gaussian 09:  ES64L-G09RevE.01 30-Nov-2015

 ----------------------------------------------------------------------
 #uhf/gen scf(tight,novaracc,noincfock,fulldiag) stable(crhf) guess=rea
 d geom=nocrowd test
 ----------------------------------------------------------------------

 hf stability analysis of h10 triangular lattice, y= 0.3877995422859770
 7 alpha= 14.600000000000000
 ----------------------------------------------------------------------
 Symbolic Z-matrix:
 Charge =  0 Multiplicity = 1

                         Standard orientation:
 ---------------------------------------------------------------------
 Center     Atomic      Atomic             Coordinates (Angstroms)
 Number     Number       Type             X           Y           Z
 ---------------------------------------------------------------------
      1          1           0        1.501109   -1.916686    0.000000
      2          1           0        1.501109   -3.455149    0.000000
      3          1           0        0.750554   -0.573727    0.000000
      4          1           0        0.750554   -2.112191    0.000000
      5          1           0        0.000000    0.769232   -0.000000
      6          1           0       -0.000000   -0.769232   -0.000000
      7          1           0       -0.750554    2.112191    0.000000
      8          1           0       -0.750554    0.573727    0.000000
      9          1           0       -1.501109    3.455149    0.000000
     10          1           0       -1.501109    1.916686    0.000000
 ---------------------------------------------------------------------

 SCF Done:  E(UHF) =  -5.12757036201     A.U. after   10 cycles
 E2 =    -0.5089823495D-01 EUMP2 =    -0.51784685969624D+01

 Unable to determine electronic state:  partially filled degenerate orbitals.
 Alpha  occ. eigenvalues --   -0.75648  -0.69889  -0.60321  -0.48294  -0.38236
 Alpha virt. eigenvalues --    0.19119   0.21260   0.31544   0.47842   0.64249
  Beta  occ. eigenvalues --   -0.75648  -0.69889  -0.60321  -0.48294  -0.38236
  Beta virt. eigenvalues --    0.19119   0.21260   0.31544   0.47842   0.64249

 Mulliken charges and spin densities:
               1          2
     1  H   -0.007297  -0.032233
     2  H   -0.026590  -0.971937
     3  H    0.004076   0.015958
     4  H    0.025887   0.012333
     5  H    0.003924   0.022334
     6  H    0.003924  -0.022334
     7  H    0.025887  -0.012333
     8  H    0.004076  -0.015958
     9  H   -0.026590   0.971937
    10  H   -0.007297   0.032233
 Sum of Mulliken charges =  -0.00000   0.00000

 Dipole moment (field-independent basis, Debye):
    X=              0.0000    Y=             -0.0000    Z=             -0.0000  Tot=              0.0000
 Quadrupole moment (field-independent basis, Debye-Ang):
   XX=            -12.7857   YY=            -20.0027   ZZ=            -12.7475
   XY=              4.0048   XZ=              0.0000   YZ=             -0.0000

 Normal termination of Gaussian 09 at Thu Feb 23 17:01:13 2017.
