 Gaussian 09, Revision E.01,
 Gaussian 09:  ES64L-G09RevE.01 30-Nov-2015

 ----------------------------------------------------------------------
 #uhf/gen scf(tight,novaracc,noincfock,fulldiag) stable(crhf) guess=rea
 d geom=nocrowd test
 ----------------------------------------------------------------------

 hf stability analysis of h10 triangular lattice, y= 0.3411953078684326
 6 alpha= 11.400000000000000
 ----------------------------------------------------------------------
 Symbolic Z-matrix:
 Charge =  0 Multiplicity = 1

                         Standard orientation:
 ---------------------------------------------------------------------
 Center     Atomic      Atomic             Coordinates (Angstroms)
 Number     Number       Type             X           Y           Z
 ---------------------------------------------------------------------
      1          1           0        1.337856   -2.319535   -0.000000
      2          1           0        1.337856   -4.045731   -0.000000
      3          1           0        0.668928   -0.728218   -0.000000
      4          1           0        0.668928   -2.454414   -0.000000
      5          1           0        0.000000    0.863098    0.000000
      6          1           0       -0.000000   -0.863098    0.000000
      7          1           0       -0.668928    2.454414   -0.000000
      8          1           0       -0.668928    0.728218   -0.000000
      9          1           0       -1.337856    4.045731   -0.000000
     10          1           0       -1.337856    2.319535   -0.000000
 ---------------------------------------------------------------------

 SCF Done:  E(UHF) =  -5.19872713295     A.U. after    8 cycles
 E2 =    -0.4163287278D-01 EUMP2 =    -0.52403600057283D+01

 Unable to determine electronic state:  partially filled degenerate orbitals.
 Alpha  occ. eigenvalues --   -0.73959  -0.69750  -0.62777  -0.54290  -0.44964
 Alpha virt. eigenvalues --    0.16495   0.30204   0.39242   0.52944   0.66549
  Beta  occ. eigenvalues --   -0.73959  -0.69750  -0.62777  -0.54290  -0.44964
  Beta virt. eigenvalues --    0.16495   0.30204   0.39242   0.52944   0.66549

 Mulliken charges and spin densities:
               1          2
     1  H   -0.003523  -0.003031
     2  H   -0.001604  -0.998188
     3  H   -0.000013   0.002022
     4  H    0.003494   0.002908
     5  H    0.001646   0.003488
     6  H    0.001646  -0.003488
     7  H    0.003494  -0.002908
     8  H   -0.000013  -0.002022
     9  H   -0.001604   0.998188
    10  H   -0.003523   0.003031
 Sum of Mulliken charges =  -0.00000  -0.00000

 Dipole moment (field-independent basis, Debye):
    X=             -0.0000    Y=              0.0000    Z=              0.0000  Tot=              0.0000
 Quadrupole moment (field-independent basis, Debye-Ang):
   XX=            -12.1618   YY=            -17.7160   ZZ=            -12.9766
   XY=              2.0348   XZ=             -0.0000   YZ=              0.0000

 Normal termination of Gaussian 09 at Thu Feb 23 17:01:56 2017.
