 Gaussian 09, Revision E.01,
 Gaussian 09:  ES64L-G09RevE.01 30-Nov-2015

 ----------------------------------------------------------------------
 #uhf/gen scf(tight,novaracc,noincfock,fulldiag) stable(crhf) guess=rea
 d geom=nocrowd test
 ----------------------------------------------------------------------

 hf stability analysis of h10 triangular lattice, y= 0.3318666256799156
 5 alpha= 10.800000000000001
 ----------------------------------------------------------------------
 Symbolic Z-matrix:
 Charge =  0 Multiplicity = 1

                         Standard orientation:
 ---------------------------------------------------------------------
 Center     Atomic      Atomic             Coordinates (Angstroms)
 Number     Number       Type             X           Y           Z
 ---------------------------------------------------------------------
      1          1           0        1.303953   -2.407872    0.000000
      2          1           0        1.303953   -4.178948    0.000000
      3          1           0        0.651977   -0.761167    0.000000
      4          1           0        0.651977   -2.532243    0.000000
      5          1           0        0.000000    0.885538    0.000000
      6          1           0       -0.000000   -0.885538    0.000000
      7          1           0       -0.651977    2.532243   -0.000000
      8          1           0       -0.651977    0.761167   -0.000000
      9          1           0       -1.303953    4.178948   -0.000000
     10          1           0       -1.303953    2.407872   -0.000000
 ---------------------------------------------------------------------

 SCF Done:  E(UHF) =  -5.19596981625     A.U. after    7 cycles
 E2 =    -0.3995357179D-01 EUMP2 =    -0.52359233880409D+01

 Unable to determine electronic state:  partially filled degenerate orbitals.
 Alpha  occ. eigenvalues --   -0.73736  -0.69826  -0.63394  -0.55695  -0.45909
 Alpha virt. eigenvalues --    0.16016   0.32197   0.40899   0.54005   0.66939
  Beta  occ. eigenvalues --   -0.73736  -0.69826  -0.63394  -0.55695  -0.45909
  Beta virt. eigenvalues --    0.16016   0.32197   0.40899   0.54005   0.66939

 Mulliken charges and spin densities:
               1          2
     1  H   -0.003149  -0.001075
     2  H    0.000707  -1.000566
     3  H   -0.000180   0.001308
     4  H    0.001318   0.002812
     5  H    0.001304   0.002342
     6  H    0.001304  -0.002342
     7  H    0.001318  -0.002812
     8  H   -0.000180  -0.001308
     9  H    0.000707   1.000566
    10  H   -0.003149   0.001075
 Sum of Mulliken charges =   0.00000   0.00000

 Dipole moment (field-independent basis, Debye):
    X=              0.0000    Y=             -0.0000    Z=              0.0000  Tot=              0.0000
 Quadrupole moment (field-independent basis, Debye-Ang):
   XX=            -12.1417   YY=            -17.3235   ZZ=            -13.0264
   XY=              1.7514   XZ=              0.0000   YZ=              0.0000

 Normal termination of Gaussian 09 at Thu Feb 23 17:02:04 2017.
