 Gaussian 09, Revision E.01,
 Gaussian 09:  ES64L-G09RevE.01 30-Nov-2015

 ----------------------------------------------------------------------
 #uhf/gen scf(tight,novaracc,noincfock,fulldiag) stable(crhf) guess=rea
 d geom=nocrowd test
 ----------------------------------------------------------------------

 hf stability analysis of h10 triangular lattice, y= 0.4175072795245631
 8 alpha= 16.800000000000001
 ----------------------------------------------------------------------
 Symbolic Z-matrix:
 Charge =  0 Multiplicity = 1

                         Standard orientation:
 ---------------------------------------------------------------------
 Center     Atomic      Atomic             Coordinates (Angstroms)
 Number     Number       Type             X           Y           Z
 ---------------------------------------------------------------------
      1          1           0        1.598751   -1.684063    0.000000
      2          1           0        1.598751   -3.128566    0.000000
      3          1           0        0.799376   -0.480906    0.000000
      4          1           0        0.799376   -1.925409    0.000000
      5          1           0        0.000000    0.722251    0.000000
      6          1           0       -0.000000   -0.722251   -0.000000
      7          1           0       -0.799376    1.925409    0.000000
      8          1           0       -0.799376    0.480906    0.000000
      9          1           0       -1.598751    3.128566    0.000000
     10          1           0       -1.598751    1.684063    0.000000
 ---------------------------------------------------------------------

 SCF Done:  E(UHF) =  -5.02645349287     A.U. after   12 cycles
 E2 =    -0.5672764538D-01 EUMP2 =    -0.50831811382510D+01

 Unable to determine electronic state:  partially filled degenerate orbitals.
 Alpha  occ. eigenvalues --   -0.77323  -0.70464  -0.59264  -0.45146  -0.32980
 Alpha virt. eigenvalues --    0.15049   0.22060   0.27096   0.44626   0.62200
  Beta  occ. eigenvalues --   -0.77323  -0.70464  -0.59264  -0.45146  -0.32980
  Beta virt. eigenvalues --    0.15049   0.22060   0.27096   0.44626   0.62200

 Mulliken charges and spin densities:
               1          2
     1  H   -0.016561  -0.106877
     2  H   -0.058157  -0.935240
     3  H    0.016247   0.061286
     4  H    0.056667   0.061138
     5  H    0.001804   0.075611
     6  H    0.001804  -0.075611
     7  H    0.056667  -0.061138
     8  H    0.016247  -0.061286
     9  H   -0.058157   0.935240
    10  H   -0.016561   0.106877
 Sum of Mulliken charges =  -0.00000   0.00000

 Dipole moment (field-independent basis, Debye):
    X=              0.0000    Y=             -0.0000    Z=             -0.0000  Tot=              0.0000
 Quadrupole moment (field-independent basis, Debye-Ang):
   XX=            -13.9054   YY=            -21.5795   ZZ=            -12.6342
   XY=              5.7667   XZ=              0.0000   YZ=             -0.0000

 Normal termination of Gaussian 09 at Thu Feb 23 17:00:42 2017.
