 Gaussian 09, Revision E.01,
 Gaussian 09:  ES64L-G09RevE.01 30-Nov-2015

 ----------------------------------------------------------------------
 #uhf/gen scf(tight,novaracc,noincfock,fulldiag) stable(crhf) guess=rea
 d geom=nocrowd test
 ----------------------------------------------------------------------

 hf stability analysis of h10 triangular lattice, y= 0.3223068610990206
 8 alpha= 10.199999999999999
 ----------------------------------------------------------------------
 Symbolic Z-matrix:
 Charge =  0 Multiplicity = 1

                         Standard orientation:
 ---------------------------------------------------------------------
 Center     Atomic      Atomic             Coordinates (Angstroms)
 Number     Number       Type             X           Y           Z
 ---------------------------------------------------------------------
      1          1           0        1.268852   -2.501804   -0.000000
      2          1           0        1.268852   -4.321876   -0.000000
      3          1           0        0.634426   -0.795884   -0.000000
      4          1           0        0.634426   -2.615956   -0.000000
      5          1           0        0.000000    0.910036    0.000000
      6          1           0       -0.000000   -0.910036    0.000000
      7          1           0       -0.634426    2.615956   -0.000000
      8          1           0       -0.634426    0.795884   -0.000000
      9          1           0       -1.268852    4.321876   -0.000000
     10          1           0       -1.268852    2.501804   -0.000000
 ---------------------------------------------------------------------

 SCF Done:  E(UHF) =  -5.18616049120     A.U. after    7 cycles
 E2 =    -0.3830453242D-01 EUMP2 =    -0.52244650236193D+01

 Unable to determine electronic state:  partially filled degenerate orbitals.
 Alpha  occ. eigenvalues --   -0.73546  -0.69942  -0.64069  -0.57187  -0.46733
 Alpha virt. eigenvalues --    0.15564   0.34300   0.42645   0.55115   0.67334
  Beta  occ. eigenvalues --   -0.73546  -0.69942  -0.64069  -0.57187  -0.46733
  Beta virt. eigenvalues --    0.15564   0.34300   0.42645   0.55115   0.67334

 Mulliken charges and spin densities:
               1          2
     1  H   -0.002815   0.000310
     2  H    0.002413  -1.002320
     3  H   -0.000266   0.000827
     4  H   -0.000347   0.002796
     5  H    0.001014   0.001532
     6  H    0.001014  -0.001532
     7  H   -0.000347  -0.002796
     8  H   -0.000266  -0.000827
     9  H    0.002413   1.002320
    10  H   -0.002815  -0.000310
 Sum of Mulliken charges =  -0.00000  -0.00000

 Dipole moment (field-independent basis, Debye):
    X=              0.0000    Y=             -0.0000    Z=              0.0000  Tot=              0.0000
 Quadrupole moment (field-independent basis, Debye-Ang):
   XX=            -12.1456   YY=            -16.9454   ZZ=            -13.0780
   XY=              1.4935   XZ=              0.0000   YZ=              0.0000

 Normal termination of Gaussian 09 at Thu Feb 23 17:02:12 2017.
