 Gaussian 09, Revision E.01,
 Gaussian 09:  ES64L-G09RevE.01 30-Nov-2015

 ----------------------------------------------------------------------
 #uhf/gen scf(tight,novaracc,noincfock,fulldiag) stable(crhf) guess=rea
 d geom=nocrowd test
 ----------------------------------------------------------------------

 hf stability analysis of h10 triangular lattice, y= 0.3737321688687138
 0 alpha= 13.600000000000000
 ----------------------------------------------------------------------
 Symbolic Z-matrix:
 Charge =  0 Multiplicity = 1

                         Standard orientation:
 ---------------------------------------------------------------------
 Center     Atomic      Atomic             Coordinates (Angstroms)
 Number     Number       Type             X           Y           Z
 ---------------------------------------------------------------------
      1          1           0        1.453012   -2.032562    0.000000
      2          1           0        1.453012   -3.621950    0.000000
      3          1           0        0.726506   -0.618934    0.000000
      4          1           0        0.726506   -2.208322    0.000000
      5          1           0        0.000000    0.794694    0.000000
      6          1           0       -0.000000   -0.794694    0.000000
      7          1           0       -0.726506    2.208322    0.000000
      8          1           0       -0.726506    0.618934    0.000000
      9          1           0       -1.453012    3.621950    0.000000
     10          1           0       -1.453012    2.032562    0.000000
 ---------------------------------------------------------------------

 SCF Done:  E(UHF) =  -5.16221554347     A.U. after   10 cycles
 E2 =    -0.4797924209D-01 EUMP2 =    -0.52101947855607D+01

 Unable to determine electronic state:  partially filled degenerate orbitals.
 Alpha  occ. eigenvalues --   -0.75032  -0.69757  -0.60956  -0.49929  -0.40568
 Alpha virt. eigenvalues --    0.18419   0.23677   0.33775   0.49361   0.65036
  Beta  occ. eigenvalues --   -0.75032  -0.69757  -0.60956  -0.49929  -0.40568
  Beta virt. eigenvalues --    0.18419   0.23677   0.33775   0.49361   0.65036

 Mulliken charges and spin densities:
               1          2
     1  H   -0.005583  -0.018103
     2  H   -0.016241  -0.982957
     3  H    0.001908   0.008634
     4  H    0.016661   0.006327
     5  H    0.003255   0.012888
     6  H    0.003255  -0.012888
     7  H    0.016661  -0.006327
     8  H    0.001908  -0.008634
     9  H   -0.016241   0.982957
    10  H   -0.005583   0.018103
 Sum of Mulliken charges =  -0.00000   0.00000

 Dipole moment (field-independent basis, Debye):
    X=             -0.0000    Y=              0.0000    Z=             -0.0000  Tot=              0.0000
 Quadrupole moment (field-independent basis, Debye-Ang):
   XX=            -12.4833   YY=            -19.2622   ZZ=            -12.8119
   XY=              3.3049   XZ=             -0.0000   YZ=             -0.0000

 Normal termination of Gaussian 09 at Thu Feb 23 17:01:26 2017.
