 Gaussian 09, Revision E.01,
 Gaussian 09:  ES64L-G09RevE.01 30-Nov-2015

 ----------------------------------------------------------------------
 #uhf/gen scf(tight,novaracc,noincfock,fulldiag) stable(crhf) guess=rea
 d geom=nocrowd test
 ----------------------------------------------------------------------

 hf stability analysis of h10 triangular lattice, y= 0.2954928447552192
 0 alpha= 8.5999999999999996
 ----------------------------------------------------------------------
 Symbolic Z-matrix:
 Charge =  0 Multiplicity = 1

                         Standard orientation:
 ---------------------------------------------------------------------
 Center     Atomic      Atomic             Coordinates (Angstroms)
 Number     Number       Type             X           Y           Z
 ---------------------------------------------------------------------
      1          1           0        1.168682   -2.787364    0.000000
      2          1           0        1.168682   -4.763437    0.000000
      3          1           0        0.584341   -0.899664    0.000000
      4          1           0        0.584341   -2.875737    0.000000
      5          1           0        0.000000    0.988037   -0.000000
      6          1           0       -0.000000   -0.988037   -0.000000
      7          1           0       -0.584341    2.875737    0.000000
      8          1           0       -0.584341    0.899664    0.000000
      9          1           0       -1.168682    4.763437    0.000000
     10          1           0       -1.168682    2.787364    0.000000
 ---------------------------------------------------------------------

 SCF Done:  E(UHF) =  -5.11642114146     A.U. after    7 cycles
 E2 =    -0.3407804127D-01 EUMP2 =    -0.51504991827271D+01

 Unable to determine electronic state:  partially filled degenerate orbitals.
 Alpha  occ. eigenvalues --   -0.73230  -0.70482  -0.66173  -0.61494  -0.48380
 Alpha virt. eigenvalues --    0.14500   0.40576   0.47834   0.58405   0.68508
  Beta  occ. eigenvalues --   -0.73230  -0.70482  -0.66173  -0.61494  -0.48380
  Beta virt. eigenvalues --    0.14500   0.40576   0.47834   0.58405   0.68508

 Mulliken charges and spin densities:
               1          2
     1  H   -0.002039   0.002030
     2  H    0.004516  -1.004489
     3  H   -0.000270   0.000210
     4  H   -0.002678   0.002677
     5  H    0.000471   0.000413
     6  H    0.000471  -0.000413
     7  H   -0.002678  -0.002677
     8  H   -0.000270  -0.000210
     9  H    0.004516   1.004489
    10  H   -0.002039  -0.002030
 Sum of Mulliken charges =  -0.00000  -0.00000

 Dipole moment (field-independent basis, Debye):
    X=              0.0000    Y=             -0.0000    Z=              0.0000  Tot=              0.0000
 Quadrupole moment (field-independent basis, Debye-Ang):
   XX=            -12.2547   YY=            -16.0107   ZZ=            -13.2220
   XY=              0.9237   XZ=              0.0000   YZ=              0.0000

 Normal termination of Gaussian 09 at Thu Feb 23 17:02:33 2017.
