 Gaussian 09, Revision E.01,
 Gaussian 09:  ES64L-G09RevE.01 30-Nov-2015

 ----------------------------------------------------------------------
 #uhf/gen scf(tight,novaracc,noincfock,fulldiag) stable(crhf) guess=rea
 d geom=nocrowd test
 ----------------------------------------------------------------------

 hf stability analysis of h10 triangular lattice, y= 0.3850173477631024
 2 alpha= 14.400000000000000
 ----------------------------------------------------------------------
 Symbolic Z-matrix:
 Charge =  0 Multiplicity = 1

                         Standard orientation:
 ---------------------------------------------------------------------
 Center     Atomic      Atomic             Coordinates (Angstroms)
 Number     Number       Type             X           Y           Z
 ---------------------------------------------------------------------
      1          1           0        1.491685   -1.939274    0.000000
      2          1           0        1.491685   -3.487457   -0.000000
      3          1           0        0.745843   -0.582591    0.000000
      4          1           0        0.745843   -2.130774   -0.000000
      5          1           0        0.000000    0.774091    0.000000
      6          1           0       -0.000000   -0.774091    0.000000
      7          1           0       -0.745843    2.130774   -0.000000
      8          1           0       -0.745843    0.582591   -0.000000
      9          1           0       -1.491685    3.487457   -0.000000
     10          1           0       -1.491685    1.939274   -0.000000
 ---------------------------------------------------------------------

 SCF Done:  E(UHF) =  -5.13519995967     A.U. after   10 cycles
 E2 =    -0.5031676420D-01 EUMP2 =    -0.51855167238719D+01

 Unable to determine electronic state:  partially filled degenerate orbitals.
 Alpha  occ. eigenvalues --   -0.75519  -0.69857  -0.60439  -0.48608  -0.38711
 Alpha virt. eigenvalues --    0.19039   0.21668   0.31980   0.48142   0.64413
  Beta  occ. eigenvalues --   -0.75519  -0.69857  -0.60439  -0.48608  -0.38711
  Beta virt. eigenvalues --    0.19039   0.21668   0.31980   0.48142   0.64413

 Mulliken charges and spin densities:
               1          2
     1  H   -0.006887  -0.028837
     2  H   -0.024320  -0.974378
     3  H    0.003540   0.014129
     4  H    0.023852   0.010716
     5  H    0.003815   0.020027
     6  H    0.003815  -0.020027
     7  H    0.023852  -0.010716
     8  H    0.003540  -0.014129
     9  H   -0.024320   0.974378
    10  H   -0.006887   0.028837
 Sum of Mulliken charges =  -0.00000  -0.00000

 Dipole moment (field-independent basis, Debye):
    X=             -0.0000    Y=              0.0000    Z=              0.0000  Tot=              0.0000
 Quadrupole moment (field-independent basis, Debye-Ang):
   XX=            -12.7162   YY=            -19.8538   ZZ=            -12.7598
   XY=              3.8588   XZ=             -0.0000   YZ=              0.0000

 Normal termination of Gaussian 09 at Thu Feb 23 17:01:16 2017.
