 Gaussian 09, Revision E.01,
 Gaussian 09:  ES64L-G09RevE.01 30-Nov-2015

 ----------------------------------------------------------------------
 #rhf/gen scf(symm,tight,novaracc,noincfock,fulldiag) stable(crhf) gues
 s=read geom=nocrowd test
 ----------------------------------------------------------------------

 ----------------------------------------------------------------------
 hf stability analysis of h10 triangular lattice, y= 1.2804199040119650
 ----------------------------------------------------------------------
 Symbolic Z-matrix:
 Charge =  0 Multiplicity = 1

                         Standard orientation:
 ---------------------------------------------------------------------
 Center     Atomic      Atomic             Coordinates (Angstroms)
 Number     Number       Type             X           Y           Z
 ---------------------------------------------------------------------
      1          1           0        1.701223    2.794642   -0.000000
      2          1           0        1.701223    1.437147   -0.000000
      3          1           0        0.850611    1.736695   -0.000000
      4          1           0        0.850611    0.379200   -0.000000
      5          1           0        0.000000    0.678747   -0.000000
      6          1           0       -0.000000   -0.678747   -0.000000
      7          1           0       -0.850611   -0.379200   -0.000000
      8          1           0       -0.850611   -1.736695   -0.000000
      9          1           0       -1.701223   -1.437147   -0.000000
     10          1           0       -1.701223   -2.794642   -0.000000
 ---------------------------------------------------------------------

 SCF Done:  E(RHF) =  -4.71930083327     A.U. after    8 cycles
 E2 =    -0.1387253199D+00 EUMP2 =    -0.48580261531868D+01

 The electronic state is 1-AG.
 Alpha  occ. eigenvalues --   -0.77020  -0.71455  -0.55055  -0.34972  -0.15139
 Alpha virt. eigenvalues --   -0.00129   0.14359   0.16790   0.40672   0.64465

 Mulliken charges:
               1
     1  H    0.073327
     2  H    0.002855
     3  H    0.135381
     4  H   -0.033279
     5  H   -0.178284
     6  H   -0.178284
     7  H   -0.033279
     8  H    0.135381
     9  H    0.002855
    10  H    0.073327
 Sum of Mulliken charges =   0.00000

 Dipole moment (field-independent basis, Debye):
    X=             -0.0000    Y=              0.0000    Z=             -0.0000  Tot=              0.0000
 Quadrupole moment (field-independent basis, Debye-Ang):
   XX=            -11.8085   YY=             -6.0889   ZZ=            -13.1791
   XY=              5.3973   XZ=              0.0000   YZ=              0.0000

 Normal termination of Gaussian 09 at Mon Feb 20 16:28:03 2017.
