 Gaussian 09, Revision E.01,
 Gaussian 09:  ES64L-G09RevE.01 30-Nov-2015

 ----------------------------------------------------------------------
 #rhf/gen scf(symm,tight,novaracc,noincfock,fulldiag) stable(crhf) gues
 s=read geom=nocrowd test
 ----------------------------------------------------------------------

 ----------------------------------------------------------------------
 hf stability analysis of h10 triangular lattice, y= 1.2912351779801445
 ----------------------------------------------------------------------
 Symbolic Z-matrix:
 Charge =  0 Multiplicity = 1

                         Standard orientation:
 ---------------------------------------------------------------------
 Center     Atomic      Atomic             Coordinates (Angstroms)
 Number     Number       Type             X           Y           Z
 ---------------------------------------------------------------------
      1          1           0        1.690061    2.830915   -0.000000
      2          1           0        1.690061    1.464454   -0.000000
      3          1           0        0.845031    1.757072   -0.000000
      4          1           0        0.845031    0.390612   -0.000000
      5          1           0        0.000000    0.683230   -0.000000
      6          1           0       -0.000000   -0.683230   -0.000000
      7          1           0       -0.845031   -0.390612   -0.000000
      8          1           0       -0.845031   -1.757072   -0.000000
      9          1           0       -1.690061   -1.464454   -0.000000
     10          1           0       -1.690061   -2.830915   -0.000000
 ---------------------------------------------------------------------

 SCF Done:  E(RHF) =  -4.71069235012     A.U. after    8 cycles
 E2 =    -0.1424283330D+00 EUMP2 =    -0.48531206831522D+01

 The electronic state is 1-AG.
 Alpha  occ. eigenvalues --   -0.76722  -0.71268  -0.55070  -0.35297  -0.14255
 Alpha virt. eigenvalues --   -0.00709   0.13664   0.17568   0.40985   0.64672

 Mulliken charges:
               1
     1  H    0.077105
     2  H   -0.019765
     3  H    0.147851
     4  H   -0.009886
     5  H   -0.195305
     6  H   -0.195305
     7  H   -0.009886
     8  H    0.147851
     9  H   -0.019765
    10  H    0.077105
 Sum of Mulliken charges =   0.00000

 Dipole moment (field-independent basis, Debye):
    X=              0.0000    Y=              0.0000    Z=             -0.0000  Tot=              0.0000
 Quadrupole moment (field-independent basis, Debye-Ang):
   XX=            -12.0282   YY=             -5.8005   ZZ=            -13.1593
   XY=              5.2048   XZ=              0.0000   YZ=             -0.0000

 Normal termination of Gaussian 09 at Mon Feb 20 16:40:36 2017.
