 Gaussian 09, Revision E.01,
 Gaussian 09:  ES64L-G09RevE.01 30-Nov-2015

 ----------------------------------------------------------------------
 #rhf/gen scf(symm,tight,novaracc,noincfock,fulldiag) stable(crhf) gues
 s=read geom=nocrowd test
 ----------------------------------------------------------------------

 hf stability analysis of h10 triangular lattice, y= 0.4240572948683262
 2
 ----------------------------------------------------------------------
 Symbolic Z-matrix:
 Charge =  0 Multiplicity = 1

                         Standard orientation:
 ---------------------------------------------------------------------
 Center     Atomic      Atomic             Coordinates (Angstroms)
 Number     Number       Type             X           Y           Z
 ---------------------------------------------------------------------
      1          1           0        1.619493   -1.634588    0.000000
      2          1           0        1.619493   -3.060590    0.000000
      3          1           0        0.809747   -0.460793    0.000000
      4          1           0        0.809747   -1.886796    0.000000
      5          1           0       -0.000000    0.713001    0.000000
      6          1           0       -0.000000   -0.713001   -0.000000
      7          1           0       -0.809747    1.886796    0.000000
      8          1           0       -0.809747    0.460793    0.000000
      9          1           0       -1.619493    3.060590    0.000000
     10          1           0       -1.619493    1.634588    0.000000
 ---------------------------------------------------------------------

 SCF Done:  E(RHF) =  -4.73176205591     A.U. after   21 cycles
 E2 =    -0.4322557731D+00 EUMP2 =    -0.51640178290303D+01

 The electronic state is 1-AG.
 Alpha  occ. eigenvalues --   -0.77169  -0.70486  -0.57673  -0.41425  -0.10590
 Alpha virt. eigenvalues --   -0.04191   0.14108   0.25175   0.43390   0.62077

 Mulliken charges:
               1
     1  H   -0.035914
     2  H   -0.065534
     3  H    0.048664
     4  H    0.126860
     5  H   -0.074076
     6  H   -0.074076
     7  H    0.126860
     8  H    0.048664
     9  H   -0.065534
    10  H   -0.035914
 Sum of Mulliken charges =   0.00000

 Dipole moment (field-independent basis, Debye):
    X=             -0.0000    Y=              0.0000    Z=              0.0000  Tot=              0.0000
 Quadrupole moment (field-independent basis, Debye-Ang):
   XX=            -14.1922   YY=            -19.9528   ZZ=            -12.7091
   XY=              4.8610   XZ=              0.0000   YZ=             -0.0000

 Normal termination of Gaussian 09 at Mon Feb 20 15:26:27 2017.
