 Gaussian 09, Revision E.01,
 Gaussian 09:  ES64L-G09RevE.01 30-Nov-2015

 ----------------------------------------------------------------------
 #rhf/gen scf(symm,tight,novaracc,noincfock,fulldiag) stable(crhf) gues
 s=read geom=nocrowd test
 ----------------------------------------------------------------------

 ----------------------------------------------------------------------
 hf stability analysis of h10 triangular lattice, y= 1.2876041009716590
 ----------------------------------------------------------------------
 Symbolic Z-matrix:
 Charge =  0 Multiplicity = 1

                         Standard orientation:
 ---------------------------------------------------------------------
 Center     Atomic      Atomic             Coordinates (Angstroms)
 Number     Number       Type             X           Y           Z
 ---------------------------------------------------------------------
      1          1           0        1.693800    2.818766   -0.000000
      2          1           0        1.693800    1.455322   -0.000000
      3          1           0        0.846900    1.750244   -0.000000
      4          1           0        0.846900    0.386800   -0.000000
      5          1           0       -0.000000    0.681722   -0.000000
      6          1           0       -0.000000   -0.681722   -0.000000
      7          1           0       -0.846900   -0.386800   -0.000000
      8          1           0       -0.846900   -1.750244   -0.000000
      9          1           0       -1.693800   -1.455322   -0.000000
     10          1           0       -1.693800   -2.818766   -0.000000
 ---------------------------------------------------------------------

 SCF Done:  E(RHF) =  -4.71348533826     A.U. after    8 cycles
 E2 =    -0.1409385130D+00 EUMP2 =    -0.48544238512936D+01

 The electronic state is 1-AG.
 Alpha  occ. eigenvalues --   -0.76821  -0.71334  -0.55060  -0.35174  -0.14560
 Alpha virt. eigenvalues --   -0.00503   0.13888   0.17279   0.40872   0.64612

 Mulliken charges:
               1
     1  H    0.076241
     2  H   -0.011440
     3  H    0.143084
     4  H   -0.018636
     5  H   -0.189248
     6  H   -0.189248
     7  H   -0.018636
     8  H    0.143084
     9  H   -0.011440
    10  H    0.076241
 Sum of Mulliken charges =  -0.00000

 Dipole moment (field-independent basis, Debye):
    X=             -0.0000    Y=              0.0000    Z=             -0.0000  Tot=              0.0000
 Quadrupole moment (field-independent basis, Debye-Ang):
   XX=            -11.9406   YY=             -5.8592   ZZ=            -13.1679
   XY=              5.3065   XZ=              0.0000   YZ=              0.0000

 Normal termination of Gaussian 09 at Mon Feb 20 16:36:22 2017.
