 Gaussian 09, Revision E.01,
 Gaussian 09:  ES64L-G09RevE.01 30-Nov-2015

 ----------------------------------------------------------------------
 #rhf/gen scf(symm,tight,novaracc,noincfock,fulldiag) stable(crhf) gues
 s=read geom=nocrowd test
 ----------------------------------------------------------------------

 hf stability analysis of h10 triangular lattice, y= 0.8683298404037088
 6
 ----------------------------------------------------------------------
 Symbolic Z-matrix:
 Charge =  0 Multiplicity = 1

                         Standard orientation:
 ---------------------------------------------------------------------
 Center     Atomic      Atomic             Coordinates (Angstroms)
 Number     Number       Type             X           Y           Z
 ---------------------------------------------------------------------
      1          1           0        2.111632    1.117223    0.000000
      2          1           0        2.111632    0.023566    0.000000
      3          1           0        1.055816    0.832026    0.000000
      4          1           0        1.055816   -0.261631    0.000000
      5          1           0        0.000000    0.546828    0.000000
      6          1           0       -0.000000   -0.546828    0.000000
      7          1           0       -1.055816    0.261631    0.000000
      8          1           0       -1.055816   -0.832026    0.000000
      9          1           0       -2.111632   -0.023566    0.000000
     10          1           0       -2.111632   -1.117223    0.000000
 ---------------------------------------------------------------------

 SCF Done:  E(RHF) =  -4.85361842695     A.U. after    6 cycles
 E2 =    -0.1138855611D+00 EUMP2 =    -0.49675039880837D+01

 The electronic state is 1-AG.
 Alpha  occ. eigenvalues --   -0.85980  -0.73836  -0.54589  -0.39290  -0.29227
 Alpha virt. eigenvalues --   -0.02703   0.21593   0.30550   0.52842   0.81533

 Mulliken charges:
               1
     1  H   -0.076020
     2  H    0.111827
     3  H    0.059622
     4  H   -0.095063
     5  H   -0.000365
     6  H   -0.000365
     7  H   -0.095063
     8  H    0.059622
     9  H    0.111827
    10  H   -0.076020
 Sum of Mulliken charges =  -0.00000

 Dipole moment (field-independent basis, Debye):
    X=             -0.0000    Y=              0.0000    Z=              0.0000  Tot=              0.0000
 Quadrupole moment (field-independent basis, Debye-Ang):
   XX=            -15.4354   YY=            -14.3654   ZZ=            -12.8502
   XY=             -1.7030   XZ=              0.0000   YZ=              0.0000

 Normal termination of Gaussian 09 at Mon Feb 20 16:13:01 2017.
