 Gaussian 09, Revision E.01,
 Gaussian 09:  ES64L-G09RevE.01 30-Nov-2015

 ----------------------------------------------------------------------
 #rhf/gen scf(symm,tight,novaracc,noincfock,fulldiag) stable(crhf) gues
 s=read geom=nocrowd test
 ----------------------------------------------------------------------

 hf stability analysis of h10 triangular lattice, y= 0.6643926763610613
 6
 ----------------------------------------------------------------------
 Symbolic Z-matrix:
 Charge =  0 Multiplicity = 1

                         Standard orientation:
 ---------------------------------------------------------------------
 Center     Atomic      Atomic             Coordinates (Angstroms)
 Number     Number       Type             X           Y           Z
 ---------------------------------------------------------------------
      1          1           0        2.111213   -0.026667    0.000000
      2          1           0        2.111213   -1.120541    0.000000
      3          1           0        1.055606    0.260135    0.000000
      4          1           0        1.055606   -0.833739    0.000000
      5          1           0        0.000000    0.546937   -0.000000
      6          1           0       -0.000000   -0.546937    0.000000
      7          1           0       -1.055606    0.833739    0.000000
      8          1           0       -1.055606   -0.260135    0.000000
      9          1           0       -2.111213    1.120541    0.000000
     10          1           0       -2.111213    0.026667    0.000000
 ---------------------------------------------------------------------

 SCF Done:  E(RHF) =  -4.85375007833     A.U. after    6 cycles
 E2 =    -0.1138653666D+00 EUMP2 =    -0.49676154449016D+01

 The electronic state is 1-AG.
 Alpha  occ. eigenvalues --   -0.85975  -0.73839  -0.54591  -0.39271  -0.29235
 Alpha virt. eigenvalues --   -0.02695   0.21603   0.30513   0.52854   0.81422

 Mulliken charges:
               1
     1  H    0.112217
     2  H   -0.076371
     3  H   -0.095325
     4  H    0.060033
     5  H   -0.000553
     6  H   -0.000553
     7  H    0.060033
     8  H   -0.095325
     9  H   -0.076371
    10  H    0.112217
 Sum of Mulliken charges =  -0.00000

 Dipole moment (field-independent basis, Debye):
    X=              0.0000    Y=              0.0000    Z=              0.0000  Tot=              0.0000
 Quadrupole moment (field-independent basis, Debye-Ang):
   XX=            -15.4275   YY=            -14.3749   ZZ=            -12.8508
   XY=              1.7075   XZ=              0.0000   YZ=             -0.0000

 Normal termination of Gaussian 09 at Mon Feb 20 15:53:30 2017.
