 Gaussian 09, Revision E.01,
 Gaussian 09:  ES64L-G09RevE.01 30-Nov-2015

 ----------------------------------------------------------------------
 #rhf/gen scf(symm,tight,novaracc,noincfock,fulldiag) stable(crhf) gues
 s=read geom=nocrowd test
 ----------------------------------------------------------------------

 hf stability analysis of h10 triangular lattice, y= 0.6667980048883402
 9
 ----------------------------------------------------------------------
 Symbolic Z-matrix:
 Charge =  0 Multiplicity = 1

                         Standard orientation:
 ---------------------------------------------------------------------
 Center     Atomic      Atomic             Coordinates (Angstroms)
 Number     Number       Type             X           Y           Z
 ---------------------------------------------------------------------
      1          1           0        2.113189   -0.011903    0.000000
      2          1           0        2.113189   -1.104754    0.000000
      3          1           0        1.056594    0.267261    0.000000
      4          1           0        1.056594   -0.825590    0.000000
      5          1           0       -0.000000    0.546426    0.000000
      6          1           0       -0.000000   -0.546426    0.000000
      7          1           0       -1.056594    0.825590    0.000000
      8          1           0       -1.056594   -0.267261    0.000000
      9          1           0       -2.113189    1.104754    0.000000
     10          1           0       -2.113189    0.011903    0.000000
 ---------------------------------------------------------------------

 SCF Done:  E(RHF) =  -4.85312433861     A.U. after    6 cycles
 E2 =    -0.1139619685D+00 EUMP2 =    -0.49670863070751D+01

 The electronic state is 1-AG.
 Alpha  occ. eigenvalues --   -0.85999  -0.73827  -0.54579  -0.39359  -0.29199
 Alpha virt. eigenvalues --   -0.02732   0.21558   0.30689   0.52797   0.81943

 Mulliken charges:
               1
     1  H    0.110342
     2  H   -0.074677
     3  H   -0.094064
     4  H    0.058063
     5  H    0.000336
     6  H    0.000336
     7  H    0.058063
     8  H   -0.094064
     9  H   -0.074677
    10  H    0.110342
 Sum of Mulliken charges =   0.00000

 Dipole moment (field-independent basis, Debye):
    X=             -0.0000    Y=             -0.0000    Z=              0.0000  Tot=              0.0000
 Quadrupole moment (field-independent basis, Debye-Ang):
   XX=            -15.4649   YY=            -14.3302   ZZ=            -12.8480
   XY=              1.6852   XZ=              0.0000   YZ=              0.0000

 Normal termination of Gaussian 09 at Mon Feb 20 16:01:49 2017.
