 Gaussian 09, Revision E.01,
 Gaussian 09:  ES64L-G09RevE.01 30-Nov-2015

 ----------------------------------------------------------------------
 #rhf/gen scf(symm,tight,novaracc,noincfock,fulldiag) stable(crhf) gues
 s=read geom=nocrowd test
 ----------------------------------------------------------------------

 hf stability analysis of h10 triangular lattice, y= 0.8683191656039521
 7
 ----------------------------------------------------------------------
 Symbolic Z-matrix:
 Charge =  0 Multiplicity = 1

                         Standard orientation:
 ---------------------------------------------------------------------
 Center     Atomic      Atomic             Coordinates (Angstroms)
 Number     Number       Type             X           Y           Z
 ---------------------------------------------------------------------
      1          1           0        2.111639    1.117169    0.000000
      2          1           0        2.111639    0.023516    0.000000
      3          1           0        1.055820    0.831998    0.000000
      4          1           0        1.055820   -0.261655    0.000000
      5          1           0        0.000000    0.546827    0.000000
      6          1           0       -0.000000   -0.546827    0.000000
      7          1           0       -1.055820    0.261655   -0.000000
      8          1           0       -1.055820   -0.831998   -0.000000
      9          1           0       -2.111639   -0.023516   -0.000000
     10          1           0       -2.111639   -1.117169   -0.000000
 ---------------------------------------------------------------------

 SCF Done:  E(RHF) =  -4.85361629630     A.U. after    3 cycles
 E2 =    -0.1138858884D+00 EUMP2 =    -0.49675021847100D+01

 The electronic state is 1-AG.
 Alpha  occ. eigenvalues --   -0.85980  -0.73836  -0.54589  -0.39290  -0.29227
 Alpha virt. eigenvalues --   -0.02703   0.21593   0.30551   0.52842   0.81534

 Mulliken charges:
               1
     1  H   -0.076015
     2  H    0.111820
     3  H    0.059615
     4  H   -0.095059
     5  H   -0.000362
     6  H   -0.000362
     7  H   -0.095059
     8  H    0.059615
     9  H    0.111820
    10  H   -0.076015
 Sum of Mulliken charges =   0.00000

 Dipole moment (field-independent basis, Debye):
    X=              0.0000    Y=             -0.0000    Z=             -0.0000  Tot=              0.0000
 Quadrupole moment (field-independent basis, Debye-Ang):
   XX=            -15.4356   YY=            -14.3653   ZZ=            -12.8502
   XY=             -1.7029   XZ=             -0.0000   YZ=             -0.0000

 Normal termination of Gaussian 09 at Tue Feb 21 09:38:46 2017.
