 Gaussian 09, Revision E.01,
 Gaussian 09:  ES64L-G09RevE.01 30-Nov-2015

 ----------------------------------------------------------------------
 #rhf/gen scf(symm,tight,novaracc,noincfock,fulldiag) stable(crhf) gues
 s=read geom=nocrowd test
 ----------------------------------------------------------------------

 hf stability analysis of h10 triangular lattice, y= 0.8705633810941086
 9
 ----------------------------------------------------------------------
 Symbolic Z-matrix:
 Charge =  0 Multiplicity = 1

                         Standard orientation:
 ---------------------------------------------------------------------
 Center     Atomic      Atomic             Coordinates (Angstroms)
 Number     Number       Type             X           Y           Z
 ---------------------------------------------------------------------
      1          1           0        2.110205    1.128446    0.000000
      2          1           0        2.110205    0.034049    0.000000
      3          1           0        1.055103    0.837822    0.000000
      4          1           0        1.055103   -0.256575    0.000000
      5          1           0        0.000000    0.547198    0.000000
      6          1           0       -0.000000   -0.547198    0.000000
      7          1           0       -1.055103    0.256575    0.000000
      8          1           0       -1.055103   -0.837822    0.000000
      9          1           0       -2.110205   -0.034049    0.000000
     10          1           0       -2.110205   -1.128446    0.000000
 ---------------------------------------------------------------------

 SCF Done:  E(RHF) =  -4.85406402794     A.U. after    6 cycles
 E2 =    -0.1138175086D+00 EUMP2 =    -0.49678815365739D+01

 The electronic state is 1-AG.
 Alpha  occ. eigenvalues --   -0.85962  -0.73845  -0.54598  -0.39226  -0.29253
 Alpha virt. eigenvalues --   -0.02675   0.21625   0.30424   0.52883   0.81159

 Mulliken charges:
               1
     1  H   -0.077196
     2  H    0.113137
     3  H    0.061007
     4  H   -0.095944
     5  H   -0.001004
     6  H   -0.001004
     7  H   -0.095944
     8  H    0.061007
     9  H    0.113137
    10  H   -0.077196
 Sum of Mulliken charges =  -0.00000

 Dipole moment (field-independent basis, Debye):
    X=              0.0000    Y=              0.0000    Z=              0.0000  Tot=              0.0000
 Quadrupole moment (field-independent basis, Debye-Ang):
   XX=            -15.4085   YY=            -14.3973   ZZ=            -12.8522
   XY=             -1.7180   XZ=              0.0000   YZ=              0.0000

 Normal termination of Gaussian 09 at Mon Feb 20 16:18:56 2017.
