 Gaussian 09, Revision E.01,
 Gaussian 09:  ES64L-G09RevE.01 30-Nov-2015

 ----------------------------------------------------------------------
 #rhf/gen scf(symm,tight,novaracc,noincfock,fulldiag) stable(crhf) gues
 s=read geom=nocrowd test
 ----------------------------------------------------------------------

 hf stability analysis of h10 triangular lattice, y= 0.3023959355609886
 5
 ----------------------------------------------------------------------
 Symbolic Z-matrix:
 Charge =  0 Multiplicity = 1

                         Standard orientation:
 ---------------------------------------------------------------------
 Center     Atomic      Atomic             Coordinates (Angstroms)
 Number     Number       Type             X           Y           Z
 ---------------------------------------------------------------------
      1          1           0        1.194692   -2.710357    0.000000
      2          1           0        1.194692   -4.643409    0.000000
      3          1           0        0.597346   -0.871916    0.000000
      4          1           0        0.597346   -2.804967    0.000000
      5          1           0        0.000000    0.966526   -0.000000
      6          1           0       -0.000000   -0.966526   -0.000000
      7          1           0       -0.597346    2.804967    0.000000
      8          1           0       -0.597346    0.871916    0.000000
      9          1           0       -1.194692    4.643409    0.000000
     10          1           0       -1.194692    2.710357    0.000000
 ---------------------------------------------------------------------

 SCF Done:  E(RHF) =  -4.85233270235     A.U. after    5 cycles
 E2 =    -0.7789123247D+00 EUMP2 =    -0.56312450270161D+01

 The electronic state is 1-AG.
 Alpha  occ. eigenvalues --   -0.73468  -0.70429  -0.65630  -0.60507  -0.19484
 Alpha virt. eigenvalues --   -0.13979   0.38637   0.46134   0.57209   0.67909

 Mulliken charges:
               1
     1  H    0.003694
     2  H   -0.007642
     3  H   -0.000471
     4  H    0.003403
     5  H    0.001016
     6  H    0.001016
     7  H    0.003403
     8  H   -0.000471
     9  H   -0.007642
    10  H    0.003694
 Sum of Mulliken charges =  -0.00000

 Dipole moment (field-independent basis, Debye):
    X=             -0.0000    Y=              0.0000    Z=             -0.0000  Tot=              0.0000
 Quadrupole moment (field-independent basis, Debye-Ang):
   XX=            -12.3036   YY=            -17.7102   ZZ=            -13.2126
   XY=              1.3794   XZ=              0.0000   YZ=              0.0000

 Normal termination of Gaussian 09 at Mon Feb 20 15:32:49 2017.
