 Gaussian 09, Revision E.01,
 Gaussian 09:  ES64L-G09RevE.01 30-Nov-2015

 ----------------------------------------------------------------------
 #rhf/gen scf(symm,tight,novaracc,noincfock,fulldiag) stable(crhf) gues
 s=read geom=nocrowd test
 ----------------------------------------------------------------------

 hf stability analysis of h10 triangular lattice, y= 0.2848531043101661
 9
 ----------------------------------------------------------------------
 Symbolic Z-matrix:
 Charge =  0 Multiplicity = 1

                         Standard orientation:
 ---------------------------------------------------------------------
 Center     Atomic      Atomic             Coordinates (Angstroms)
 Number     Number       Type             X           Y           Z
 ---------------------------------------------------------------------
      1          1           0        1.128324   -2.911555   -0.000000
      2          1           0        1.128324   -4.958309   -0.000000
      3          1           0        0.564162   -0.944089   -0.000000
      4          1           0        0.564162   -2.990843   -0.000000
      5          1           0        0.000000    1.023377    0.000000
      6          1           0       -0.000000   -1.023377    0.000000
      7          1           0       -0.564162    2.990843   -0.000000
      8          1           0       -0.564162    0.944089   -0.000000
      9          1           0       -1.128324    4.958309   -0.000000
     10          1           0       -1.128324    2.911555   -0.000000
 ---------------------------------------------------------------------

 SCF Done:  E(RHF) =  -4.77947402313     A.U. after    5 cycles
 E2 =    -0.8336232533D+00 EUMP2 =    -0.56130972763904D+01

 The electronic state is 1-AG.
 Alpha  occ. eigenvalues --   -0.73315  -0.70862  -0.67116  -0.63292  -0.19968
 Alpha virt. eigenvalues --   -0.14767   0.43071   0.49816   0.59591   0.68866

 Mulliken charges:
               1
     1  H    0.001922
     2  H   -0.002841
     3  H   -0.000346
     4  H    0.000688
     5  H    0.000576
     6  H    0.000576
     7  H    0.000688
     8  H   -0.000346
     9  H   -0.002841
    10  H    0.001922
 Sum of Mulliken charges =  -0.00000

 Dipole moment (field-independent basis, Debye):
    X=              0.0000    Y=             -0.0000    Z=              0.0000  Tot=              0.0000
 Quadrupole moment (field-independent basis, Debye-Ang):
   XX=            -12.3793   YY=            -16.7240   ZZ=            -13.2969
   XY=              0.9560   XZ=             -0.0000   YZ=              0.0000

 Normal termination of Gaussian 09 at Mon Feb 20 15:32:40 2017.
