 Gaussian 09, Revision E.01,
 Gaussian 09:  ES64L-G09RevE.01 30-Nov-2015

 ----------------------------------------------------------------------
 #rhf/gen scf(symm,tight,novaracc,noincfock,fulldiag) stable(crhf) gues
 s=read geom=nocrowd test
 ----------------------------------------------------------------------

 hf stability analysis of h10 triangular lattice, y= 0.2247478695127229
 1
 ----------------------------------------------------------------------
 Symbolic Z-matrix:
 Charge =  0 Multiplicity = 1

                         Standard orientation:
 ---------------------------------------------------------------------
 Center     Atomic      Atomic             Coordinates (Angstroms)
 Number     Number       Type             X           Y           Z
 ---------------------------------------------------------------------
      1          1           0        0.895571   -3.789687    0.000000
      2          1           0        0.895571   -6.368379    0.000000
      3          1           0        0.447785   -1.250170    0.000000
      4          1           0        0.447785   -3.828863    0.000000
      5          1           0        0.000000    1.289346   -0.000000
      6          1           0       -0.000000   -1.289346   -0.000000
      7          1           0       -0.447785    3.828863    0.000000
      8          1           0       -0.447785    1.250170    0.000000
      9          1           0       -0.895571    6.368379    0.000000
     10          1           0       -0.895571    3.789687    0.000000
 ---------------------------------------------------------------------

 SCF Done:  E(RHF) =  -4.24173288895     A.U. after    8 cycles
 E2 =    -0.1071984342D+01 EUMP2 =    -0.53137172307701D+01

 The electronic state is 1-AG.
 Alpha  occ. eigenvalues --   -0.74291  -0.73571  -0.72621  -0.71808  -0.20539
 Alpha virt. eigenvalues --   -0.16426   0.60323   0.64138   0.69280   0.73823

 Mulliken charges:
               1
     1  H   -0.000219
     2  H    0.001211
     3  H   -0.000051
     4  H   -0.000992
     5  H    0.000051
     6  H    0.000051
     7  H   -0.000992
     8  H   -0.000051
     9  H    0.001211
    10  H   -0.000219
 Sum of Mulliken charges =  -0.00000

 Dipole moment (field-independent basis, Debye):
    X=              0.0000    Y=             -0.0000    Z=              0.0000  Tot=              0.0000
 Quadrupole moment (field-independent basis, Debye-Ang):
   XX=            -12.8239   YY=            -14.5021   ZZ=            -13.5276
   XY=              0.2063   XZ=              0.0000   YZ=             -0.0000

 Normal termination of Gaussian 09 at Mon Feb 20 15:32:13 2017.
