 Gaussian 09, Revision E.01,
 Gaussian 09:  ES64L-G09RevE.01 30-Nov-2015

 ----------------------------------------------------------------------
 #rhf/gen scf(symm,tight,novaracc,noincfock,fulldiag) stable(crhf) gues
 s=read geom=nocrowd test
 ----------------------------------------------------------------------

 hf stability analysis of h10 triangular lattice, y= 0.4496500805017584
 8
 ----------------------------------------------------------------------
 Symbolic Z-matrix:
 Charge =  0 Multiplicity = 1

                         Standard orientation:
 ---------------------------------------------------------------------
 Center     Atomic      Atomic             Coordinates (Angstroms)
 Number     Number       Type             X           Y           Z
 ---------------------------------------------------------------------
      1          1           0        1.697521   -1.446220    0.000000
      2          1           0        1.697521   -2.806675    0.000000
      3          1           0        0.848760   -0.382996    0.000000
      4          1           0        0.848760   -1.743451    0.000000
      5          1           0        0.000000    0.680228    0.000000
      6          1           0       -0.000000   -0.680228    0.000000
      7          1           0       -0.848760    1.743451   -0.000000
      8          1           0       -0.848760    0.382996   -0.000000
      9          1           0       -1.697521    2.806675   -0.000000
     10          1           0       -1.697521    1.446220   -0.000000
 ---------------------------------------------------------------------

 SCF Done:  E(RHF) =  -4.71636443273     A.U. after    8 cycles
 E2 =    -0.1397343656D+00 EUMP2 =    -0.48560987983511D+01

 The electronic state is 1-AG.
 Alpha  occ. eigenvalues --   -0.76921  -0.71396  -0.55055  -0.35067  -0.14855
 Alpha virt. eigenvalues --   -0.00310   0.14121   0.17022   0.40768   0.64542

 Mulliken charges:
               1
     1  H   -0.003938
     2  H    0.074939
     3  H   -0.026387
     4  H    0.138957
     5  H   -0.183571
     6  H   -0.183571
     7  H    0.138957
     8  H   -0.026387
     9  H    0.074939
    10  H   -0.003938
 Sum of Mulliken charges =   0.00000

 Dipole moment (field-independent basis, Debye):
    X=              0.0000    Y=              0.0000    Z=             -0.0000  Tot=              0.0000
 Quadrupole moment (field-independent basis, Debye-Ang):
   XX=            -11.8684   YY=             -5.9596   ZZ=            -13.1743
   XY=             -5.3672   XZ=              0.0000   YZ=             -0.0000

 Normal termination of Gaussian 09 at Mon Feb 20 15:36:14 2017.
