 Gaussian 09, Revision E.01,
 Gaussian 09:  ES64L-G09RevE.01 30-Nov-2015

 ----------------------------------------------------------------------
 #rhf/gen scf(symm,tight,novaracc,noincfock,fulldiag) stable(crhf) gues
 s=read geom=nocrowd test
 ----------------------------------------------------------------------

 hf stability analysis of h10 triangular lattice, y= 0.8683260728045242
 3
 ----------------------------------------------------------------------
 Symbolic Z-matrix:
 Charge =  0 Multiplicity = 1

                         Standard orientation:
 ---------------------------------------------------------------------
 Center     Atomic      Atomic             Coordinates (Angstroms)
 Number     Number       Type             X           Y           Z
 ---------------------------------------------------------------------
      1          1           0        2.111635    1.117204   -0.000000
      2          1           0        2.111635    0.023549   -0.000000
      3          1           0        1.055817    0.832016   -0.000000
      4          1           0        1.055817   -0.261640   -0.000000
      5          1           0        0.000000    0.546828    0.000000
      6          1           0       -0.000000   -0.546828    0.000000
      7          1           0       -1.055817    0.261640    0.000000
      8          1           0       -1.055817   -0.832016    0.000000
      9          1           0       -2.111635   -0.023549    0.000000
     10          1           0       -2.111635   -1.117204    0.000000
 ---------------------------------------------------------------------

 SCF Done:  E(RHF) =  -4.85361767495     A.U. after    3 cycles
 E2 =    -0.1138856766D+00 EUMP2 =    -0.49675033515361D+01

 The electronic state is 1-AG.
 Alpha  occ. eigenvalues --   -0.85980  -0.73836  -0.54589  -0.39290  -0.29227
 Alpha virt. eigenvalues --   -0.02703   0.21593   0.30550   0.52842   0.81533

 Mulliken charges:
               1
     1  H   -0.076018
     2  H    0.111825
     3  H    0.059620
     4  H   -0.095062
     5  H   -0.000364
     6  H   -0.000364
     7  H   -0.095062
     8  H    0.059620
     9  H    0.111825
    10  H   -0.076018
 Sum of Mulliken charges =   0.00000

 Dipole moment (field-independent basis, Debye):
    X=             -0.0000    Y=             -0.0000    Z=              0.0000  Tot=              0.0000
 Quadrupole moment (field-independent basis, Debye-Ang):
   XX=            -15.4355   YY=            -14.3654   ZZ=            -12.8502
   XY=             -1.7030   XZ=              0.0000   YZ=              0.0000

 Normal termination of Gaussian 09 at Tue Feb 21 09:40:25 2017.
