 Gaussian 09, Revision E.01,
 Gaussian 09:  ES64L-G09RevE.01 30-Nov-2015

 ----------------------------------------------------------------------
 #rhf/gen scf(symm,tight,novaracc,noincfock,fulldiag) stable(crhf) gues
 s=read geom=nocrowd test
 ----------------------------------------------------------------------

 hf stability analysis of h12 triangular lattice, y= 0.7868496627299574
 9 alpha= 47.000000000000000
 ----------------------------------------------------------------------
 Symbolic Z-matrix:
 Charge =  0 Multiplicity = 1

                         Standard orientation:
 ---------------------------------------------------------------------
 Center     Atomic      Atomic             Coordinates (Angstroms)
 Number     Number       Type             X           Y           Z
 ---------------------------------------------------------------------
      1          1           0        2.360549    1.467498   -0.000000
      2          1           0        1.573699    2.201247   -0.000000
      3          1           0        1.573699    0.733749   -0.000000
      4          1           0        0.786850    1.467498   -0.000000
      5          1           0        0.786850    0.000000   -0.000000
      6          1           0        0.000000    0.733749    0.000000
      7          1           0       -0.000000   -0.733749    0.000000
      8          1           0       -0.786850    0.000000    0.000000
      9          1           0       -0.786850   -1.467498    0.000000
     10          1           0       -1.573699   -0.733749    0.000000
     11          1           0       -1.573699   -2.201247    0.000000
     12          1           0       -2.360549   -1.467498    0.000000
 ---------------------------------------------------------------------

 SCF Done:  E(RHF) =  -5.94102564283     A.U. after   10 cycles
 E2 =    -0.1264581129D+00 EUMP2 =    -0.60674837557544D+01

 The electronic state is 1-AG.
 Alpha  occ. eigenvalues --   -0.89011  -0.79781  -0.63579  -0.46732  -0.42789
 Alpha  occ. eigenvalues --   -0.34650
 Alpha virt. eigenvalues --    0.05016   0.07087   0.30249   0.41580   0.63285
 Alpha virt. eigenvalues --    0.95158

 Mulliken charges:
               1
     1  H    0.026431
     2  H    0.030740
     3  H   -0.002465
     4  H   -0.044574
     5  H   -0.039439
     6  H    0.029307
     7  H    0.029307
     8  H   -0.039439
     9  H   -0.044574
    10  H   -0.002465
    11  H    0.030740
    12  H    0.026431
 Sum of Mulliken charges =  -0.00000

 Dipole moment (field-independent basis, Debye):
    X=             -0.0000    Y=             -0.0000    Z=              0.0000  Tot=              0.0000
 Quadrupole moment (field-independent basis, Debye-Ang):
   XX=            -16.6545   YY=            -17.2120   ZZ=            -15.5290
   XY=              2.4603   XZ=             -0.0000   YZ=             -0.0000

 Normal termination of Gaussian 09 at Fri Feb 10 12:37:39 2017.
