 Gaussian 09, Revision E.01,
 Gaussian 09:  ES64L-G09RevE.01 30-Nov-2015

 ----------------------------------------------------------------------
 #rhf/gen scf(symm,tight,novaracc,noincfock,fulldiag) stable(crhf) gues
 s=read geom=nocrowd test
 ----------------------------------------------------------------------

 hf stability analysis of h12 triangular lattice, y= 0.3503135618487248
 1 alpha= 12.000000000000000
 ----------------------------------------------------------------------
 Symbolic Z-matrix:
 Charge =  0 Multiplicity = 1

                         Standard orientation:
 ---------------------------------------------------------------------
 Center     Atomic      Atomic             Coordinates (Angstroms)
 Number     Number       Type             X           Y           Z
 ---------------------------------------------------------------------
      1          1           0        3.296191    1.050941   -0.000000
      2          1           0        4.944287    0.700627   -0.000000
      3          1           0        1.648096    0.700627    0.000000
      4          1           0        3.296191    0.350314   -0.000000
      5          1           0        0.000000    0.350314    0.000000
      6          1           0        1.648096   -0.000000   -0.000000
      7          1           0       -1.648096    0.000000   -0.000000
      8          1           0       -0.000000   -0.350314    0.000000
      9          1           0       -3.296191   -0.350314   -0.000000
     10          1           0       -1.648096   -0.700627    0.000000
     11          1           0       -4.944287   -0.700627   -0.000000
     12          1           0       -3.296191   -1.050941    0.000000
 ---------------------------------------------------------------------

 SCF Done:  E(RHF) =  -5.96417275621     A.U. after    7 cycles
 E2 =    -0.7446935119D+00 EUMP2 =    -0.67088662681303D+01

 The electronic state is 1-AG.
 Alpha  occ. eigenvalues --   -0.75133  -0.72018  -0.66276  -0.58987  -0.50877
 Alpha  occ. eigenvalues --   -0.16511
 Alpha virt. eigenvalues --   -0.10902   0.26769   0.33216   0.43963   0.56496
 Alpha virt. eigenvalues --    0.67473

 Mulliken charges:
               1
     1  H    0.013998
     2  H   -0.046763
     3  H    0.001563
     4  H    0.022282
     5  H    0.001986
     6  H    0.006934
     7  H    0.006934
     8  H    0.001986
     9  H    0.022282
    10  H    0.001563
    11  H   -0.046763
    12  H    0.013998
 Sum of Mulliken charges =  -0.00000

 Dipole moment (field-independent basis, Debye):
    X=             -0.0000    Y=              0.0000    Z=              0.0000  Tot=              0.0000
 Quadrupole moment (field-independent basis, Debye-Ang):
   XX=            -28.8104   YY=            -13.7968   ZZ=            -15.5543
   XY=             -1.8617   XZ=              0.0000   YZ=             -0.0000

 Normal termination of Gaussian 09 at Fri Feb 10 12:37:20 2017.
