 Gaussian 09, Revision E.01,
 Gaussian 09:  ES64L-G09RevE.01 30-Nov-2015

 ----------------------------------------------------------------------
 #rhf/gen scf(symm,tight,novaracc,noincfock,fulldiag) stable(crhf) gues
 s=read geom=nocrowd test
 ----------------------------------------------------------------------

 hf stability analysis of h12 triangular lattice, y= 1.4189643903365978
  alpha= 74.000000000000000
 ----------------------------------------------------------------------
 Symbolic Z-matrix:
 Charge =  0 Multiplicity = 1

                         Standard orientation:
 ---------------------------------------------------------------------
 Center     Atomic      Atomic             Coordinates (Angstroms)
 Number     Number       Type             X           Y           Z
 ---------------------------------------------------------------------
      1          1           0        4.256893    0.813763   -0.000000
      2          1           0        2.837929    1.220644   -0.000000
      3          1           0        2.837929    0.406881   -0.000000
      4          1           0        1.418964    0.813763   -0.000000
      5          1           0        1.418964    0.000000   -0.000000
      6          1           0        0.000000    0.406881    0.000000
      7          1           0       -0.000000   -0.406881    0.000000
      8          1           0       -1.418964    0.000000   -0.000000
      9          1           0       -1.418964   -0.813763   -0.000000
     10          1           0       -2.837929   -0.406881   -0.000000
     11          1           0       -2.837929   -1.220644   -0.000000
     12          1           0       -4.256893   -0.813763   -0.000000
 ---------------------------------------------------------------------

 SCF Done:  E(RHF) =  -5.83322492664     A.U. after   10 cycles
 E2 =    -0.4383972473D+00 EUMP2 =    -0.62716221739122D+01

 The electronic state is 1-AG.
 Alpha  occ. eigenvalues --   -0.79245  -0.74340  -0.65841  -0.54761  -0.41408
 Alpha  occ. eigenvalues --   -0.11545
 Alpha virt. eigenvalues --   -0.03492   0.14029   0.22290   0.35324   0.50484
 Alpha virt. eigenvalues --    0.63238

 Mulliken charges:
               1
     1  H   -0.158421
     2  H    0.028769
     3  H    0.076433
     4  H    0.017641
     5  H    0.016795
     6  H    0.018784
     7  H    0.018784
     8  H    0.016795
     9  H    0.017641
    10  H    0.076433
    11  H    0.028769
    12  H   -0.158421
 Sum of Mulliken charges =   0.00000

 Dipole moment (field-independent basis, Debye):
    X=              0.0000    Y=             -0.0000    Z=              0.0000  Tot=              0.0000
 Quadrupole moment (field-independent basis, Debye-Ang):
   XX=            -41.5584   YY=            -13.7432   ZZ=            -15.2985
   XY=             -4.9799   XZ=              0.0000   YZ=              0.0000

 Normal termination of Gaussian 09 at Fri Feb 10 12:38:41 2017.
