 Gaussian 09, Revision E.01,
 Gaussian 09:  ES64L-G09RevE.01 30-Nov-2015

 ----------------------------------------------------------------------
 #rhf/gen scf(symm,tight,novaracc,noincfock,fulldiag) stable(crhf) gues
 s=read geom=nocrowd test
 ----------------------------------------------------------------------

 hf stability analysis of h12 triangular lattice, y= 0.2463370865798451
 8 alpha= 6.0000000000000000
 ----------------------------------------------------------------------
 Symbolic Z-matrix:
 Charge =  0 Multiplicity = 1

                         Standard orientation:
 ---------------------------------------------------------------------
 Center     Atomic      Atomic             Coordinates (Angstroms)
 Number     Number       Type             X           Y           Z
 ---------------------------------------------------------------------
      1          1           0        4.687482    0.739011    0.000000
      2          1           0        7.031222    0.492674    0.000000
      3          1           0        2.343741    0.492674    0.000000
      4          1           0        4.687482    0.246337    0.000000
      5          1           0        0.000000    0.246337    0.000000
      6          1           0        2.343741    0.000000    0.000000
      7          1           0       -2.343741    0.000000    0.000000
      8          1           0       -0.000000   -0.246337    0.000000
      9          1           0       -4.687482   -0.246337    0.000000
     10          1           0       -2.343741   -0.492674    0.000000
     11          1           0       -7.031222   -0.492674    0.000000
     12          1           0       -4.687482   -0.739011    0.000000
 ---------------------------------------------------------------------

 SCF Done:  E(RHF) =  -5.43966687531     A.U. after    5 cycles
 E2 =    -0.1200088912D+01 EUMP2 =    -0.66397557875183D+01

 The electronic state is 1-AG.
 Alpha  occ. eigenvalues --   -0.73753  -0.72866  -0.71489  -0.69993  -0.68739
 Alpha  occ. eigenvalues --   -0.20106
 Alpha virt. eigenvalues --   -0.16351   0.53256   0.56759   0.62012   0.67770
 Alpha virt. eigenvalues --    0.72398

 Mulliken charges:
               1
     1  H    0.000009
     2  H    0.001167
     3  H   -0.000132
     4  H   -0.001195
     5  H    0.000001
     6  H    0.000151
     7  H    0.000151
     8  H    0.000001
     9  H   -0.001195
    10  H   -0.000132
    11  H    0.001167
    12  H    0.000009
 Sum of Mulliken charges =  -0.00000

 Dipole moment (field-independent basis, Debye):
    X=             -0.0000    Y=             -0.0000    Z=              0.0000  Tot=              0.0000
 Quadrupole moment (field-independent basis, Debye-Ang):
   XX=            -18.2548   YY=            -15.0800   ZZ=            -16.1510
   XY=             -0.1539   XZ=              0.0000   YZ=              0.0000

 Normal termination of Gaussian 09 at Fri Feb 10 12:37:32 2017.
