 Gaussian 09, Revision E.01,
 Gaussian 09:  ES64L-G09RevE.01 30-Nov-2015

 ----------------------------------------------------------------------
 #rhf/gen scf(symm,tight,novaracc,noincfock,fulldiag) stable(crhf) gues
 s=read geom=nocrowd test
 ----------------------------------------------------------------------

 hf stability analysis of h12 triangular lattice, y= 1.7234297938777567
  alpha= 79.000000000000000
 ----------------------------------------------------------------------
 Symbolic Z-matrix:
 Charge =  0 Multiplicity = 1

                         Standard orientation:
 ---------------------------------------------------------------------
 Center     Atomic      Atomic             Coordinates (Angstroms)
 Number     Number       Type             X           Y           Z
 ---------------------------------------------------------------------
      1          1           0        5.170289    0.670002    0.000000
      2          1           0        3.446860    1.005002    0.000000
      3          1           0        3.446860    0.335001    0.000000
      4          1           0        1.723430    0.670002    0.000000
      5          1           0        1.723430    0.000000    0.000000
      6          1           0        0.000000    0.335001    0.000000
      7          1           0       -0.000000   -0.335001    0.000000
      8          1           0       -1.723430    0.000000    0.000000
      9          1           0       -1.723430   -0.670002    0.000000
     10          1           0       -3.446860   -0.335001    0.000000
     11          1           0       -3.446860   -1.005002    0.000000
     12          1           0       -5.170289   -0.670002    0.000000
 ---------------------------------------------------------------------

 SCF Done:  E(RHF) =  -5.96285758454     A.U. after    7 cycles
 E2 =    -0.8164236131D+00 EUMP2 =    -0.67792811976796D+01

 The electronic state is 1-AG.
 Alpha  occ. eigenvalues --   -0.74481  -0.71733  -0.66713  -0.60419  -0.53662
 Alpha  occ. eigenvalues --   -0.17506
 Alpha virt. eigenvalues --   -0.12258   0.30256   0.36322   0.46353   0.58020
 Alpha virt. eigenvalues --    0.68185

 Mulliken charges:
               1
     1  H   -0.029634
     2  H    0.009907
     3  H    0.014146
     4  H    0.000326
     5  H    0.004358
     6  H    0.000896
     7  H    0.000896
     8  H    0.004358
     9  H    0.000326
    10  H    0.014146
    11  H    0.009907
    12  H   -0.029634
 Sum of Mulliken charges =  -0.00000

 Dipole moment (field-independent basis, Debye):
    X=              0.0000    Y=             -0.0000    Z=             -0.0000  Tot=              0.0000
 Quadrupole moment (field-independent basis, Debye-Ang):
   XX=            -26.1746   YY=            -13.9469   ZZ=            -15.6420
   XY=             -1.3586   XZ=             -0.0000   YZ=             -0.0000

 Normal termination of Gaussian 09 at Fri Feb 10 12:38:52 2017.
