 Gaussian 09, Revision E.01,
 Gaussian 09:  ES64L-G09RevE.01 30-Nov-2015

 ----------------------------------------------------------------------
 #rhf/gen scf(symm,tight,novaracc,noincfock,fulldiag) stable(crhf) gues
 s=read geom=nocrowd test
 ----------------------------------------------------------------------

 hf stability analysis of h12 triangular lattice, y= 0.5889881594497650
 1 alpha= 31.000000000000000
 ----------------------------------------------------------------------
 Symbolic Z-matrix:
 Charge =  0 Multiplicity = 1

                         Standard orientation:
 ---------------------------------------------------------------------
 Center     Atomic      Atomic             Coordinates (Angstroms)
 Number     Number       Type             X           Y           Z
 ---------------------------------------------------------------------
      1          1           0        1.960482    1.766964    0.000000
      2          1           0        2.940723    1.177976    0.000000
      3          1           0        0.980241    1.177976    0.000000
      4          1           0        1.960482    0.588988    0.000000
      5          1           0        0.000000    0.588988    0.000000
      6          1           0        0.980241    0.000000    0.000000
      7          1           0       -0.980241    0.000000    0.000000
      8          1           0       -0.000000   -0.588988    0.000000
      9          1           0       -1.960482   -0.588988    0.000000
     10          1           0       -0.980241   -1.177976    0.000000
     11          1           0       -2.940723   -1.177976    0.000000
     12          1           0       -1.960482   -1.766964    0.000000
 ---------------------------------------------------------------------

 SCF Done:  E(RHF) =  -5.86034864884     A.U. after   11 cycles
 E2 =    -0.1289771497D+00 EUMP2 =    -0.59893257985862D+01

 The electronic state is 1-AG.
 Alpha  occ. eigenvalues --   -0.86877  -0.78207  -0.64337  -0.44720  -0.39737
 Alpha  occ. eigenvalues --   -0.29416
 Alpha virt. eigenvalues --    0.01600   0.07676   0.31735   0.33939   0.61395
 Alpha virt. eigenvalues --    0.63857

 Mulliken charges:
               1
     1  H    0.059595
     2  H    0.000702
     3  H   -0.191607
     4  H    0.127827
     5  H    0.180514
     6  H   -0.177032
     7  H   -0.177032
     8  H    0.180514
     9  H    0.127827
    10  H   -0.191607
    11  H    0.000702
    12  H    0.059595
 Sum of Mulliken charges =  -0.00000

 Dipole moment (field-independent basis, Debye):
    X=              0.0000    Y=              0.0000    Z=              0.0000  Tot=              0.0000
 Quadrupole moment (field-independent basis, Debye-Ang):
   XX=            -14.0412   YY=            -18.4095   ZZ=            -15.6261
   XY=              2.7524   XZ=             -0.0000   YZ=              0.0000

 Normal termination of Gaussian 09 at Fri Feb 10 12:36:35 2017.
