 Gaussian 09, Revision E.01,
 Gaussian 09:  ES64L-G09RevE.01 30-Nov-2015

 ----------------------------------------------------------------------
 #rhf/gen scf(symm,tight,novaracc,noincfock,fulldiag) stable(crhf) geom
 =nocrowd test
 ----------------------------------------------------------------------

 hf stability analysis of h10 triangular lattice, y= 0.8658548631816802
 6
 ----------------------------------------------------------------------
 Symbolic Z-matrix:
 Charge =  0 Multiplicity = 1

                         Standard orientation:
 ---------------------------------------------------------------------
 Center     Atomic      Atomic             Coordinates (Angstroms)
 Number     Number       Type             X           Y           Z
 ---------------------------------------------------------------------
      1          1           0        0.000000    0.865855    1.333596
      2          1           0        0.000000   -0.000000    2.000394
      3          1           0        0.000000   -0.000000    0.666798
      4          1           0       -0.000000   -0.865855    1.333596
      5          1           0       -0.000000    0.865855    0.000000
      6          1           0       -0.000000   -0.865855   -0.000000
      7          1           0        0.000000    0.000000   -0.666798
      8          1           0        0.000000    0.865855   -1.333596
      9          1           0       -0.000000   -0.865855   -1.333596
     10          1           0        0.000000    0.000000   -2.000394
 ---------------------------------------------------------------------

 SCF Done:  E(RHF) =  -4.95695038099     A.U. after    8 cycles
 E2 =    -0.9643131617D-01 EUMP2 =    -0.50533816971570D+01

 The electronic state is 1-AG.
 Alpha  occ. eigenvalues --   -0.94448  -0.74709  -0.53850  -0.47117  -0.31607
 Alpha virt. eigenvalues --    0.07746   0.19190   0.31750   0.48779   0.50678

 Mulliken charges:
               1
     1  H   -0.152697
     2  H    0.124879
     3  H    0.104295
     4  H   -0.152697
     5  H    0.076220
     6  H    0.076220
     7  H    0.104295
     8  H   -0.152697
     9  H   -0.152697
    10  H    0.124879
 Sum of Mulliken charges =  -0.00000

 Dipole moment (field-independent basis, Debye):
    X=              0.0000    Y=             -0.0000    Z=             -0.0000  Tot=              0.0000
 Quadrupole moment (field-independent basis, Debye-Ang):
   XX=            -12.9343   YY=            -17.2256   ZZ=            -15.2878
   XY=             -0.0000   XZ=             -0.0000   YZ=              0.0000

 Normal termination of Gaussian 09 at Thu Feb  9 16:11:53 2017.
