 Gaussian 09, Revision E.01,
 Gaussian 09:  ES64L-G09RevE.01 30-Nov-2015

 ----------------------------------------------------------------------
 #rhf/gen scf(symm,tight,novaracc,noincfock,fulldiag) stable(crhf) geom
 =nocrowd test
 ----------------------------------------------------------------------

 hf stability analysis of h10 triangular lattice, y= 0.8841209406657646
 3
 ----------------------------------------------------------------------
 Symbolic Z-matrix:
 Charge =  0 Multiplicity = 1

                         Standard orientation:
 ---------------------------------------------------------------------
 Center     Atomic      Atomic             Coordinates (Angstroms)
 Number     Number       Type             X           Y           Z
 ---------------------------------------------------------------------
      1          1           0       -0.000000    0.884121    1.306044
      2          1           0       -0.000000   -0.000000    1.959066
      3          1           0       -0.000000   -0.000000    0.653022
      4          1           0       -0.000000   -0.884121    1.306044
      5          1           0       -0.000000    0.884121    0.000000
      6          1           0       -0.000000   -0.884121    0.000000
      7          1           0        0.000000   -0.000000   -0.653022
      8          1           0        0.000000    0.884121   -1.306044
      9          1           0       -0.000000   -0.884121   -1.306044
     10          1           0        0.000000   -0.000000   -1.959066
 ---------------------------------------------------------------------

 SCF Done:  E(RHF) =  -4.96411131336     A.U. after    8 cycles
 E2 =    -0.9672656167D-01 EUMP2 =    -0.50608378750285D+01

 The electronic state is 1-AG.
 Alpha  occ. eigenvalues --   -0.94875  -0.74545  -0.54966  -0.46201  -0.32079
 Alpha virt. eigenvalues --    0.09620   0.20103   0.28571   0.49281   0.50767

 Mulliken charges:
               1
     1  H   -0.144298
     2  H    0.107814
     3  H    0.101348
     4  H   -0.144298
     5  H    0.079434
     6  H    0.079434
     7  H    0.101348
     8  H   -0.144298
     9  H   -0.144298
    10  H    0.107814
 Sum of Mulliken charges =   0.00000

 Dipole moment (field-independent basis, Debye):
    X=              0.0000    Y=              0.0000    Z=             -0.0000  Tot=              0.0000
 Quadrupole moment (field-independent basis, Debye-Ang):
   XX=            -12.9222   YY=            -16.9849   ZZ=            -15.8630
   XY=             -0.0000   XZ=             -0.0000   YZ=              0.0000

 Normal termination of Gaussian 09 at Thu Feb  9 16:12:41 2017.
