 Gaussian 09, Revision E.01,
 Gaussian 09:  ES64L-G09RevE.01 30-Nov-2015

 ----------------------------------------------------------------------
 #rhf/gen scf(symm,tight,novaracc,noincfock,fulldiag) stable(crhf) geom
 =nocrowd test
 ----------------------------------------------------------------------

 ----------------------------------------------------------------------
 hf stability analysis of h10 triangular lattice, y= 1.2560588864908790
 ----------------------------------------------------------------------
 Symbolic Z-matrix:
 Charge =  0 Multiplicity = 1

                         Standard orientation:
 ---------------------------------------------------------------------
 Center     Atomic      Atomic             Coordinates (Angstroms)
 Number     Number       Type             X           Y           Z
 ---------------------------------------------------------------------
      1          1           0        0.000000    1.256059    0.919304
      2          1           0        0.000000    0.000000    1.378957
      3          1           0        0.000000    0.000000    0.459652
      4          1           0       -0.000000   -1.256059    0.919304
      5          1           0       -0.000000    1.256059    0.000000
      6          1           0       -0.000000   -1.256059   -0.000000
      7          1           0        0.000000    0.000000   -0.459652
      8          1           0        0.000000    1.256059   -0.919304
      9          1           0       -0.000000   -1.256059   -0.919304
     10          1           0        0.000000    0.000000   -1.378957
 ---------------------------------------------------------------------

 SCF Done:  E(RHF) =  -4.92563103021     A.U. after    8 cycles
 E2 =    -0.9121843895D-01 EUMP2 =    -0.50168494691654D+01

 The electronic state is 1-AG.
 Alpha  occ. eigenvalues --   -0.94441  -0.68595  -0.66023  -0.44579  -0.30304
 Alpha virt. eigenvalues --    0.01269   0.13493   0.56137   0.64527   0.77060

 Mulliken charges:
               1
     1  H   -0.084764
     2  H    0.291318
     3  H   -0.044613
     4  H   -0.084764
     5  H   -0.077176
     6  H   -0.077176
     7  H   -0.044613
     8  H   -0.084764
     9  H   -0.084764
    10  H    0.291318
 Sum of Mulliken charges =   0.00000

 Dipole moment (field-independent basis, Debye):
    X=              0.0000    Y=              0.0000    Z=              0.0000  Tot=              0.0000
 Quadrupole moment (field-independent basis, Debye-Ang):
   XX=            -12.6073   YY=            -21.2936   ZZ=             -9.9048
   XY=             -0.0000   XZ=             -0.0000   YZ=              0.0000

 Normal termination of Gaussian 09 at Thu Feb  9 16:24:08 2017.
