 Gaussian 09, Revision E.01,
 Gaussian 09:  ES64L-G09RevE.01 30-Nov-2015

 ----------------------------------------------------------------------
 #rhf/gen scf(symm,tight,novaracc,noincfock,fulldiag) stable(crhf) geom
 =nocrowd test
 ----------------------------------------------------------------------

 ----------------------------------------------------------------------
 hf stability analysis of h10 triangular lattice, y= 2.0871114051793418
 ----------------------------------------------------------------------
 Symbolic Z-matrix:
 Charge =  0 Multiplicity = 1

                         Standard orientation:
 ---------------------------------------------------------------------
 Center     Atomic      Atomic             Coordinates (Angstroms)
 Number     Number       Type             X           Y           Z
 ---------------------------------------------------------------------
      1          1           0        0.000000    2.087111    0.553253
      2          1           0        0.000000    0.000000    0.829880
      3          1           0        0.000000    0.000000    0.276626
      4          1           0       -0.000000   -2.087111    0.553253
      5          1           0       -0.000000    2.087111   -0.000000
      6          1           0       -0.000000   -2.087111    0.000000
      7          1           0        0.000000   -0.000000   -0.276626
      8          1           0        0.000000    2.087111   -0.553253
      9          1           0       -0.000000   -2.087111   -0.553253
     10          1           0        0.000000   -0.000000   -0.829880
 ---------------------------------------------------------------------

 SCF Done:  E(RHF) =  -3.92436280996     A.U. after    7 cycles
 E2 =    -0.1843239128D+00 EUMP2 =    -0.41086867227584D+01

 The electronic state is 1-AG.
 Alpha  occ. eigenvalues --   -1.01896  -0.87286  -0.86455  -0.54912  -0.16530
 Alpha virt. eigenvalues --   -0.01886   0.45441   1.26462   1.29020   1.97502

 Mulliken charges:
               1
     1  H    0.207307
     2  H    0.237419
     3  H   -0.208585
     4  H    0.207307
     5  H   -0.443448
     6  H   -0.443448
     7  H   -0.208585
     8  H    0.207307
     9  H    0.207307
    10  H    0.237419
 Sum of Mulliken charges =   0.00000

 Dipole moment (field-independent basis, Debye):
    X=              0.0000    Y=              0.0000    Z=             -0.0000  Tot=              0.0000
 Quadrupole moment (field-independent basis, Debye-Ang):
   XX=            -12.3143   YY=            -14.9566   ZZ=            -14.4886
   XY=             -0.0000   XZ=              0.0000   YZ=              0.0000

 Normal termination of Gaussian 09 at Thu Feb  9 16:32:52 2017.
