 Gaussian 09, Revision E.01,
 Gaussian 09:  ES64L-G09RevE.01 30-Nov-2015

 ----------------------------------------------------------------------
 #rhf/gen scf(symm,tight,novaracc,noincfock,fulldiag) stable(crhf) geom
 =nocrowd test
 ----------------------------------------------------------------------

 ----------------------------------------------------------------------
 hf stability analysis of h10 triangular lattice, y= 1.3470498334887806
 ----------------------------------------------------------------------
 Symbolic Z-matrix:
 Charge =  0 Multiplicity = 1

                         Standard orientation:
 ---------------------------------------------------------------------
 Center     Atomic      Atomic             Coordinates (Angstroms)
 Number     Number       Type             X           Y           Z
 ---------------------------------------------------------------------
      1          1           0        0.000000    1.347050    0.857207
      2          1           0       -0.000000   -0.000000    1.285811
      3          1           0       -0.000000   -0.000000    0.428603
      4          1           0       -0.000000   -1.347050    0.857207
      5          1           0       -0.000000    1.347050    0.000000
      6          1           0       -0.000000   -1.347050   -0.000000
      7          1           0        0.000000    0.000000   -0.428603
      8          1           0        0.000000    1.347050   -0.857207
      9          1           0       -0.000000   -1.347050   -0.857207
     10          1           0        0.000000    0.000000   -1.285811
 ---------------------------------------------------------------------

 SCF Done:  E(RHF) =  -4.95407319495     A.U. after    8 cycles
 E2 =    -0.8802298188D-01 EUMP2 =    -0.50420961768391D+01

 The electronic state is 1-AG.
 Alpha  occ. eigenvalues --   -0.95138  -0.71216  -0.64250  -0.52118  -0.29028
 Alpha virt. eigenvalues --    0.06264   0.09454   0.64048   0.77527   0.81364

 Mulliken charges:
               1
     1  H   -0.064883
     2  H    0.282883
     3  H   -0.060903
     4  H   -0.064883
     5  H   -0.092215
     6  H   -0.092215
     7  H   -0.060903
     8  H   -0.064883
     9  H   -0.064883
    10  H    0.282883
 Sum of Mulliken charges =  -0.00000

 Dipole moment (field-independent basis, Debye):
    X=              0.0000    Y=              0.0000    Z=             -0.0000  Tot=              0.0000
 Quadrupole moment (field-independent basis, Debye-Ang):
   XX=            -12.6163   YY=            -20.8619   ZZ=            -10.8425
   XY=             -0.0000   XZ=             -0.0000   YZ=             -0.0000

 Normal termination of Gaussian 09 at Thu Feb  9 16:25:50 2017.
