 Gaussian 09, Revision E.01,
 Gaussian 09:  ES64L-G09RevE.01 30-Nov-2015

 ----------------------------------------------------------------------
 #rhf/gen scf(symm,tight,novaracc,noincfock,fulldiag) stable(crhf) geom
 =nocrowd test
 ----------------------------------------------------------------------

 ----------------------------------------------------------------------
 hf stability analysis of h10 triangular lattice, y= 1.2060309883170346
 ----------------------------------------------------------------------
 Symbolic Z-matrix:
 Charge =  0 Multiplicity = 1

                         Standard orientation:
 ---------------------------------------------------------------------
 Center     Atomic      Atomic             Coordinates (Angstroms)
 Number     Number       Type             X           Y           Z
 ---------------------------------------------------------------------
      1          1           0        0.000000    1.206031    0.957439
      2          1           0       -0.000000   -0.000000    1.436158
      3          1           0       -0.000000   -0.000000    0.478719
      4          1           0       -0.000000   -1.206031    0.957439
      5          1           0       -0.000000    1.206031    0.000000
      6          1           0       -0.000000   -1.206031   -0.000000
      7          1           0        0.000000    0.000000   -0.478719
      8          1           0        0.000000    1.206031   -0.957439
      9          1           0       -0.000000   -1.206031   -0.957439
     10          1           0        0.000000    0.000000   -1.436158
 ---------------------------------------------------------------------

 SCF Done:  E(RHF) =  -4.88660573478     A.U. after    9 cycles
 E2 =    -0.9576261831D-01 EUMP2 =    -0.49823683530964D+01

 The electronic state is 1-AG.
 Alpha  occ. eigenvalues --   -0.94148  -0.67103  -0.67095  -0.40081  -0.30853
 Alpha virt. eigenvalues --   -0.01255   0.15943   0.51676   0.57523   0.74658

 Mulliken charges:
               1
     1  H   -0.081425
     2  H    0.275546
     3  H   -0.026298
     4  H   -0.081425
     5  H   -0.086399
     6  H   -0.086399
     7  H   -0.026298
     8  H   -0.081425
     9  H   -0.081425
    10  H    0.275546
 Sum of Mulliken charges =   0.00000

 Dipole moment (field-independent basis, Debye):
    X=              0.0000    Y=             -0.0000    Z=             -0.0000  Tot=              0.0000
 Quadrupole moment (field-independent basis, Debye-Ang):
   XX=            -12.5955   YY=            -21.2777   ZZ=             -9.5781
   XY=             -0.0000   XZ=             -0.0000   YZ=              0.0000

 Normal termination of Gaussian 09 at Thu Feb  9 16:23:02 2017.
