 Gaussian 09, Revision E.01,
 Gaussian 09:  ES64L-G09RevE.01 30-Nov-2015

 ----------------------------------------------------------------------
 #rhf/gen scf(symm,tight,novaracc,noincfock,fulldiag) stable(crhf) geom
 =nocrowd test
 ----------------------------------------------------------------------

 ----------------------------------------------------------------------
 hf stability analysis of h10 triangular lattice, y= 1.6137717412076256
 ----------------------------------------------------------------------
 Symbolic Z-matrix:
 Charge =  0 Multiplicity = 1

                         Standard orientation:
 ---------------------------------------------------------------------
 Center     Atomic      Atomic             Coordinates (Angstroms)
 Number     Number       Type             X           Y           Z
 ---------------------------------------------------------------------
      1          1           0       -0.000000    1.613772    0.715529
      2          1           0       -0.000000    0.000000    1.073294
      3          1           0       -0.000000    0.000000    0.357764
      4          1           0       -0.000000   -1.613772    0.715529
      5          1           0       -0.000000    1.613772   -0.000000
      6          1           0       -0.000000   -1.613772    0.000000
      7          1           0        0.000000   -0.000000   -0.357764
      8          1           0        0.000000    1.613772   -0.715529
      9          1           0       -0.000000   -1.613772   -0.715529
     10          1           0        0.000000   -0.000000   -1.073294
 ---------------------------------------------------------------------

 SCF Done:  E(RHF) =  -4.78044644839     A.U. after    7 cycles
 E2 =    -0.1011053447D+00 EUMP2 =    -0.48815517930944D+01

 The electronic state is 1-AG.
 Alpha  occ. eigenvalues --   -0.96935  -0.77774  -0.69238  -0.59739  -0.24372
 Alpha virt. eigenvalues --    0.01558   0.21209   0.86988   0.95923   1.18241

 Mulliken charges:
               1
     1  H    0.030061
     2  H    0.232633
     3  H   -0.100201
     4  H    0.030061
     5  H   -0.192554
     6  H   -0.192554
     7  H   -0.100201
     8  H    0.030061
     9  H    0.030061
    10  H    0.232633
 Sum of Mulliken charges =   0.00000

 Dipole moment (field-independent basis, Debye):
    X=              0.0000    Y=             -0.0000    Z=              0.0000  Tot=              0.0000
 Quadrupole moment (field-independent basis, Debye-Ang):
   XX=            -12.5638   YY=            -18.8135   ZZ=            -12.9596
   XY=             -0.0000   XZ=             -0.0000   YZ=              0.0000

 Normal termination of Gaussian 09 at Thu Feb  9 16:29:25 2017.
