 Gaussian 09, Revision E.01,
 Gaussian 09:  ES64L-G09RevE.01 30-Nov-2015

 ----------------------------------------------------------------------
 #rhf/gen scf(symm,tight,novaracc,noincfock,fulldiag) stable(crhf) geom
 =nocrowd test
 ----------------------------------------------------------------------

 ----------------------------------------------------------------------
 hf stability analysis of h10 triangular lattice, y= 1.0081271448700442
 ----------------------------------------------------------------------
 Symbolic Z-matrix:
 Charge =  0 Multiplicity = 1

                         Standard orientation:
 ---------------------------------------------------------------------
 Center     Atomic      Atomic             Coordinates (Angstroms)
 Number     Number       Type             X           Y           Z
 ---------------------------------------------------------------------
      1          1           0        0.000000    1.008127    1.145392
      2          1           0        0.000000    0.000000    1.718088
      3          1           0        0.000000    0.000000    0.572696
      4          1           0       -0.000000   -1.008127    1.145392
      5          1           0       -0.000000    1.008127   -0.000000
      6          1           0       -0.000000   -1.008127    0.000000
      7          1           0        0.000000   -0.000000   -0.572696
      8          1           0        0.000000    1.008127   -1.145392
      9          1           0       -0.000000   -1.008127   -1.145392
     10          1           0        0.000000   -0.000000   -1.718088
 ---------------------------------------------------------------------

 SCF Done:  E(RHF) =  -4.93704235774     A.U. after    9 cycles
 E2 =    -0.1023246223D+00 EUMP2 =    -0.50393669799958D+01

 The electronic state is 1-AG.
 Alpha  occ. eigenvalues --   -0.96827  -0.72530  -0.61496  -0.39478  -0.34037
 Alpha virt. eigenvalues --    0.09440   0.22438   0.27584   0.39747   0.61218

 Mulliken charges:
               1
     1  H   -0.091183
     2  H   -0.005203
     3  H    0.104575
     4  H   -0.091183
     5  H    0.082994
     6  H    0.082994
     7  H    0.104575
     8  H   -0.091183
     9  H   -0.091183
    10  H   -0.005203
 Sum of Mulliken charges =   0.00000

 Dipole moment (field-independent basis, Debye):
    X=              0.0000    Y=              0.0000    Z=              0.0000  Tot=              0.0000
 Quadrupole moment (field-independent basis, Debye-Ang):
   XX=            -12.8368   YY=            -15.2864   ZZ=            -18.9300
   XY=             -0.0000   XZ=              0.0000   YZ=             -0.0000

 Normal termination of Gaussian 09 at Thu Feb  9 16:17:25 2017.
