 Gaussian 09, Revision E.01,
 Gaussian 09:  ES64L-G09RevE.01 30-Nov-2015

 ----------------------------------------------------------------------
 #rhf/gen scf(symm,tight,novaracc,noincfock,fulldiag) stable(crhf) geom
 =nocrowd test
 ----------------------------------------------------------------------

 ----------------------------------------------------------------------
 hf stability analysis of h10 triangular lattice, y= 1.7522054996557488
 ----------------------------------------------------------------------
 Symbolic Z-matrix:
 Charge =  0 Multiplicity = 1

                         Standard orientation:
 ---------------------------------------------------------------------
 Center     Atomic      Atomic             Coordinates (Angstroms)
 Number     Number       Type             X           Y           Z
 ---------------------------------------------------------------------
      1          1           0        0.000000    1.752205    0.658998
      2          1           0        0.000000   -0.000000    0.988498
      3          1           0        0.000000   -0.000000    0.329499
      4          1           0       -0.000000   -1.752205    0.658998
      5          1           0       -0.000000    1.752205    0.000000
      6          1           0       -0.000000   -1.752205   -0.000000
      7          1           0        0.000000    0.000000   -0.329499
      8          1           0        0.000000    1.752205   -0.658998
      9          1           0       -0.000000   -1.752205   -0.658998
     10          1           0        0.000000    0.000000   -0.988498
 ---------------------------------------------------------------------

 SCF Done:  E(RHF) =  -4.58385262530     A.U. after    7 cycles
 E2 =    -0.1190623622D+00 EUMP2 =    -0.47029149875240D+01

 The electronic state is 1-AG.
 Alpha  occ. eigenvalues --   -0.97932  -0.80751  -0.75694  -0.57881  -0.21910
 Alpha virt. eigenvalues --   -0.00528   0.28735   0.98657   1.04821   1.40678

 Mulliken charges:
               1
     1  H    0.083288
     2  H    0.218295
     3  H   -0.126794
     4  H    0.083288
     5  H   -0.258078
     6  H   -0.258078
     7  H   -0.126794
     8  H    0.083288
     9  H    0.083288
    10  H    0.218295
 Sum of Mulliken charges =   0.00000

 Dipole moment (field-independent basis, Debye):
    X=              0.0000    Y=             -0.0000    Z=             -0.0000  Tot=              0.0000
 Quadrupole moment (field-independent basis, Debye-Ang):
   XX=            -12.5029   YY=            -17.5843   ZZ=            -13.6199
   XY=             -0.0000   XZ=              0.0000   YZ=             -0.0000

 Normal termination of Gaussian 09 at Thu Feb  9 16:30:43 2017.
