 Gaussian 09, Revision E.01,
 Gaussian 09:  ES64L-G09RevE.01 30-Nov-2015

 ----------------------------------------------------------------------
 #rhf/gen scf(symm,tight,novaracc,noincfock,fulldiag) stable(crhf) geom
 =nocrowd test
 ----------------------------------------------------------------------

 hf stability analysis of h10 triangular lattice, y= 0.7705208218130460
 4
 ----------------------------------------------------------------------
 Symbolic Z-matrix:
 Charge =  0 Multiplicity = 1

                         Standard orientation:
 ---------------------------------------------------------------------
 Center     Atomic      Atomic             Coordinates (Angstroms)
 Number     Number       Type             X           Y           Z
 ---------------------------------------------------------------------
      1          1           0       -0.000000    0.770521    1.498597
      2          1           0       -0.000000   -0.000000    2.247896
      3          1           0       -0.000000   -0.000000    0.749299
      4          1           0       -0.000000   -0.770521    1.498597
      5          1           0       -0.000000    0.770521    0.000000
      6          1           0       -0.000000   -0.770521   -0.000000
      7          1           0        0.000000    0.000000   -0.749299
      8          1           0        0.000000    0.770521   -1.498597
      9          1           0       -0.000000   -0.770521   -1.498597
     10          1           0        0.000000    0.000000   -2.247896
 ---------------------------------------------------------------------

 SCF Done:  E(RHF) =  -4.87179565082     A.U. after    8 cycles
 E2 =    -0.9714091127D-01 EUMP2 =    -0.49689365620923D+01

 The electronic state is 1-AG.
 Alpha  occ. eigenvalues --   -0.91466  -0.74776  -0.51452  -0.47187  -0.28144
 Alpha virt. eigenvalues --   -0.01069   0.15453   0.36149   0.49915   0.55128

 Mulliken charges:
               1
     1  H   -0.202636
     2  H    0.217248
     3  H    0.144126
     4  H   -0.202636
     5  H    0.043899
     6  H    0.043899
     7  H    0.144126
     8  H   -0.202636
     9  H   -0.202636
    10  H    0.217248
 Sum of Mulliken charges =  -0.00000

 Dipole moment (field-independent basis, Debye):
    X=              0.0000    Y=              0.0000    Z=              0.0000  Tot=              0.0000
 Quadrupole moment (field-independent basis, Debye-Ang):
   XX=            -12.9962   YY=            -18.4377   ZZ=            -11.5785
   XY=             -0.0000   XZ=             -0.0000   YZ=             -0.0000

 Normal termination of Gaussian 09 at Thu Feb  9 16:07:14 2017.
