 Gaussian 09, Revision E.01,
 Gaussian 09:  ES64L-G09RevE.01 30-Nov-2015

 ----------------------------------------------------------------------
 #rhf/gen scf(symm,tight,novaracc,noincfock,fulldiag) stable(crhf) geom
 =nocrowd test
 ----------------------------------------------------------------------

 ----------------------------------------------------------------------
 hf stability analysis of h10 triangular lattice, y= 1.0928433050732997
 ----------------------------------------------------------------------
 Symbolic Z-matrix:
 Charge =  0 Multiplicity = 1

                         Standard orientation:
 ---------------------------------------------------------------------
 Center     Atomic      Atomic             Coordinates (Angstroms)
 Number     Number       Type             X           Y           Z
 ---------------------------------------------------------------------
      1          1           0       -0.000000    1.092843    1.056602
      2          1           0        0.000000    0.000000    1.584903
      3          1           0        0.000000    0.000000    0.528301
      4          1           0       -0.000000   -1.092843    1.056602
      5          1           0       -0.000000    1.092843   -0.000000
      6          1           0       -0.000000   -1.092843    0.000000
      7          1           0        0.000000   -0.000000   -0.528301
      8          1           0        0.000000    1.092843   -1.056602
      9          1           0       -0.000000   -1.092843   -1.056602
     10          1           0        0.000000   -0.000000   -1.584903
 ---------------------------------------------------------------------

 SCF Done:  E(RHF) =  -4.84844375758     A.U. after   11 cycles
 E2 =    -0.1100779731D+00 EUMP2 =    -0.49585217307178D+01

 The electronic state is 1-AG.
 Alpha  occ. eigenvalues --   -0.97479  -0.70672  -0.65126  -0.34402  -0.34236
 Alpha virt. eigenvalues --   -0.01339   0.24980   0.33795   0.40550   0.65852

 Mulliken charges:
               1
     1  H   -0.036212
     2  H   -0.096109
     3  H    0.126672
     4  H   -0.036212
     5  H    0.041861
     6  H    0.041861
     7  H    0.126672
     8  H   -0.036212
     9  H   -0.036212
    10  H   -0.096109
 Sum of Mulliken charges =  -0.00000

 Dipole moment (field-independent basis, Debye):
    X=             -0.0000    Y=              0.0000    Z=              0.0000  Tot=              0.0000
 Quadrupole moment (field-independent basis, Debye-Ang):
   XX=            -12.7647   YY=            -14.0674   ZZ=            -20.2725
   XY=             -0.0000   XZ=              0.0000   YZ=              0.0000

 Normal termination of Gaussian 09 at Thu Feb  9 16:20:07 2017.
