 Gaussian 09, Revision E.01,
 Gaussian 09:  ES64L-G09RevE.01 30-Nov-2015

 ----------------------------------------------------------------------
 #rhf/gen scf(symm,tight,novaracc,noincfock,fulldiag) stable(crhf) geom
 =nocrowd test
 ----------------------------------------------------------------------

 hf stability analysis of h10 triangular lattice, y= 0.8745171394306130
 4
 ----------------------------------------------------------------------
 Symbolic Z-matrix:
 Charge =  0 Multiplicity = 1

                         Standard orientation:
 ---------------------------------------------------------------------
 Center     Atomic      Atomic             Coordinates (Angstroms)
 Number     Number       Type             X           Y           Z
 ---------------------------------------------------------------------
      1          1           0        0.000000    0.874517    1.320386
      2          1           0        0.000000    0.000000    1.980580
      3          1           0        0.000000    0.000000    0.660193
      4          1           0       -0.000000   -0.874517    1.320386
      5          1           0       -0.000000    0.874517   -0.000000
      6          1           0       -0.000000   -0.874517    0.000000
      7          1           0        0.000000   -0.000000   -0.660193
      8          1           0        0.000000    0.874517   -1.320386
      9          1           0       -0.000000   -0.874517   -1.320386
     10          1           0        0.000000   -0.000000   -1.980580
 ---------------------------------------------------------------------

 SCF Done:  E(RHF) =  -4.96071034315     A.U. after    8 cycles
 E2 =    -0.9655446496D-01 EUMP2 =    -0.50572648081081D+01

 The electronic state is 1-AG.
 Alpha  occ. eigenvalues --   -0.94655  -0.74637  -0.54385  -0.46686  -0.31838
 Alpha virt. eigenvalues --    0.08629   0.19616   0.30233   0.49735   0.50028

 Mulliken charges:
               1
     1  H   -0.148677
     2  H    0.116763
     3  H    0.102750
     4  H   -0.148677
     5  H    0.077842
     6  H    0.077842
     7  H    0.102750
     8  H   -0.148677
     9  H   -0.148677
    10  H    0.116763
 Sum of Mulliken charges =  -0.00000

 Dipole moment (field-independent basis, Debye):
    X=              0.0000    Y=             -0.0000    Z=             -0.0000  Tot=              0.0000
 Quadrupole moment (field-independent basis, Debye-Ang):
   XX=            -12.9285   YY=            -17.1117   ZZ=            -15.5652
   XY=             -0.0000   XZ=             -0.0000   YZ=              0.0000

 Normal termination of Gaussian 09 at Thu Feb  9 16:12:16 2017.
