 Gaussian 09, Revision E.01,
 Gaussian 09:  ES64L-G09RevE.01 30-Nov-2015

 ----------------------------------------------------------------------
 #rhf/gen scf(symm,tight,novaracc,noincfock,fulldiag) stable(crhf) geom
 =nocrowd test
 ----------------------------------------------------------------------

 ----------------------------------------------------------------------
 hf stability analysis of h10 triangular lattice, y= 1.2312185614432660
 ----------------------------------------------------------------------
 Symbolic Z-matrix:
 Charge =  0 Multiplicity = 1

                         Standard orientation:
 ---------------------------------------------------------------------
 Center     Atomic      Atomic             Coordinates (Angstroms)
 Number     Number       Type             X           Y           Z
 ---------------------------------------------------------------------
      1          1           0       -0.000000    1.231219    0.937852
      2          1           0        0.000000    0.000000    1.406778
      3          1           0        0.000000    0.000000    0.468926
      4          1           0       -0.000000   -1.231219    0.937852
      5          1           0       -0.000000    1.231219   -0.000000
      6          1           0       -0.000000   -1.231219   -0.000000
      7          1           0        0.000000    0.000000   -0.468926
      8          1           0        0.000000    1.231219   -0.937852
      9          1           0       -0.000000   -1.231219   -0.937852
     10          1           0        0.000000    0.000000   -1.406778
 ---------------------------------------------------------------------

 SCF Done:  E(RHF) =  -4.90828795932     A.U. after    9 cycles
 E2 =    -0.9312868683D-01 EUMP2 =    -0.50014166461481D+01

 The electronic state is 1-AG.
 Alpha  occ. eigenvalues --   -0.94273  -0.67851  -0.66540  -0.42370  -0.30592
 Alpha virt. eigenvalues --   -0.00023   0.14694   0.53949   0.61046   0.75885

 Mulliken charges:
               1
     1  H   -0.085574
     2  H    0.287322
     3  H   -0.037210
     4  H   -0.085574
     5  H   -0.078963
     6  H   -0.078963
     7  H   -0.037210
     8  H   -0.085574
     9  H   -0.085574
    10  H    0.287322
 Sum of Mulliken charges =  -0.00000

 Dipole moment (field-independent basis, Debye):
    X=              0.0000    Y=              0.0000    Z=             -0.0000  Tot=              0.0000
 Quadrupole moment (field-independent basis, Debye-Ang):
   XX=            -12.6020   YY=            -21.3325   ZZ=             -9.6942
   XY=             -0.0000   XZ=             -0.0000   YZ=              0.0000

 Normal termination of Gaussian 09 at Thu Feb  9 16:23:35 2017.
