 Gaussian 09, Revision E.01,
 Gaussian 09:  ES64L-G09RevE.01 30-Nov-2015

 ----------------------------------------------------------------------
 #rhf/gen scf(symm,tight,novaracc,noincfock,fulldiag) stable(crhf) geom
 =nocrowd test
 ----------------------------------------------------------------------

 ----------------------------------------------------------------------
 hf stability analysis of h10 triangular lattice, y= 1.1939051849977087
 ----------------------------------------------------------------------
 Symbolic Z-matrix:
 Charge =  0 Multiplicity = 1

                         Standard orientation:
 ---------------------------------------------------------------------
 Center     Atomic      Atomic             Coordinates (Angstroms)
 Number     Number       Type             X           Y           Z
 ---------------------------------------------------------------------
      1          1           0       -0.000000    1.193905    0.967163
      2          1           0        0.000000    0.000000    1.450744
      3          1           0        0.000000    0.000000    0.483581
      4          1           0       -0.000000   -1.193905    0.967163
      5          1           0       -0.000000    1.193905   -0.000000
      6          1           0       -0.000000   -1.193905    0.000000
      7          1           0        0.000000   -0.000000   -0.483581
      8          1           0        0.000000    1.193905   -0.967163
      9          1           0       -0.000000   -1.193905   -0.967163
     10          1           0        0.000000   -0.000000   -1.450744
 ---------------------------------------------------------------------

 SCF Done:  E(RHF) =  -4.87487146931     A.U. after    9 cycles
 E2 =    -0.9735411836D-01 EUMP2 =    -0.49722255876690D+01

 The electronic state is 1-AG.
 Alpha  occ. eigenvalues --   -0.94121  -0.67379  -0.66753  -0.38968  -0.30968
 Alpha virt. eigenvalues --   -0.01800   0.16555   0.50538   0.55817   0.74043

 Mulliken charges:
               1
     1  H   -0.076435
     2  H    0.264907
     3  H   -0.019023
     4  H   -0.076435
     5  H   -0.093015
     6  H   -0.093015
     7  H   -0.019023
     8  H   -0.076435
     9  H   -0.076435
    10  H    0.264907
 Sum of Mulliken charges =  -0.00000

 Dipole moment (field-independent basis, Debye):
    X=              0.0000    Y=             -0.0000    Z=             -0.0000  Tot=              0.0000
 Quadrupole moment (field-independent basis, Debye-Ang):
   XX=            -12.5921   YY=            -21.1876   ZZ=             -9.5965
   XY=             -0.0000   XZ=             -0.0000   YZ=              0.0000

 Normal termination of Gaussian 09 at Thu Feb  9 16:22:45 2017.
