 Gaussian 09, Revision E.01,
 Gaussian 09:  ES64L-G09RevE.01 30-Nov-2015

 ----------------------------------------------------------------------
 #rhf/gen scf(symm,tight,novaracc,noincfock,fulldiag) stable(crhf) geom
 =nocrowd test
 ----------------------------------------------------------------------

 ----------------------------------------------------------------------
 hf stability analysis of h10 triangular lattice, y= 1.6516426580229577
 ----------------------------------------------------------------------
 Symbolic Z-matrix:
 Charge =  0 Multiplicity = 1

                         Standard orientation:
 ---------------------------------------------------------------------
 Center     Atomic      Atomic             Coordinates (Angstroms)
 Number     Number       Type             X           Y           Z
 ---------------------------------------------------------------------
      1          1           0        0.000000    1.651643    0.699123
      2          1           0       -0.000000    0.000000    1.048684
      3          1           0       -0.000000    0.000000    0.349561
      4          1           0       -0.000000   -1.651643    0.699123
      5          1           0       -0.000000    1.651643    0.000000
      6          1           0       -0.000000   -1.651643    0.000000
      7          1           0        0.000000    0.000000   -0.349561
      8          1           0        0.000000    1.651643   -0.699123
      9          1           0       -0.000000   -1.651643   -0.699123
     10          1           0        0.000000    0.000000   -1.048684
 ---------------------------------------------------------------------

 SCF Done:  E(RHF) =  -4.73238925602     A.U. after    7 cycles
 E2 =    -0.1053120793D+00 EUMP2 =    -0.48377013352788D+01

 The electronic state is 1-AG.
 Alpha  occ. eigenvalues --   -0.97188  -0.78609  -0.71147  -0.59194  -0.23689
 Alpha virt. eigenvalues --    0.00872   0.23294   0.90197   0.98275   1.24303

 Mulliken charges:
               1
     1  H    0.044617
     2  H    0.227532
     3  H   -0.107010
     4  H    0.044617
     5  H   -0.209756
     6  H   -0.209756
     7  H   -0.107010
     8  H    0.044617
     9  H    0.044617
    10  H    0.227532
 Sum of Mulliken charges =  -0.00000

 Dipole moment (field-independent basis, Debye):
    X=              0.0000    Y=              0.0000    Z=             -0.0000  Tot=              0.0000
 Quadrupole moment (field-independent basis, Debye-Ang):
   XX=            -12.5489   YY=            -18.4800   ZZ=            -13.1651
   XY=             -0.0000   XZ=             -0.0000   YZ=              0.0000

 Normal termination of Gaussian 09 at Thu Feb  9 16:29:48 2017.
