 Gaussian 09, Revision E.01,
 Gaussian 09:  ES64L-G09RevE.01 30-Nov-2015

 ----------------------------------------------------------------------
 #rhf/gen scf(symm,tight,novaracc,noincfock,fulldiag) stable(crhf) geom
 =nocrowd test
 ----------------------------------------------------------------------

 ----------------------------------------------------------------------
 hf stability analysis of h10 triangular lattice, y= 1.7397059332549434
 ----------------------------------------------------------------------
 Symbolic Z-matrix:
 Charge =  0 Multiplicity = 1

                         Standard orientation:
 ---------------------------------------------------------------------
 Center     Atomic      Atomic             Coordinates (Angstroms)
 Number     Number       Type             X           Y           Z
 ---------------------------------------------------------------------
      1          1           0        0.000000    1.739706    0.663733
      2          1           0       -0.000000   -0.000000    0.995600
      3          1           0       -0.000000   -0.000000    0.331867
      4          1           0       -0.000000   -1.739706    0.663733
      5          1           0       -0.000000    1.739706    0.000000
      6          1           0       -0.000000   -1.739706   -0.000000
      7          1           0        0.000000    0.000000   -0.331867
      8          1           0        0.000000    1.739706   -0.663733
      9          1           0       -0.000000   -1.739706   -0.663733
     10          1           0        0.000000    0.000000   -0.995600
 ---------------------------------------------------------------------

 SCF Done:  E(RHF) =  -4.60383259560     A.U. after    7 cycles
 E2 =    -0.1171596629D+00 EUMP2 =    -0.47209922584827D+01

 The electronic state is 1-AG.
 Alpha  occ. eigenvalues --   -0.97832  -0.80490  -0.75168  -0.58033  -0.22127
 Alpha virt. eigenvalues --   -0.00385   0.28067   0.97609   1.03985   1.38622

 Mulliken charges:
               1
     1  H    0.078497
     2  H    0.219081
     3  H   -0.124205
     4  H    0.078497
     5  H   -0.251871
     6  H   -0.251871
     7  H   -0.124205
     8  H    0.078497
     9  H    0.078497
    10  H    0.219081
 Sum of Mulliken charges =   0.00000

 Dipole moment (field-independent basis, Debye):
    X=              0.0000    Y=             -0.0000    Z=             -0.0000  Tot=              0.0000
 Quadrupole moment (field-independent basis, Debye-Ang):
   XX=            -12.5090   YY=            -17.6954   ZZ=            -13.5699
   XY=             -0.0000   XZ=              0.0000   YZ=             -0.0000

 Normal termination of Gaussian 09 at Thu Feb  9 16:30:36 2017.
