 Gaussian 09, Revision E.01,
 Gaussian 09:  ES64L-G09RevE.01 30-Nov-2015

 ----------------------------------------------------------------------
 #rhf/gen scf(symm,tight,novaracc,noincfock,fulldiag) stable(crhf) geom
 =nocrowd test
 ----------------------------------------------------------------------

 ----------------------------------------------------------------------
 hf stability analysis of h10 triangular lattice, y= 1.5188966917185549
 ----------------------------------------------------------------------
 Symbolic Z-matrix:
 Charge =  0 Multiplicity = 1

                         Standard orientation:
 ---------------------------------------------------------------------
 Center     Atomic      Atomic             Coordinates (Angstroms)
 Number     Number       Type             X           Y           Z
 ---------------------------------------------------------------------
      1          1           0        0.000000    1.518897    0.760223
      2          1           0       -0.000000    0.000000    1.140335
      3          1           0       -0.000000    0.000000    0.380112
      4          1           0       -0.000000   -1.518897    0.760223
      5          1           0       -0.000000    1.518897   -0.000000
      6          1           0       -0.000000   -1.518897    0.000000
      7          1           0        0.000000   -0.000000   -0.380112
      8          1           0        0.000000    1.518897   -0.760223
      9          1           0       -0.000000   -1.518897   -0.760223
     10          1           0        0.000000   -0.000000   -1.140335
 ---------------------------------------------------------------------

 SCF Done:  E(RHF) =  -4.87851691460     A.U. after    8 cycles
 E2 =    -0.9305301124D-01 EUMP2 =    -0.49715699258423D+01

 The electronic state is 1-AG.
 Alpha  occ. eigenvalues --   -0.96326  -0.75598  -0.63929  -0.61217  -0.26090
 Alpha virt. eigenvalues --    0.03717   0.15926   0.78889   0.90336   1.03341

 Mulliken charges:
               1
     1  H   -0.005902
     2  H    0.248637
     3  H   -0.084727
     4  H   -0.005902
     5  H   -0.152106
     6  H   -0.152106
     7  H   -0.084727
     8  H   -0.005902
     9  H   -0.005902
    10  H    0.248637
 Sum of Mulliken charges =  -0.00000

 Dipole moment (field-independent basis, Debye):
    X=              0.0000    Y=              0.0000    Z=             -0.0000  Tot=              0.0000
 Quadrupole moment (field-independent basis, Debye-Ang):
   XX=            -12.5941   YY=            -19.6176   ZZ=            -12.3485
   XY=             -0.0000   XZ=             -0.0000   YZ=             -0.0000

 Normal termination of Gaussian 09 at Thu Feb  9 16:28:20 2017.
