 Gaussian 09, Revision E.01,
 Gaussian 09:  ES64L-G09RevE.01 30-Nov-2015

 ----------------------------------------------------------------------
 #rhf/gen scf(symm,tight,novaracc,noincfock,fulldiag) stable(crhf) geom
 =nocrowd test
 ----------------------------------------------------------------------

 hf stability analysis of h10 triangular lattice, y= 0.7772789544127255
 4
 ----------------------------------------------------------------------
 Symbolic Z-matrix:
 Charge =  0 Multiplicity = 1

                         Standard orientation:
 ---------------------------------------------------------------------
 Center     Atomic      Atomic             Coordinates (Angstroms)
 Number     Number       Type             X           Y           Z
 ---------------------------------------------------------------------
      1          1           0        0.000000    0.777279    1.485568
      2          1           0        0.000000   -0.000000    2.228352
      3          1           0        0.000000   -0.000000    0.742784
      4          1           0       -0.000000   -0.777279    1.485568
      5          1           0       -0.000000    0.777279    0.000000
      6          1           0       -0.000000   -0.777279   -0.000000
      7          1           0        0.000000    0.000000   -0.742784
      8          1           0        0.000000    0.777279   -1.485568
      9          1           0       -0.000000   -0.777279   -1.485568
     10          1           0        0.000000    0.000000   -2.228352
 ---------------------------------------------------------------------

 SCF Done:  E(RHF) =  -4.88050157243     A.U. after    8 cycles
 E2 =    -0.9696070563D-01 EUMP2 =    -0.49774622780566D+01

 The electronic state is 1-AG.
 Alpha  occ. eigenvalues --   -0.91724  -0.74821  -0.51174  -0.47712  -0.28452
 Alpha virt. eigenvalues --   -0.00508   0.15654   0.37061   0.48681   0.55042

 Mulliken charges:
               1
     1  H   -0.198691
     2  H    0.210516
     3  H    0.139639
     4  H   -0.198691
     5  H    0.047227
     6  H    0.047227
     7  H    0.139639
     8  H   -0.198691
     9  H   -0.198691
    10  H    0.210516
 Sum of Mulliken charges =  -0.00000

 Dipole moment (field-independent basis, Debye):
    X=              0.0000    Y=             -0.0000    Z=              0.0000  Tot=              0.0000
 Quadrupole moment (field-independent basis, Debye-Ang):
   XX=            -12.9919   YY=            -18.3549   ZZ=            -11.8867
   XY=             -0.0000   XZ=             -0.0000   YZ=              0.0000

 Normal termination of Gaussian 09 at Thu Feb  9 16:07:35 2017.
