 Gaussian 09, Revision E.01,
 Gaussian 09:  ES64L-G09RevE.01 30-Nov-2015

 ----------------------------------------------------------------------
 #rhf/gen scf(symm,tight,novaracc,noincfock,fulldiag) stable(crhf) geom
 =nocrowd test
 ----------------------------------------------------------------------

 hf stability analysis of h10 triangular lattice, y= 0.9575054703582485
 1
 ----------------------------------------------------------------------
 Symbolic Z-matrix:
 Charge =  0 Multiplicity = 1

                         Standard orientation:
 ---------------------------------------------------------------------
 Center     Atomic      Atomic             Coordinates (Angstroms)
 Number     Number       Type             X           Y           Z
 ---------------------------------------------------------------------
      1          1           0        0.000000    0.957505    1.205947
      2          1           0        0.000000    0.000000    1.808920
      3          1           0        0.000000    0.000000    0.602973
      4          1           0       -0.000000   -0.957505    1.205947
      5          1           0       -0.000000    0.957505    0.000000
      6          1           0       -0.000000   -0.957505   -0.000000
      7          1           0        0.000000   -0.000000   -0.602973
      8          1           0        0.000000    0.957505   -1.205947
      9          1           0       -0.000000   -0.957505   -1.205947
     10          1           0        0.000000   -0.000000   -1.808920
 ---------------------------------------------------------------------

 SCF Done:  E(RHF) =  -4.96373798035     A.U. after    8 cycles
 E2 =    -0.9927464042D-01 EUMP2 =    -0.50630126207737D+01

 The electronic state is 1-AG.
 Alpha  occ. eigenvalues --   -0.96208  -0.73513  -0.59031  -0.42316  -0.33477
 Alpha virt. eigenvalues --    0.16729   0.17413   0.24289   0.43261   0.57590

 Mulliken charges:
               1
     1  H   -0.112686
     2  H    0.040750
     3  H    0.099302
     4  H   -0.112686
     5  H    0.085320
     6  H    0.085320
     7  H    0.099302
     8  H   -0.112686
     9  H   -0.112686
    10  H    0.040750
 Sum of Mulliken charges =   0.00000

 Dipole moment (field-independent basis, Debye):
    X=              0.0000    Y=              0.0000    Z=             -0.0000  Tot=              0.0000
 Quadrupole moment (field-independent basis, Debye-Ang):
   XX=            -12.8726   YY=            -15.9942   ZZ=            -17.8347
   XY=             -0.0000   XZ=              0.0000   YZ=             -0.0000

 Normal termination of Gaussian 09 at Thu Feb  9 16:15:40 2017.
