 Gaussian 09, Revision E.01,
 Gaussian 09:  ES64L-G09RevE.01 30-Nov-2015

 ----------------------------------------------------------------------
 #rhf/gen scf(symm,tight,novaracc,noincfock,fulldiag) stable(crhf) geom
 =nocrowd test
 ----------------------------------------------------------------------

 ----------------------------------------------------------------------
 hf stability analysis of h10 triangular lattice, y= 1.4331745471992983
 ----------------------------------------------------------------------
 Symbolic Z-matrix:
 Charge =  0 Multiplicity = 1

                         Standard orientation:
 ---------------------------------------------------------------------
 Center     Atomic      Atomic             Coordinates (Angstroms)
 Number     Number       Type             X           Y           Z
 ---------------------------------------------------------------------
      1          1           0       -0.000000    1.433175    0.805694
      2          1           0        0.000000    0.000000    1.208542
      3          1           0        0.000000    0.000000    0.402847
      4          1           0       -0.000000   -1.433175    0.805694
      5          1           0       -0.000000    1.433175    0.000000
      6          1           0       -0.000000   -1.433175    0.000000
      7          1           0        0.000000   -0.000000   -0.402847
      8          1           0        0.000000    1.433175   -0.805694
      9          1           0       -0.000000   -1.433175   -0.805694
     10          1           0        0.000000   -0.000000   -1.208542
 ---------------------------------------------------------------------

 SCF Done:  E(RHF) =  -4.93488798388     A.U. after    8 cycles
 E2 =    -0.8894389885D-01 EUMP2 =    -0.50238318827342D+01

 The electronic state is 1-AG.
 Alpha  occ. eigenvalues --   -0.95760  -0.73497  -0.62679  -0.58416  -0.27608
 Alpha virt. eigenvalues --    0.06266   0.11106   0.71506   0.85682   0.90263

 Mulliken charges:
               1
     1  H   -0.036928
     2  H    0.265803
     3  H   -0.072507
     4  H   -0.036928
     5  H   -0.119440
     6  H   -0.119440
     7  H   -0.072507
     8  H   -0.036928
     9  H   -0.036928
    10  H    0.265803
 Sum of Mulliken charges =  -0.00000

 Dipole moment (field-independent basis, Debye):
    X=              0.0000    Y=              0.0000    Z=              0.0000  Tot=              0.0000
 Quadrupole moment (field-independent basis, Debye-Ang):
   XX=            -12.6110   YY=            -20.2826   ZZ=            -11.6634
   XY=             -0.0000   XZ=             -0.0000   YZ=              0.0000

 Normal termination of Gaussian 09 at Thu Feb  9 16:27:12 2017.
