 Gaussian 09, Revision E.01,
 Gaussian 09:  ES64L-G09RevE.01 30-Nov-2015

 ----------------------------------------------------------------------
 #rhf/gen scf(symm,tight,novaracc,noincfock,fulldiag) stable(crhf) geom
 =nocrowd test
 ----------------------------------------------------------------------

 ----------------------------------------------------------------------
 hf stability analysis of h10 triangular lattice, y= 1.8282511671387802
 ----------------------------------------------------------------------
 Symbolic Z-matrix:
 Charge =  0 Multiplicity = 1

                         Standard orientation:
 ---------------------------------------------------------------------
 Center     Atomic      Atomic             Coordinates (Angstroms)
 Number     Number       Type             X           Y           Z
 ---------------------------------------------------------------------
      1          1           0        0.000000    1.828251    0.631588
      2          1           0        0.000000    0.000000    0.947381
      3          1           0        0.000000    0.000000    0.315794
      4          1           0       -0.000000   -1.828251    0.631588
      5          1           0       -0.000000    1.828251    0.000000
      6          1           0       -0.000000   -1.828251    0.000000
      7          1           0        0.000000   -0.000000   -0.315794
      8          1           0        0.000000    1.828251   -0.631588
      9          1           0       -0.000000   -1.828251   -0.631588
     10          1           0        0.000000   -0.000000   -0.947381
 ---------------------------------------------------------------------

 SCF Done:  E(RHF) =  -4.45402310111     A.U. after    7 cycles
 E2 =    -0.1317029951D+00 EUMP2 =    -0.45857260962246D+01

 The electronic state is 1-AG.
 Alpha  occ. eigenvalues --   -0.98601  -0.82311  -0.78677  -0.57022  -0.20611
 Alpha virt. eigenvalues --   -0.01227   0.32737   1.05005   1.10028   1.53299

 Mulliken charges:
               1
     1  H    0.112232
     2  H    0.215852
     3  H   -0.143308
     4  H    0.112232
     5  H   -0.297007
     6  H   -0.297007
     7  H   -0.143308
     8  H    0.112232
     9  H    0.112232
    10  H    0.215852
 Sum of Mulliken charges =  -0.00000

 Dipole moment (field-independent basis, Debye):
    X=              0.0000    Y=              0.0000    Z=             -0.0000  Tot=              0.0000
 Quadrupole moment (field-independent basis, Debye-Ang):
   XX=            -12.4633   YY=            -16.9187   ZZ=            -13.8900
   XY=             -0.0000   XZ=              0.0000   YZ=              0.0000

 Normal termination of Gaussian 09 at Thu Feb  9 16:31:18 2017.
