 Gaussian 09, Revision E.01,
 Gaussian 09:  ES64L-G09RevE.01 30-Nov-2015

 ----------------------------------------------------------------------
 #rhf/gen scf(symm,tight,novaracc,noincfock,fulldiag) stable(crhf) geom
 =nocrowd test
 ----------------------------------------------------------------------

 hf stability analysis of h10 triangular lattice, y= 0.9812106788189690
 6
 ----------------------------------------------------------------------
 Symbolic Z-matrix:
 Charge =  0 Multiplicity = 1

                         Standard orientation:
 ---------------------------------------------------------------------
 Center     Atomic      Atomic             Coordinates (Angstroms)
 Number     Number       Type             X           Y           Z
 ---------------------------------------------------------------------
      1          1           0        0.000000    0.981211    1.176812
      2          1           0        0.000000    0.000000    1.765218
      3          1           0        0.000000    0.000000    0.588406
      4          1           0       -0.000000   -0.981211    1.176812
      5          1           0       -0.000000    0.981211   -0.000000
      6          1           0       -0.000000   -0.981211    0.000000
      7          1           0        0.000000   -0.000000   -0.588406
      8          1           0        0.000000    0.981211   -1.176812
      9          1           0       -0.000000   -0.981211   -1.176812
     10          1           0        0.000000   -0.000000   -1.765218
 ---------------------------------------------------------------------

 SCF Done:  E(RHF) =  -4.95385040938     A.U. after    8 cycles
 E2 =    -0.1005683373D+00 EUMP2 =    -0.50544187466491D+01

 The electronic state is 1-AG.
 Alpha  occ. eigenvalues --   -0.96525  -0.73075  -0.60216  -0.41001  -0.33776
 Alpha virt. eigenvalues --    0.13231   0.19876   0.25795   0.41457   0.59390

 Mulliken charges:
               1
     1  H   -0.102747
     2  H    0.019323
     3  H    0.101201
     4  H   -0.102747
     5  H    0.084970
     6  H    0.084970
     7  H    0.101201
     8  H   -0.102747
     9  H   -0.102747
    10  H    0.019323
 Sum of Mulliken charges =  -0.00000

 Dipole moment (field-independent basis, Debye):
    X=              0.0000    Y=              0.0000    Z=              0.0000  Tot=              0.0000
 Quadrupole moment (field-independent basis, Debye-Ang):
   XX=            -12.8560   YY=            -15.6655   ZZ=            -18.3715
   XY=             -0.0000   XZ=              0.0000   YZ=             -0.0000

 Normal termination of Gaussian 09 at Thu Feb  9 16:16:29 2017.
