 Gaussian 09, Revision E.01,
 Gaussian 09:  ES64L-G09RevE.01 30-Nov-2015

 ----------------------------------------------------------------------
 #rhf/gen scf(symm,tight,novaracc,noincfock,fulldiag) stable(crhf) geom
 =nocrowd test
 ----------------------------------------------------------------------

 ----------------------------------------------------------------------
 hf stability analysis of h10 triangular lattice, y= 2.2253182026402079
 ----------------------------------------------------------------------
 Symbolic Z-matrix:
 Charge =  0 Multiplicity = 1

                         Standard orientation:
 ---------------------------------------------------------------------
 Center     Atomic      Atomic             Coordinates (Angstroms)
 Number     Number       Type             X           Y           Z
 ---------------------------------------------------------------------
      1          1           0       -0.000000    2.225318    0.518892
      2          1           0       -0.000000    0.000000    0.778339
      3          1           0       -0.000000    0.000000    0.259446
      4          1           0       -0.000000   -2.225318    0.518892
      5          1           0       -0.000000    2.225318    0.000000
      6          1           0       -0.000000   -2.225318   -0.000000
      7          1           0        0.000000   -0.000000   -0.259446
      8          1           0        0.000000    2.225318   -0.518892
      9          1           0       -0.000000   -2.225318   -0.518892
     10          1           0        0.000000   -0.000000   -0.778339
 ---------------------------------------------------------------------

 SCF Done:  E(RHF) =  -3.59770823542     A.U. after    7 cycles
 E2 =    -0.2149386816D+00 EUMP2 =    -0.38126469169944D+01

 The electronic state is 1-AG.
 Alpha  occ. eigenvalues --   -1.04294  -0.89739  -0.89488  -0.54196  -0.14531
 Alpha virt. eigenvalues --   -0.01485   0.51637   1.37906   1.39731   2.21861

 Mulliken charges:
               1
     1  H    0.256544
     2  H    0.265444
     3  H   -0.248826
     4  H    0.256544
     5  H   -0.529706
     6  H   -0.529706
     7  H   -0.248826
     8  H    0.256544
     9  H    0.256544
    10  H    0.265444
 Sum of Mulliken charges =  -0.00000

 Dipole moment (field-independent basis, Debye):
    X=              0.0000    Y=             -0.0000    Z=             -0.0000  Tot=              0.0000
 Quadrupole moment (field-independent basis, Debye-Ang):
   XX=            -12.2332   YY=            -14.1749   ZZ=            -14.6842
   XY=              0.0000   XZ=              0.0000   YZ=              0.0000

 Normal termination of Gaussian 09 at Thu Feb  9 16:33:29 2017.
