 Gaussian 09, Revision E.01,
 Gaussian 09:  ES64L-G09RevE.01 30-Nov-2015

 ----------------------------------------------------------------------
 #rhf/gen scf(symm,tight,novaracc,noincfock,fulldiag) stable(crhf) geom
 =nocrowd test
 ----------------------------------------------------------------------

 ----------------------------------------------------------------------
 hf stability analysis of h10 triangular lattice, y= 1.3573235344015393
 ----------------------------------------------------------------------
 Symbolic Z-matrix:
 Charge =  0 Multiplicity = 1

                         Standard orientation:
 ---------------------------------------------------------------------
 Center     Atomic      Atomic             Coordinates (Angstroms)
 Number     Number       Type             X           Y           Z
 ---------------------------------------------------------------------
      1          1           0        0.000000    1.357324    0.850719
      2          1           0        0.000000    0.000000    1.276078
      3          1           0        0.000000    0.000000    0.425359
      4          1           0       -0.000000   -1.357324    0.850719
      5          1           0       -0.000000    1.357324   -0.000000
      6          1           0       -0.000000   -1.357324    0.000000
      7          1           0        0.000000   -0.000000   -0.425359
      8          1           0        0.000000    1.357324   -0.850719
      9          1           0       -0.000000   -1.357324   -0.850719
     10          1           0        0.000000   -0.000000   -1.276078
 ---------------------------------------------------------------------

 SCF Done:  E(RHF) =  -4.95399232764     A.U. after    8 cycles
 E2 =    -0.8795224148D-01 EUMP2 =    -0.50419445691117D+01

 The electronic state is 1-AG.
 Alpha  occ. eigenvalues --   -0.95216  -0.71498  -0.64057  -0.52911  -0.28867
 Alpha virt. eigenvalues --    0.06840   0.09040   0.64939   0.79025   0.81863

 Mulliken charges:
               1
     1  H   -0.061826
     2  H    0.281019
     3  H   -0.062331
     4  H   -0.061826
     5  H   -0.095037
     6  H   -0.095037
     7  H   -0.062331
     8  H   -0.061826
     9  H   -0.061826
    10  H    0.281019
 Sum of Mulliken charges =   0.00000

 Dipole moment (field-independent basis, Debye):
    X=              0.0000    Y=             -0.0000    Z=             -0.0000  Tot=              0.0000
 Quadrupole moment (field-independent basis, Debye-Ang):
   XX=            -12.6164   YY=            -20.7988   ZZ=            -10.9467
   XY=             -0.0000   XZ=             -0.0000   YZ=              0.0000

 Normal termination of Gaussian 09 at Thu Feb  9 16:26:01 2017.
