 Gaussian 09, Revision E.01,
 Gaussian 09:  ES64L-G09RevE.01 30-Nov-2015

 ----------------------------------------------------------------------
 #rhf/gen scf(symm,tight,novaracc,noincfock,fulldiag) stable(crhf) geom
 =nocrowd test
 ----------------------------------------------------------------------

 hf stability analysis of h10 triangular lattice, y= 0.8000551620824104
 5
 ----------------------------------------------------------------------
 Symbolic Z-matrix:
 Charge =  0 Multiplicity = 1

                         Standard orientation:
 ---------------------------------------------------------------------
 Center     Atomic      Atomic             Coordinates (Angstroms)
 Number     Number       Type             X           Y           Z
 ---------------------------------------------------------------------
      1          1           0        0.000000    0.800055    1.443276
      2          1           0        0.000000    0.000000    2.164914
      3          1           0        0.000000    0.000000    0.721638
      4          1           0       -0.000000   -0.800055    1.443276
      5          1           0       -0.000000    0.800055   -0.000000
      6          1           0       -0.000000   -0.800055    0.000000
      7          1           0        0.000000   -0.000000   -0.721638
      8          1           0        0.000000    0.800055   -1.443276
      9          1           0       -0.000000   -0.800055   -1.443276
     10          1           0        0.000000   -0.000000   -2.164914
 ---------------------------------------------------------------------

 SCF Done:  E(RHF) =  -4.90681493157     A.U. after    8 cycles
 E2 =    -0.9650490188D-01 EUMP2 =    -0.50033198334430D+01

 The electronic state is 1-AG.
 Alpha  occ. eigenvalues --   -0.92537  -0.74912  -0.50200  -0.49418  -0.29414
 Alpha virt. eigenvalues --    0.01460   0.16408   0.39827   0.44714   0.54446

 Mulliken charges:
               1
     1  H   -0.185889
     2  H    0.188026
     3  H    0.126600
     4  H   -0.185889
     5  H    0.057152
     6  H    0.057152
     7  H    0.126600
     8  H   -0.185889
     9  H   -0.185889
    10  H    0.188026
 Sum of Mulliken charges =  -0.00000

 Dipole moment (field-independent basis, Debye):
    X=              0.0000    Y=             -0.0000    Z=              0.0000  Tot=              0.0000
 Quadrupole moment (field-independent basis, Debye-Ang):
   XX=            -12.9773   YY=            -18.0718   ZZ=            -12.8699
   XY=             -0.0000   XZ=             -0.0000   YZ=              0.0000

 Normal termination of Gaussian 09 at Thu Feb  9 16:08:46 2017.
