 Gaussian 09, Revision E.01,
 Gaussian 09:  ES64L-G09RevE.01 30-Nov-2015

 ----------------------------------------------------------------------
 #rhf/gen scf(symm,tight,novaracc,noincfock,fulldiag) stable(crhf) geom
 =nocrowd test
 ----------------------------------------------------------------------

 ----------------------------------------------------------------------
 hf stability analysis of h10 triangular lattice, y= 1.3763498228147655
 ----------------------------------------------------------------------
 Symbolic Z-matrix:
 Charge =  0 Multiplicity = 1

                         Standard orientation:
 ---------------------------------------------------------------------
 Center     Atomic      Atomic             Coordinates (Angstroms)
 Number     Number       Type             X           Y           Z
 ---------------------------------------------------------------------
      1          1           0        0.000000    1.376350    0.838959
      2          1           0       -0.000000   -0.000000    1.258438
      3          1           0       -0.000000   -0.000000    0.419479
      4          1           0       -0.000000   -1.376350    0.838959
      5          1           0       -0.000000    1.376350    0.000000
      6          1           0       -0.000000   -1.376350   -0.000000
      7          1           0        0.000000    0.000000   -0.419479
      8          1           0        0.000000    1.376350   -0.838959
      9          1           0       -0.000000   -1.376350   -0.838959
     10          1           0        0.000000    0.000000   -1.258438
 ---------------------------------------------------------------------

 SCF Done:  E(RHF) =  -4.95220159179     A.U. after    8 cycles
 E2 =    -0.8795508873D-01 EUMP2 =    -0.50401566805191D+01

 The electronic state is 1-AG.
 Alpha  occ. eigenvalues --   -0.95357  -0.72013  -0.63705  -0.54350  -0.28562
 Alpha virt. eigenvalues --    0.07907   0.08297   0.66588   0.81813   0.82797

 Mulliken charges:
               1
     1  H   -0.055924
     2  H    0.277381
     3  H   -0.064912
     4  H   -0.055924
     5  H   -0.100619
     6  H   -0.100619
     7  H   -0.064912
     8  H   -0.055924
     9  H   -0.055924
    10  H    0.277381
 Sum of Mulliken charges =  -0.00000

 Dipole moment (field-independent basis, Debye):
    X=              0.0000    Y=              0.0000    Z=             -0.0000  Tot=              0.0000
 Quadrupole moment (field-independent basis, Debye-Ang):
   XX=            -12.6159   YY=            -20.6773   ZZ=            -11.1357
   XY=             -0.0000   XZ=             -0.0000   YZ=             -0.0000

 Normal termination of Gaussian 09 at Thu Feb  9 16:26:20 2017.
