 Gaussian 09, Revision E.01,
 Gaussian 09:  ES64L-G09RevE.01 30-Nov-2015

 ----------------------------------------------------------------------
 #rhf/gen scf(symm,tight,novaracc,noincfock,fulldiag) stable(crhf) geom
 =nocrowd test
 ----------------------------------------------------------------------

 hf stability analysis of h10 triangular lattice, y= 0.9939902605958700
 3
 ----------------------------------------------------------------------
 Symbolic Z-matrix:
 Charge =  0 Multiplicity = 1

                         Standard orientation:
 ---------------------------------------------------------------------
 Center     Atomic      Atomic             Coordinates (Angstroms)
 Number     Number       Type             X           Y           Z
 ---------------------------------------------------------------------
      1          1           0       -0.000000    0.993990    1.161682
      2          1           0       -0.000000    0.000000    1.742523
      3          1           0       -0.000000    0.000000    0.580841
      4          1           0       -0.000000   -0.993990    1.161682
      5          1           0       -0.000000    0.993990   -0.000000
      6          1           0       -0.000000   -0.993990    0.000000
      7          1           0        0.000000   -0.000000   -0.580841
      8          1           0        0.000000    0.993990   -1.161682
      9          1           0       -0.000000   -0.993990   -1.161682
     10          1           0        0.000000   -0.000000   -1.742523
 ---------------------------------------------------------------------

 SCF Done:  E(RHF) =  -4.94659982123     A.U. after    9 cycles
 E2 =    -0.1013634923D+00 EUMP2 =    -0.50479633134760D+01

 The electronic state is 1-AG.
 Alpha  occ. eigenvalues --   -0.96676  -0.72822  -0.60832  -0.40282  -0.33911
 Alpha virt. eigenvalues --    0.11408   0.21137   0.26634   0.40585   0.60285

 Mulliken charges:
               1
     1  H   -0.097320
     2  H    0.007726
     3  H    0.102645
     4  H   -0.097320
     5  H    0.084268
     6  H    0.084268
     7  H    0.102645
     8  H   -0.097320
     9  H   -0.097320
    10  H    0.007726
 Sum of Mulliken charges =  -0.00000

 Dipole moment (field-independent basis, Debye):
    X=              0.0000    Y=              0.0000    Z=             -0.0000  Tot=              0.0000
 Quadrupole moment (field-independent basis, Debye-Ang):
   XX=            -12.8470   YY=            -15.4863   ZZ=            -18.6432
   XY=             -0.0000   XZ=              0.0000   YZ=              0.0000

 Normal termination of Gaussian 09 at Thu Feb  9 16:16:56 2017.
