 Gaussian 09, Revision E.01,
 Gaussian 09:  ES64L-G09RevE.01 30-Nov-2015

 ----------------------------------------------------------------------
 #rhf/gen scf(symm,tight,novaracc,noincfock,fulldiag) stable(crhf) geom
 =nocrowd test
 ----------------------------------------------------------------------

 ----------------------------------------------------------------------
 hf stability analysis of h10 triangular lattice, y= 1.0610455720975307
 ----------------------------------------------------------------------
 Symbolic Z-matrix:
 Charge =  0 Multiplicity = 1

                         Standard orientation:
 ---------------------------------------------------------------------
 Center     Atomic      Atomic             Coordinates (Angstroms)
 Number     Number       Type             X           Y           Z
 ---------------------------------------------------------------------
      1          1           0        0.000000    1.061046    1.088267
      2          1           0        0.000000    0.000000    1.632400
      3          1           0        0.000000    0.000000    0.544133
      4          1           0       -0.000000   -1.061046    1.088267
      5          1           0       -0.000000    1.061046   -0.000000
      6          1           0       -0.000000   -1.061046    0.000000
      7          1           0        0.000000   -0.000000   -0.544133
      8          1           0        0.000000    1.061046   -1.088267
      9          1           0       -0.000000   -1.061046   -1.088267
     10          1           0        0.000000   -0.000000   -1.632400
 ---------------------------------------------------------------------

 SCF Done:  E(RHF) =  -4.88754067359     A.U. after    9 cycles
 E2 =    -0.1067341208D+00 EUMP2 =    -0.49942747944098D+01

 The electronic state is 1-AG.
 Alpha  occ. eigenvalues --   -0.97276  -0.71362  -0.63829  -0.36383  -0.34306
 Alpha virt. eigenvalues --    0.02503   0.25401   0.31328   0.38806   0.64254

 Mulliken charges:
               1
     1  H   -0.064417
     2  H   -0.056636
     3  H    0.115342
     4  H   -0.064417
     5  H    0.070128
     6  H    0.070128
     7  H    0.115342
     8  H   -0.064417
     9  H   -0.064417
    10  H   -0.056636
 Sum of Mulliken charges =   0.00000

 Dipole moment (field-independent basis, Debye):
    X=             -0.0000    Y=             -0.0000    Z=              0.0000  Tot=              0.0000
 Quadrupole moment (field-independent basis, Debye-Ang):
   XX=            -12.7959   YY=            -14.5199   ZZ=            -19.8774
   XY=             -0.0000   XZ=              0.0000   YZ=             -0.0000

 Normal termination of Gaussian 09 at Thu Feb  9 16:19:09 2017.
