 Gaussian 09, Revision E.01,
 Gaussian 09:  ES64L-G09RevE.01 30-Nov-2015

 ----------------------------------------------------------------------
 #rhf/gen scf(symm,tight,novaracc,noincfock,fulldiag) stable(crhf) geom
 =nocrowd test
 ----------------------------------------------------------------------

 ----------------------------------------------------------------------
 hf stability analysis of h10 triangular lattice, y= 1.1606288054921641
 ----------------------------------------------------------------------
 Symbolic Z-matrix:
 Charge =  0 Multiplicity = 1

                         Standard orientation:
 ---------------------------------------------------------------------
 Center     Atomic      Atomic             Coordinates (Angstroms)
 Number     Number       Type             X           Y           Z
 ---------------------------------------------------------------------
      1          1           0       -0.000000    1.160629    0.994892
      2          1           0        0.000000   -0.000000    1.492338
      3          1           0        0.000000   -0.000000    0.497446
      4          1           0       -0.000000   -1.160629    0.994892
      5          1           0       -0.000000    1.160629    0.000000
      6          1           0       -0.000000   -1.160629   -0.000000
      7          1           0        0.000000    0.000000   -0.497446
      8          1           0        0.000000    1.160629   -0.994892
      9          1           0       -0.000000   -1.160629   -0.994892
     10          1           0        0.000000    0.000000   -1.492338
 ---------------------------------------------------------------------

 SCF Done:  E(RHF) =  -4.84049314528     A.U. after   10 cycles
 E2 =    -0.1030352120D+00 EUMP2 =    -0.49435283572651D+01

 The electronic state is 1-AG.
 Alpha  occ. eigenvalues --   -0.94300  -0.68269  -0.65892  -0.35930  -0.31296
 Alpha virt. eigenvalues --   -0.03004   0.18325   0.47011   0.51015   0.72154

 Mulliken charges:
               1
     1  H   -0.043294
     2  H    0.199201
     3  H    0.013579
     4  H   -0.043294
     5  H   -0.126193
     6  H   -0.126193
     7  H    0.013579
     8  H   -0.043294
     9  H   -0.043294
    10  H    0.199201
 Sum of Mulliken charges =   0.00000

 Dipole moment (field-independent basis, Debye):
    X=              0.0000    Y=              0.0000    Z=             -0.0000  Tot=              0.0000
 Quadrupole moment (field-independent basis, Debye-Ang):
   XX=            -12.5853   YY=            -20.4152   ZZ=            -10.3136
   XY=             -0.0000   XZ=             -0.0000   YZ=              0.0000

 Normal termination of Gaussian 09 at Thu Feb  9 16:21:57 2017.
