 Gaussian 09, Revision E.01,
 Gaussian 09:  ES64L-G09RevE.01 30-Nov-2015

 ----------------------------------------------------------------------
 #rhf/gen scf(symm,tight,novaracc,noincfock,fulldiag) stable(crhf) geom
 =nocrowd test
 ----------------------------------------------------------------------

 ----------------------------------------------------------------------
 hf stability analysis of h10 triangular lattice, y= 1.3097945671951174
 ----------------------------------------------------------------------
 Symbolic Z-matrix:
 Charge =  0 Multiplicity = 1

                         Standard orientation:
 ---------------------------------------------------------------------
 Center     Atomic      Atomic             Coordinates (Angstroms)
 Number     Number       Type             X           Y           Z
 ---------------------------------------------------------------------
      1          1           0       -0.000000    1.309795    0.881589
      2          1           0       -0.000000    0.000000    1.322384
      3          1           0       -0.000000    0.000000    0.440795
      4          1           0       -0.000000   -1.309795    0.881589
      5          1           0       -0.000000    1.309795   -0.000000
      6          1           0       -0.000000   -1.309795   -0.000000
      7          1           0        0.000000    0.000000   -0.440795
      8          1           0        0.000000    1.309795   -0.881589
      9          1           0       -0.000000   -1.309795   -0.881589
     10          1           0        0.000000    0.000000   -1.322384
 ---------------------------------------------------------------------

 SCF Done:  E(RHF) =  -4.94892676635     A.U. after    8 cycles
 E2 =    -0.8873296159D-01 EUMP2 =    -0.50376597279392D+01

 The electronic state is 1-AG.
 Alpha  occ. eigenvalues --   -0.94851  -0.70168  -0.64960  -0.49141  -0.29586
 Alpha virt. eigenvalues --    0.04191   0.11029   0.60815   0.72149   0.79584

 Mulliken charges:
               1
     1  H   -0.074959
     2  H    0.288671
     3  H   -0.055320
     4  H   -0.074959
     5  H   -0.083433
     6  H   -0.083433
     7  H   -0.055320
     8  H   -0.074959
     9  H   -0.074959
    10  H    0.288671
 Sum of Mulliken charges =  -0.00000

 Dipole moment (field-independent basis, Debye):
    X=              0.0000    Y=             -0.0000    Z=              0.0000  Tot=              0.0000
 Quadrupole moment (field-independent basis, Debye-Ang):
   XX=            -12.6146   YY=            -21.0716   ZZ=            -10.4550
   XY=             -0.0000   XZ=             -0.0000   YZ=              0.0000

 Normal termination of Gaussian 09 at Thu Feb  9 16:25:11 2017.
