 Gaussian 09, Revision E.01,
 Gaussian 09:  ES64L-G09RevE.01 30-Nov-2015

 ----------------------------------------------------------------------
 #rhf/gen scf(symm,tight,novaracc,noincfock,fulldiag) stable(crhf) geom
 =nocrowd test
 ----------------------------------------------------------------------

 ----------------------------------------------------------------------
 hf stability analysis of h10 triangular lattice, y= 1.6480958607190197
 ----------------------------------------------------------------------
 Symbolic Z-matrix:
 Charge =  0 Multiplicity = 1

                         Standard orientation:
 ---------------------------------------------------------------------
 Center     Atomic      Atomic             Coordinates (Angstroms)
 Number     Number       Type             X           Y           Z
 ---------------------------------------------------------------------
      1          1           0        0.000000    1.648096    0.700627
      2          1           0       -0.000000    0.000000    1.050941
      3          1           0       -0.000000    0.000000    0.350314
      4          1           0       -0.000000   -1.648096    0.700627
      5          1           0       -0.000000    1.648096   -0.000000
      6          1           0       -0.000000   -1.648096   -0.000000
      7          1           0        0.000000    0.000000   -0.350314
      8          1           0        0.000000    1.648096   -0.700627
      9          1           0       -0.000000   -1.648096   -0.700627
     10          1           0        0.000000    0.000000   -1.050941
 ---------------------------------------------------------------------

 SCF Done:  E(RHF) =  -4.73708639842     A.U. after    7 cycles
 E2 =    -0.1048947238D+00 EUMP2 =    -0.48419811222371D+01

 The electronic state is 1-AG.
 Alpha  occ. eigenvalues --   -0.97164  -0.78531  -0.70973  -0.59244  -0.23753
 Alpha virt. eigenvalues --    0.00932   0.23099   0.89897   0.98052   1.23732

 Mulliken charges:
               1
     1  H    0.043252
     2  H    0.227975
     3  H   -0.106357
     4  H    0.043252
     5  H   -0.208121
     6  H   -0.208121
     7  H   -0.106357
     8  H    0.043252
     9  H    0.043252
    10  H    0.227975
 Sum of Mulliken charges =  -0.00000

 Dipole moment (field-independent basis, Debye):
    X=              0.0000    Y=             -0.0000    Z=             -0.0000  Tot=              0.0000
 Quadrupole moment (field-independent basis, Debye-Ang):
   XX=            -12.5504   YY=            -18.5115   ZZ=            -13.1467
   XY=             -0.0000   XZ=             -0.0000   YZ=              0.0000

 Normal termination of Gaussian 09 at Thu Feb  9 16:29:46 2017.
