 Gaussian 09, Revision E.01,
 Gaussian 09:  ES64L-G09RevE.01 30-Nov-2015

 ----------------------------------------------------------------------
 #rhf/gen scf(symm,tight,novaracc,noincfock,fulldiag) stable(crhf) geom
 =nocrowd test
 ----------------------------------------------------------------------

 ----------------------------------------------------------------------
 hf stability analysis of h10 triangular lattice, y= 1.1676724918407646
 ----------------------------------------------------------------------
 Symbolic Z-matrix:
 Charge =  0 Multiplicity = 1

                         Standard orientation:
 ---------------------------------------------------------------------
 Center     Atomic      Atomic             Coordinates (Angstroms)
 Number     Number       Type             X           Y           Z
 ---------------------------------------------------------------------
      1          1           0        0.000000    1.167672    0.988891
      2          1           0        0.000000    0.000000    1.483336
      3          1           0        0.000000    0.000000    0.494445
      4          1           0       -0.000000   -1.167672    0.988891
      5          1           0       -0.000000    1.167672    0.000000
      6          1           0       -0.000000   -1.167672   -0.000000
      7          1           0        0.000000    0.000000   -0.494445
      8          1           0        0.000000    1.167672   -0.988891
      9          1           0       -0.000000   -1.167672   -0.988891
     10          1           0        0.000000    0.000000   -1.483336
 ---------------------------------------------------------------------

 SCF Done:  E(RHF) =  -4.84775551897     A.U. after   10 cycles
 E2 =    -0.1016799625D+00 EUMP2 =    -0.49494354814259D+01

 The electronic state is 1-AG.
 Alpha  occ. eigenvalues --   -0.94214  -0.68062  -0.66054  -0.36566  -0.31218
 Alpha virt. eigenvalues --   -0.02798   0.17928   0.47842   0.52056   0.72592

 Mulliken charges:
               1
     1  H   -0.053620
     2  H    0.219839
     3  H    0.004549
     4  H   -0.053620
     5  H   -0.117147
     6  H   -0.117147
     7  H    0.004549
     8  H   -0.053620
     9  H   -0.053620
    10  H    0.219839
 Sum of Mulliken charges =   0.00000

 Dipole moment (field-independent basis, Debye):
    X=              0.0000    Y=             -0.0000    Z=             -0.0000  Tot=              0.0000
 Quadrupole moment (field-independent basis, Debye-Ang):
   XX=            -12.5859   YY=            -20.6816   ZZ=            -10.0271
   XY=             -0.0000   XZ=             -0.0000   YZ=              0.0000

 Normal termination of Gaussian 09 at Thu Feb  9 16:22:07 2017.
