 Gaussian 09, Revision E.01,
 Gaussian 09:  ES64L-G09RevE.01 30-Nov-2015

 ----------------------------------------------------------------------
 #rhf/gen scf(symm,tight,novaracc,noincfock,fulldiag) stable(crhf) geom
 =nocrowd test
 ----------------------------------------------------------------------

 hf stability analysis of h10 triangular lattice, y= 0.7638246997691000
 6
 ----------------------------------------------------------------------
 Symbolic Z-matrix:
 Charge =  0 Multiplicity = 1

                         Standard orientation:
 ---------------------------------------------------------------------
 Center     Atomic      Atomic             Coordinates (Angstroms)
 Number     Number       Type             X           Y           Z
 ---------------------------------------------------------------------
      1          1           0        0.000000    0.763825    1.511735
      2          1           0       -0.000000    0.000000    2.267603
      3          1           0       -0.000000    0.000000    0.755868
      4          1           0       -0.000000   -0.763825    1.511735
      5          1           0       -0.000000    0.763825    0.000000
      6          1           0       -0.000000   -0.763825    0.000000
      7          1           0        0.000000   -0.000000   -0.755868
      8          1           0        0.000000    0.763825   -1.511735
      9          1           0       -0.000000   -0.763825   -1.511735
     10          1           0        0.000000   -0.000000   -2.267603
 ---------------------------------------------------------------------

 SCF Done:  E(RHF) =  -4.86276071241     A.U. after    8 cycles
 E2 =    -0.9734037668D-01 EUMP2 =    -0.49601010890947D+01

 The electronic state is 1-AG.
 Alpha  occ. eigenvalues --   -0.91203  -0.74723  -0.51723  -0.46658  -0.27828
 Alpha virt. eigenvalues --   -0.01613   0.15265   0.35228   0.51135   0.55168

 Mulliken charges:
               1
     1  H   -0.206613
     2  H    0.223942
     3  H    0.148863
     4  H   -0.206613
     5  H    0.040420
     6  H    0.040420
     7  H    0.148863
     8  H   -0.206613
     9  H   -0.206613
    10  H    0.223942
 Sum of Mulliken charges =  -0.00000

 Dipole moment (field-independent basis, Debye):
    X=              0.0000    Y=             -0.0000    Z=             -0.0000  Tot=              0.0000
 Quadrupole moment (field-independent basis, Debye-Ang):
   XX=            -13.0004   YY=            -18.5190   ZZ=            -11.2652
   XY=             -0.0000   XZ=             -0.0000   YZ=              0.0000

 Normal termination of Gaussian 09 at Thu Feb  9 16:06:53 2017.
