 Gaussian 09, Revision E.01,
 Gaussian 09:  ES64L-G09RevE.01 30-Nov-2015

 ----------------------------------------------------------------------
 #rhf/gen scf(symm,tight,novaracc,noincfock,fulldiag) stable(crhf) geom
 =nocrowd test
 ----------------------------------------------------------------------

 ----------------------------------------------------------------------
 hf stability analysis of h10 triangular lattice, y= 1.8674825596677291
 ----------------------------------------------------------------------
 Symbolic Z-matrix:
 Charge =  0 Multiplicity = 1

                         Standard orientation:
 ---------------------------------------------------------------------
 Center     Atomic      Atomic             Coordinates (Angstroms)
 Number     Number       Type             X           Y           Z
 ---------------------------------------------------------------------
      1          1           0        0.000000    1.867483    0.618319
      2          1           0        0.000000   -0.000000    0.927479
      3          1           0        0.000000   -0.000000    0.309160
      4          1           0       -0.000000   -1.867483    0.618319
      5          1           0       -0.000000    1.867483    0.000000
      6          1           0       -0.000000   -1.867483   -0.000000
      7          1           0        0.000000    0.000000   -0.309160
      8          1           0        0.000000    1.867483   -0.618319
      9          1           0       -0.000000   -1.867483   -0.618319
     10          1           0        0.000000    0.000000   -0.927479
 ---------------------------------------------------------------------

 SCF Done:  E(RHF) =  -4.38190576638     A.U. after    7 cycles
 E2 =    -0.1388676253D+00 EUMP2 =    -0.45207733916306D+01

 The electronic state is 1-AG.
 Alpha  occ. eigenvalues --   -0.98994  -0.83097  -0.80077  -0.56623  -0.19959
 Alpha virt. eigenvalues --   -0.01484   0.34757   1.08268   1.12790   1.59880

 Mulliken charges:
               1
     1  H    0.126994
     2  H    0.216185
     3  H   -0.152320
     4  H    0.126994
     5  H   -0.317852
     6  H   -0.317852
     7  H   -0.152320
     8  H    0.126994
     9  H    0.126994
    10  H    0.216185
 Sum of Mulliken charges =  -0.00000

 Dipole moment (field-independent basis, Debye):
    X=              0.0000    Y=             -0.0000    Z=              0.0000  Tot=              0.0000
 Quadrupole moment (field-independent basis, Debye-Ang):
   XX=            -12.4418   YY=            -16.5861   ZZ=            -14.0089
   XY=             -0.0000   XZ=              0.0000   YZ=              0.0000

 Normal termination of Gaussian 09 at Thu Feb  9 16:31:35 2017.
