 Gaussian 09, Revision E.01,
 Gaussian 09:  ES64L-G09RevE.01 30-Nov-2015

 ----------------------------------------------------------------------
 #rhf/gen scf(symm,tight,novaracc,noincfock,fulldiag) stable(crhf) geom
 =nocrowd test
 ----------------------------------------------------------------------

 hf stability analysis of h10 triangular lattice, y= 0.8963637453143507
 0
 ----------------------------------------------------------------------
 Symbolic Z-matrix:
 Charge =  0 Multiplicity = 1

                         Standard orientation:
 ---------------------------------------------------------------------
 Center     Atomic      Atomic             Coordinates (Angstroms)
 Number     Number       Type             X           Y           Z
 ---------------------------------------------------------------------
      1          1           0        0.000000    0.896364    1.288205
      2          1           0        0.000000   -0.000000    1.932308
      3          1           0        0.000000   -0.000000    0.644103
      4          1           0       -0.000000   -0.896364    1.288205
      5          1           0       -0.000000    0.896364    0.000000
      6          1           0       -0.000000   -0.896364   -0.000000
      7          1           0        0.000000    0.000000   -0.644103
      8          1           0        0.000000    0.896364   -1.288205
      9          1           0       -0.000000   -0.896364   -1.288205
     10          1           0        0.000000    0.000000   -1.932308
 ---------------------------------------------------------------------

 SCF Done:  E(RHF) =  -4.96727962939     A.U. after    8 cycles
 E2 =    -0.9700005490D-01 EUMP2 =    -0.50642796842864D+01

 The electronic state is 1-AG.
 Alpha  occ. eigenvalues --   -0.95138  -0.74412  -0.55689  -0.45575  -0.32366
 Alpha virt. eigenvalues --    0.10898   0.20746   0.26488   0.48300   0.52039

 Mulliken charges:
               1
     1  H   -0.138821
     2  H    0.096475
     3  H    0.099999
     4  H   -0.138821
     5  H    0.081167
     6  H    0.081167
     7  H    0.099999
     8  H   -0.138821
     9  H   -0.138821
    10  H    0.096475
 Sum of Mulliken charges =   0.00000

 Dipole moment (field-independent basis, Debye):
    X=              0.0000    Y=             -0.0000    Z=              0.0000  Tot=              0.0000
 Quadrupole moment (field-independent basis, Debye-Ang):
   XX=            -12.9140   YY=            -16.8222   ZZ=            -16.2282
   XY=             -0.0000   XZ=             -0.0000   YZ=              0.0000

 Normal termination of Gaussian 09 at Thu Feb  9 16:13:12 2017.
