 Gaussian 09, Revision E.01,
 Gaussian 09:  ES64L-G09RevE.01 30-Nov-2015

 ----------------------------------------------------------------------
 #rhf/gen scf(symm,tight,novaracc,noincfock,fulldiag) stable(crhf) geom
 =nocrowd test
 ----------------------------------------------------------------------

 hf stability analysis of h10 triangular lattice, y= 0.9217077477238292
 4
 ----------------------------------------------------------------------
 Symbolic Z-matrix:
 Charge =  0 Multiplicity = 1

                         Standard orientation:
 ---------------------------------------------------------------------
 Center     Atomic      Atomic             Coordinates (Angstroms)
 Number     Number       Type             X           Y           Z
 ---------------------------------------------------------------------
      1          1           0        0.000000    0.921708    1.252784
      2          1           0        0.000000   -0.000000    1.879176
      3          1           0        0.000000   -0.000000    0.626392
      4          1           0       -0.000000   -0.921708    1.252784
      5          1           0       -0.000000    0.921708    0.000000
      6          1           0       -0.000000   -0.921708   -0.000000
      7          1           0        0.000000    0.000000   -0.626392
      8          1           0        0.000000    0.921708   -1.252784
      9          1           0       -0.000000   -0.921708   -1.252784
     10          1           0        0.000000    0.000000   -1.879176
 ---------------------------------------------------------------------

 SCF Done:  E(RHF) =  -4.96970368905     A.U. after    8 cycles
 E2 =    -0.9775876777D-01 EUMP2 =    -0.50674624568237D+01

 The electronic state is 1-AG.
 Alpha  occ. eigenvalues --   -0.95629  -0.74084  -0.57127  -0.44249  -0.32889
 Alpha virt. eigenvalues --    0.13588   0.22150   0.22311   0.46204   0.54503

 Mulliken charges:
               1
     1  H   -0.127795
     2  H    0.073225
     3  H    0.098599
     4  H   -0.127795
     5  H    0.083766
     6  H    0.083766
     7  H    0.098599
     8  H   -0.127795
     9  H   -0.127795
    10  H    0.073225
 Sum of Mulliken charges =  -0.00000

 Dipole moment (field-independent basis, Debye):
    X=              0.0000    Y=             -0.0000    Z=             -0.0000  Tot=              0.0000
 Quadrupole moment (field-independent basis, Debye-Ang):
   XX=            -12.8970   YY=            -16.4822   ZZ=            -16.9359
   XY=             -0.0000   XZ=              0.0000   YZ=             -0.0000

 Normal termination of Gaussian 09 at Thu Feb  9 16:14:16 2017.
