 Gaussian 09, Revision E.01,
 Gaussian 09:  ES64L-G09RevE.01 30-Nov-2015

 ----------------------------------------------------------------------
 #rhf/gen scf(symm,tight,novaracc,noincfock,fulldiag) stable(crhf) geom
 =nocrowd test
 ----------------------------------------------------------------------

 ----------------------------------------------------------------------
 hf stability analysis of h10 triangular lattice, y= 1.0376674704585451
 ----------------------------------------------------------------------
 Symbolic Z-matrix:
 Charge =  0 Multiplicity = 1

                         Standard orientation:
 ---------------------------------------------------------------------
 Center     Atomic      Atomic             Coordinates (Angstroms)
 Number     Number       Type             X           Y           Z
 ---------------------------------------------------------------------
      1          1           0        0.000000    1.037667    1.112785
      2          1           0        0.000000   -0.000000    1.669177
      3          1           0        0.000000   -0.000000    0.556392
      4          1           0       -0.000000   -1.037667    1.112785
      5          1           0       -0.000000    1.037667    0.000000
      6          1           0       -0.000000   -1.037667   -0.000000
      7          1           0        0.000000    0.000000   -0.556392
      8          1           0        0.000000    1.037667   -1.112785
      9          1           0       -0.000000   -1.037667   -1.112785
     10          1           0        0.000000    0.000000   -1.669177
 ---------------------------------------------------------------------

 SCF Done:  E(RHF) =  -4.91200235640     A.U. after    9 cycles
 E2 =    -0.1046204600D+00 EUMP2 =    -0.50166228164159D+01

 The electronic state is 1-AG.
 Alpha  occ. eigenvalues --   -0.97098  -0.71888  -0.62826  -0.37769  -0.34229
 Alpha virt. eigenvalues --    0.05486   0.24587   0.29636   0.38673   0.62993

 Mulliken charges:
               1
     1  H   -0.077405
     2  H   -0.032982
     3  H    0.109791
     4  H   -0.077405
     5  H    0.078000
     6  H    0.078000
     7  H    0.109791
     8  H   -0.077405
     9  H   -0.077405
    10  H   -0.032982
 Sum of Mulliken charges =  -0.00000

 Dipole moment (field-independent basis, Debye):
    X=             -0.0000    Y=              0.0000    Z=              0.0000  Tot=              0.0000
 Quadrupole moment (field-independent basis, Debye-Ang):
   XX=            -12.8147   YY=            -14.8620   ZZ=            -19.4844
   XY=             -0.0000   XZ=              0.0000   YZ=              0.0000

 Normal termination of Gaussian 09 at Thu Feb  9 16:18:25 2017.
