 Gaussian 09, Revision E.01,
 Gaussian 09:  ES64L-G09RevE.01 30-Nov-2015

 ----------------------------------------------------------------------
 #rhf/gen scf(symm,tight,novaracc,noincfock,fulldiag) stable(crhf) geom
 =nocrowd test
 ----------------------------------------------------------------------

 ----------------------------------------------------------------------
 hf stability analysis of h10 triangular lattice, y= 1.0132747338627996
 ----------------------------------------------------------------------
 Symbolic Z-matrix:
 Charge =  0 Multiplicity = 1

                         Standard orientation:
 ---------------------------------------------------------------------
 Center     Atomic      Atomic             Coordinates (Angstroms)
 Number     Number       Type             X           Y           Z
 ---------------------------------------------------------------------
      1          1           0        0.000000    1.013275    1.139573
      2          1           0        0.000000   -0.000000    1.709360
      3          1           0        0.000000   -0.000000    0.569786
      4          1           0       -0.000000   -1.013275    1.139573
      5          1           0       -0.000000    1.013275    0.000000
      6          1           0       -0.000000   -1.013275   -0.000000
      7          1           0        0.000000    0.000000   -0.569786
      8          1           0        0.000000    1.013275   -1.139573
      9          1           0       -0.000000   -1.013275   -1.139573
     10          1           0        0.000000    0.000000   -1.709360
 ---------------------------------------------------------------------

 SCF Done:  E(RHF) =  -4.93316709290     A.U. after    9 cycles
 E2 =    -0.1026962676D+00 EUMP2 =    -0.50358633604994D+01

 The electronic state is 1-AG.
 Alpha  occ. eigenvalues --   -0.96879  -0.72421  -0.61733  -0.39183  -0.34078
 Alpha virt. eigenvalues --    0.08735   0.22878   0.27935   0.39484   0.61544

 Mulliken charges:
               1
     1  H   -0.088895
     2  H   -0.009952
     3  H    0.105365
     4  H   -0.088895
     5  H    0.082378
     6  H    0.082378
     7  H    0.105365
     8  H   -0.088895
     9  H   -0.088895
    10  H   -0.009952
 Sum of Mulliken charges =  -0.00000

 Dipole moment (field-independent basis, Debye):
    X=              0.0000    Y=              0.0000    Z=              0.0000  Tot=              0.0000
 Quadrupole moment (field-independent basis, Debye-Ang):
   XX=            -12.8330   YY=            -15.2131   ZZ=            -19.0310
   XY=             -0.0000   XZ=              0.0000   YZ=              0.0000

 Normal termination of Gaussian 09 at Thu Feb  9 16:17:35 2017.
