 Gaussian 09, Revision E.01,
 Gaussian 09:  ES64L-G09RevE.01 30-Nov-2015

 ----------------------------------------------------------------------
 #rhf/gen scf(symm,tight,novaracc,noincfock,fulldiag) stable(crhf) geom
 =nocrowd test
 ----------------------------------------------------------------------

 ----------------------------------------------------------------------
 hf stability analysis of h10 triangular lattice, y= 1.0387558527626892
 ----------------------------------------------------------------------
 Symbolic Z-matrix:
 Charge =  0 Multiplicity = 1

                         Standard orientation:
 ---------------------------------------------------------------------
 Center     Atomic      Atomic             Coordinates (Angstroms)
 Number     Number       Type             X           Y           Z
 ---------------------------------------------------------------------
      1          1           0        0.000000    1.038756    1.111619
      2          1           0        0.000000    0.000000    1.667428
      3          1           0        0.000000    0.000000    0.555809
      4          1           0       -0.000000   -1.038756    1.111619
      5          1           0       -0.000000    1.038756    0.000000
      6          1           0       -0.000000   -1.038756    0.000000
      7          1           0        0.000000    0.000000   -0.555809
      8          1           0        0.000000    1.038756   -1.111619
      9          1           0       -0.000000   -1.038756   -1.111619
     10          1           0        0.000000    0.000000   -1.667428
 ---------------------------------------------------------------------

 SCF Done:  E(RHF) =  -4.91095230596     A.U. after    9 cycles
 E2 =    -0.1047127987D+00 EUMP2 =    -0.50156651046384D+01

 The electronic state is 1-AG.
 Alpha  occ. eigenvalues --   -0.97107  -0.71864  -0.62874  -0.37705  -0.34234
 Alpha virt. eigenvalues --    0.05344   0.24646   0.29714   0.38658   0.63054

 Mulliken charges:
               1
     1  H   -0.076857
     2  H   -0.034038
     3  H    0.110018
     4  H   -0.076857
     5  H    0.077734
     6  H    0.077734
     7  H    0.110018
     8  H   -0.076857
     9  H   -0.076857
    10  H   -0.034038
 Sum of Mulliken charges =  -0.00000

 Dipole moment (field-independent basis, Debye):
    X=             -0.0000    Y=             -0.0000    Z=             -0.0000  Tot=              0.0000
 Quadrupole moment (field-independent basis, Debye-Ang):
   XX=            -12.8138   YY=            -14.8462   ZZ=            -19.5037
   XY=             -0.0000   XZ=              0.0000   YZ=             -0.0000

 Normal termination of Gaussian 09 at Thu Feb  9 16:18:27 2017.
