 Gaussian 09, Revision E.01,
 Gaussian 09:  ES64L-G09RevE.01 30-Nov-2015

 ----------------------------------------------------------------------
 #rhf/gen scf(symm,tight,novaracc,noincfock,fulldiag) stable(crhf) geom
 =nocrowd test
 ----------------------------------------------------------------------

 ----------------------------------------------------------------------
 hf stability analysis of h10 triangular lattice, y= 1.1281674130044770
 ----------------------------------------------------------------------
 Symbolic Z-matrix:
 Charge =  0 Multiplicity = 1

                         Standard orientation:
 ---------------------------------------------------------------------
 Center     Atomic      Atomic             Coordinates (Angstroms)
 Number     Number       Type             X           Y           Z
 ---------------------------------------------------------------------
      1          1           0        0.000000    1.128167    1.023519
      2          1           0        0.000000    0.000000    1.535278
      3          1           0        0.000000    0.000000    0.511759
      4          1           0       -0.000000   -1.128167    1.023519
      5          1           0       -0.000000    1.128167   -0.000000
      6          1           0       -0.000000   -1.128167   -0.000000
      7          1           0        0.000000    0.000000   -0.511759
      8          1           0        0.000000    1.128167   -1.023519
      9          1           0       -0.000000   -1.128167   -1.023519
     10          1           0        0.000000    0.000000   -1.535278
 ---------------------------------------------------------------------

 SCF Done:  E(RHF) =  -4.81618652135     A.U. after   13 cycles
 E2 =    -0.1088742173D+00 EUMP2 =    -0.49250607386305D+01

 The electronic state is 1-AG.
 Alpha  occ. eigenvalues --   -0.95580  -0.69517  -0.65491  -0.33178  -0.32099
 Alpha virt. eigenvalues --   -0.03487   0.20897   0.41409   0.45693   0.69432

 Mulliken charges:
               1
     1  H    0.034484
     2  H    0.005314
     3  H    0.083097
     4  H    0.034484
     5  H   -0.157381
     6  H   -0.157381
     7  H    0.083097
     8  H    0.034484
     9  H    0.034484
    10  H    0.005314
 Sum of Mulliken charges =   0.00000

 Dipole moment (field-independent basis, Debye):
    X=              0.0000    Y=              0.0000    Z=             -0.0000  Tot=              0.0000
 Quadrupole moment (field-independent basis, Debye-Ang):
   XX=            -12.6172   YY=            -17.3634   ZZ=            -14.2933
   XY=             -0.0000   XZ=              0.0000   YZ=             -0.0000

 Normal termination of Gaussian 09 at Thu Feb  9 16:21:06 2017.
