 Gaussian 09, Revision E.01,
 Gaussian 09:  ES64L-G09RevE.01 30-Nov-2015

 ----------------------------------------------------------------------
 #rhf/gen scf(symm,tight,novaracc,noincfock,fulldiag) stable(crhf) geom
 =nocrowd test
 ----------------------------------------------------------------------

 ----------------------------------------------------------------------
 hf stability analysis of h10 triangular lattice, y= 1.0977354261044516
 ----------------------------------------------------------------------
 Symbolic Z-matrix:
 Charge =  0 Multiplicity = 1

                         Standard orientation:
 ---------------------------------------------------------------------
 Center     Atomic      Atomic             Coordinates (Angstroms)
 Number     Number       Type             X           Y           Z
 ---------------------------------------------------------------------
      1          1           0       -0.000000    1.097735    1.051893
      2          1           0       -0.000000   -0.000000    1.577840
      3          1           0       -0.000000   -0.000000    0.525947
      4          1           0       -0.000000   -1.097735    1.051893
      5          1           0       -0.000000    1.097735    0.000000
      6          1           0       -0.000000   -1.097735   -0.000000
      7          1           0        0.000000    0.000000   -0.525947
      8          1           0        0.000000    1.097735   -1.051893
      9          1           0       -0.000000   -1.097735   -1.051893
     10          1           0        0.000000    0.000000   -1.577840
 ---------------------------------------------------------------------

 SCF Done:  E(RHF) =  -4.84199181366     A.U. after   11 cycles
 E2 =    -0.1106253510D+00 EUMP2 =    -0.49526171646254D+01

 The electronic state is 1-AG.
 Alpha  occ. eigenvalues --   -0.97501  -0.70579  -0.65314  -0.34182  -0.34073
 Alpha virt. eigenvalues --   -0.01900   0.24763   0.34226   0.40947   0.66106

 Mulliken charges:
               1
     1  H   -0.028628
     2  H   -0.103886
     3  H    0.129089
     4  H   -0.028628
     5  H    0.032053
     6  H    0.032053
     7  H    0.129089
     8  H   -0.028628
     9  H   -0.028628
    10  H   -0.103886
 Sum of Mulliken charges =   0.00000

 Dipole moment (field-independent basis, Debye):
    X=             -0.0000    Y=              0.0000    Z=             -0.0000  Tot=              0.0000
 Quadrupole moment (field-independent basis, Debye-Ang):
   XX=            -12.7579   YY=            -14.0134   ZZ=            -20.2815
   XY=             -0.0000   XZ=              0.0000   YZ=              0.0000

 Normal termination of Gaussian 09 at Thu Feb  9 16:20:15 2017.
