 Gaussian 09, Revision E.01,
 Gaussian 09:  ES64L-G09RevE.01 30-Nov-2015

 ----------------------------------------------------------------------
 #rhf/gen scf(symm,tight,novaracc,noincfock,fulldiag) stable(crhf) geom
 =nocrowd test
 ----------------------------------------------------------------------

 ----------------------------------------------------------------------
 hf stability analysis of h10 triangular lattice, y= 1.7036831833639368
 ----------------------------------------------------------------------
 Symbolic Z-matrix:
 Charge =  0 Multiplicity = 1

                         Standard orientation:
 ---------------------------------------------------------------------
 Center     Atomic      Atomic             Coordinates (Angstroms)
 Number     Number       Type             X           Y           Z
 ---------------------------------------------------------------------
      1          1           0        0.000000    1.703683    0.677767
      2          1           0        0.000000    0.000000    1.016651
      3          1           0        0.000000    0.000000    0.338884
      4          1           0       -0.000000   -1.703683    0.677767
      5          1           0       -0.000000    1.703683   -0.000000
      6          1           0       -0.000000   -1.703683    0.000000
      7          1           0        0.000000   -0.000000   -0.338884
      8          1           0        0.000000    1.703683   -0.677767
      9          1           0       -0.000000   -1.703683   -0.677767
     10          1           0        0.000000   -0.000000   -1.016651
 ---------------------------------------------------------------------

 SCF Done:  E(RHF) =  -4.65908794104     A.U. after    7 cycles
 E2 =    -0.1119758677D+00 EUMP2 =    -0.47710638087112D+01

 The electronic state is 1-AG.
 Alpha  occ. eigenvalues --   -0.97557  -0.79730  -0.73591  -0.58490  -0.22761
 Alpha virt. eigenvalues --    0.00075   0.26128   0.94585   1.01610   1.32729

 Mulliken charges:
               1
     1  H    0.064655
     2  H    0.221933
     3  H   -0.116946
     4  H    0.064655
     5  H   -0.234297
     6  H   -0.234297
     7  H   -0.116946
     8  H    0.064655
     9  H    0.064655
    10  H    0.221933
 Sum of Mulliken charges =   0.00000

 Dipole moment (field-independent basis, Debye):
    X=              0.0000    Y=             -0.0000    Z=              0.0000  Tot=              0.0000
 Quadrupole moment (field-independent basis, Debye-Ang):
   XX=            -12.5261   YY=            -18.0167   ZZ=            -13.4158
   XY=             -0.0000   XZ=              0.0000   YZ=              0.0000

 Normal termination of Gaussian 09 at Thu Feb  9 16:30:17 2017.
