 Gaussian 09, Revision E.01,
 Gaussian 09:  ES64L-G09RevE.01 30-Nov-2015

 ----------------------------------------------------------------------
 #rhf/gen scf(symm,tight,novaracc,noincfock,fulldiag) stable(crhf) geom
 =nocrowd test
 ----------------------------------------------------------------------

 hf stability analysis of h10 triangular lattice, y= 0.8236408832117905
 2
 ----------------------------------------------------------------------
 Symbolic Z-matrix:
 Charge =  0 Multiplicity = 1

                         Standard orientation:
 ---------------------------------------------------------------------
 Center     Atomic      Atomic             Coordinates (Angstroms)
 Number     Number       Type             X           Y           Z
 ---------------------------------------------------------------------
      1          1           0       -0.000000    0.823641    1.401947
      2          1           0       -0.000000   -0.000000    2.102920
      3          1           0       -0.000000   -0.000000    0.700973
      4          1           0       -0.000000   -0.823641    1.401947
      5          1           0       -0.000000    0.823641    0.000000
      6          1           0       -0.000000   -0.823641   -0.000000
      7          1           0        0.000000    0.000000   -0.700973
      8          1           0        0.000000    0.823641   -1.401947
      9          1           0       -0.000000   -0.823641   -1.401947
     10          1           0        0.000000    0.000000   -2.102920
 ---------------------------------------------------------------------

 SCF Done:  E(RHF) =  -4.92918630627     A.U. after    8 cycles
 E2 =    -0.9627060416D-01 EUMP2 =    -0.50254569104322D+01

 The electronic state is 1-AG.
 Alpha  occ. eigenvalues --   -0.93293  -0.74915  -0.51086  -0.49137  -0.30294
 Alpha virt. eigenvalues --    0.03618   0.17307   0.39096   0.44072   0.53391

 Mulliken charges:
               1
     1  H   -0.173390
     2  H    0.165077
     3  H    0.116209
     4  H   -0.173390
     5  H    0.065494
     6  H    0.065494
     7  H    0.116209
     8  H   -0.173390
     9  H   -0.173390
    10  H    0.165077
 Sum of Mulliken charges =  -0.00000

 Dipole moment (field-independent basis, Debye):
    X=              0.0000    Y=              0.0000    Z=             -0.0000  Tot=              0.0000
 Quadrupole moment (field-independent basis, Debye-Ang):
   XX=            -12.9620   YY=            -17.7727   ZZ=            -13.8041
   XY=             -0.0000   XZ=             -0.0000   YZ=              0.0000

 Normal termination of Gaussian 09 at Thu Feb  9 16:09:55 2017.
