 Gaussian 09, Revision E.01,
 Gaussian 09:  ES64L-G09RevE.01 30-Nov-2015

 ----------------------------------------------------------------------
 #rhf/gen scf(symm,tight,novaracc,noincfock,fulldiag) stable(crhf) geom
 =nocrowd test
 ----------------------------------------------------------------------

 hf stability analysis of h10 triangular lattice, y= 0.9295513923648614
 0
 ----------------------------------------------------------------------
 Symbolic Z-matrix:
 Charge =  0 Multiplicity = 1

                         Standard orientation:
 ---------------------------------------------------------------------
 Center     Atomic      Atomic             Coordinates (Angstroms)
 Number     Number       Type             X           Y           Z
 ---------------------------------------------------------------------
      1          1           0        0.000000    0.929551    1.242213
      2          1           0        0.000000   -0.000000    1.863319
      3          1           0        0.000000   -0.000000    0.621106
      4          1           0       -0.000000   -0.929551    1.242213
      5          1           0       -0.000000    0.929551    0.000000
      6          1           0       -0.000000   -0.929551   -0.000000
      7          1           0        0.000000    0.000000   -0.621106
      8          1           0        0.000000    0.929551   -1.242213
      9          1           0       -0.000000   -0.929551   -1.242213
     10          1           0        0.000000    0.000000   -1.863319
 ---------------------------------------------------------------------

 SCF Done:  E(RHF) =  -4.96933132518     A.U. after    8 cycles
 E2 =    -0.9804627079D-01 EUMP2 =    -0.50673775959698D+01

 The electronic state is 1-AG.
 Alpha  occ. eigenvalues --   -0.95767  -0.73969  -0.57556  -0.43831  -0.33032
 Alpha virt. eigenvalues --    0.14427   0.21056   0.22604   0.45550   0.55219

 Mulliken charges:
               1
     1  H   -0.124450
     2  H    0.066081
     3  H    0.098505
     4  H   -0.124450
     5  H    0.084315
     6  H    0.084315
     7  H    0.098505
     8  H   -0.124450
     9  H   -0.124450
    10  H    0.066081
 Sum of Mulliken charges =  -0.00000

 Dipole moment (field-independent basis, Debye):
    X=              0.0000    Y=             -0.0000    Z=             -0.0000  Tot=              0.0000
 Quadrupole moment (field-independent basis, Debye-Ang):
   XX=            -12.8917   YY=            -16.3761   ZZ=            -17.1425
   XY=             -0.0000   XZ=              0.0000   YZ=              0.0000

 Normal termination of Gaussian 09 at Thu Feb  9 16:14:35 2017.
