 Gaussian 09, Revision E.01,
 Gaussian 09:  ES64L-G09RevE.01 30-Nov-2015

 ----------------------------------------------------------------------
 #rhf/gen scf(symm,tight,novaracc,noincfock,fulldiag) stable(crhf) geom
 =nocrowd test
 ----------------------------------------------------------------------

 ----------------------------------------------------------------------
 hf stability analysis of h10 triangular lattice, y= 1.3271019102789854
 ----------------------------------------------------------------------
 Symbolic Z-matrix:
 Charge =  0 Multiplicity = 1

                         Standard orientation:
 ---------------------------------------------------------------------
 Center     Atomic      Atomic             Coordinates (Angstroms)
 Number     Number       Type             X           Y           Z
 ---------------------------------------------------------------------
      1          1           0       -0.000000    1.327102    0.870092
      2          1           0        0.000000    0.000000    1.305138
      3          1           0        0.000000    0.000000    0.435046
      4          1           0       -0.000000   -1.327102    0.870092
      5          1           0       -0.000000    1.327102   -0.000000
      6          1           0       -0.000000   -1.327102    0.000000
      7          1           0        0.000000   -0.000000   -0.435046
      8          1           0        0.000000    1.327102   -0.870092
      9          1           0       -0.000000   -1.327102   -0.870092
     10          1           0        0.000000   -0.000000   -1.305138
 ---------------------------------------------------------------------

 SCF Done:  E(RHF) =  -4.95239794508     A.U. after    8 cycles
 E2 =    -0.8831165767D-01 EUMP2 =    -0.50407096027548D+01

 The electronic state is 1-AG.
 Alpha  occ. eigenvalues --   -0.94985  -0.70660  -0.64628  -0.50543  -0.29332
 Alpha virt. eigenvalues --    0.05151   0.10283   0.62318   0.74638   0.80406

 Mulliken charges:
               1
     1  H   -0.070502
     2  H    0.286214
     3  H   -0.058014
     4  H   -0.070502
     5  H   -0.087196
     6  H   -0.087196
     7  H   -0.058014
     8  H   -0.070502
     9  H   -0.070502
    10  H    0.286214
 Sum of Mulliken charges =   0.00000

 Dipole moment (field-independent basis, Debye):
    X=              0.0000    Y=             -0.0000    Z=             -0.0000  Tot=              0.0000
 Quadrupole moment (field-independent basis, Debye-Ang):
   XX=            -12.6157   YY=            -20.9782   ZZ=            -10.6365
   XY=             -0.0000   XZ=             -0.0000   YZ=              0.0000

 Normal termination of Gaussian 09 at Thu Feb  9 16:25:30 2017.
