 Gaussian 09, Revision E.01,
 Gaussian 09:  ES64L-G09RevE.01 30-Nov-2015

 ----------------------------------------------------------------------
 #rhf/gen scf(symm,tight,novaracc,noincfock,fulldiag) stable(crhf) geom
 =nocrowd test
 ----------------------------------------------------------------------

 hf stability analysis of h10 triangular lattice, y= 0.7698484628422243
 0
 ----------------------------------------------------------------------
 Symbolic Z-matrix:
 Charge =  0 Multiplicity = 1

                         Standard orientation:
 ---------------------------------------------------------------------
 Center     Atomic      Atomic             Coordinates (Angstroms)
 Number     Number       Type             X           Y           Z
 ---------------------------------------------------------------------
      1          1           0        0.000000    0.769848    1.499906
      2          1           0        0.000000    0.000000    2.249859
      3          1           0        0.000000    0.000000    0.749953
      4          1           0       -0.000000   -0.769848    1.499906
      5          1           0       -0.000000    0.769848    0.000000
      6          1           0       -0.000000   -0.769848   -0.000000
      7          1           0        0.000000    0.000000   -0.749953
      8          1           0        0.000000    0.769848   -1.499906
      9          1           0       -0.000000   -0.769848   -1.499906
     10          1           0        0.000000    0.000000   -2.249859
 ---------------------------------------------------------------------

 SCF Done:  E(RHF) =  -4.87090687094     A.U. after    8 cycles
 E2 =    -0.9715999302D-01 EUMP2 =    -0.49680668639581D+01

 The electronic state is 1-AG.
 Alpha  occ. eigenvalues --   -0.91440  -0.74771  -0.51479  -0.47134  -0.28113
 Alpha virt. eigenvalues --   -0.01124   0.15434   0.36057   0.50038   0.55134

 Mulliken charges:
               1
     1  H   -0.203032
     2  H    0.217919
     3  H    0.144588
     4  H   -0.203032
     5  H    0.043557
     6  H    0.043557
     7  H    0.144588
     8  H   -0.203032
     9  H   -0.203032
    10  H    0.217919
 Sum of Mulliken charges =  -0.00000

 Dipole moment (field-independent basis, Debye):
    X=              0.0000    Y=             -0.0000    Z=             -0.0000  Tot=              0.0000
 Quadrupole moment (field-independent basis, Debye-Ang):
   XX=            -12.9966   YY=            -18.4459   ZZ=            -11.5474
   XY=             -0.0000   XZ=             -0.0000   YZ=              0.0000

 Normal termination of Gaussian 09 at Thu Feb  9 16:07:12 2017.
