 Gaussian 09, Revision E.01,
 Gaussian 09:  ES64L-G09RevE.01 30-Nov-2015

 ----------------------------------------------------------------------
 #rhf/gen scf(symm,tight,novaracc,noincfock,fulldiag) stable(crhf) geom
 =nocrowd test
 ----------------------------------------------------------------------

 ----------------------------------------------------------------------
 hf stability analysis of h10 triangular lattice, y= 1.2216216453839461
 ----------------------------------------------------------------------
 Symbolic Z-matrix:
 Charge =  0 Multiplicity = 1

                         Standard orientation:
 ---------------------------------------------------------------------
 Center     Atomic      Atomic             Coordinates (Angstroms)
 Number     Number       Type             X           Y           Z
 ---------------------------------------------------------------------
      1          1           0        0.000000    1.221622    0.945219
      2          1           0        0.000000    0.000000    1.417829
      3          1           0        0.000000    0.000000    0.472610
      4          1           0       -0.000000   -1.221622    0.945219
      5          1           0       -0.000000    1.221622   -0.000000
      6          1           0       -0.000000   -1.221622    0.000000
      7          1           0        0.000000   -0.000000   -0.472610
      8          1           0        0.000000    1.221622   -0.945219
      9          1           0       -0.000000   -1.221622   -0.945219
     10          1           0        0.000000   -0.000000   -1.417829
 ---------------------------------------------------------------------

 SCF Done:  E(RHF) =  -4.90049202510     A.U. after    9 cycles
 E2 =    -0.9403746910D-01 EUMP2 =    -0.49945294942038D+01

 The electronic state is 1-AG.
 Alpha  occ. eigenvalues --   -0.94217  -0.67564  -0.66747  -0.41502  -0.30695
 Alpha virt. eigenvalues --   -0.00505   0.15167   0.53092   0.59705   0.75423

 Mulliken charges:
               1
     1  H   -0.084758
     2  H    0.284061
     3  H   -0.033575
     4  H   -0.084758
     5  H   -0.080969
     6  H   -0.080969
     7  H   -0.033575
     8  H   -0.084758
     9  H   -0.084758
    10  H    0.284061
 Sum of Mulliken charges =  -0.00000

 Dipole moment (field-independent basis, Debye):
    X=              0.0000    Y=              0.0000    Z=              0.0000  Tot=              0.0000
 Quadrupole moment (field-independent basis, Debye-Ang):
   XX=            -12.5996   YY=            -21.3269   ZZ=             -9.6331
   XY=             -0.0000   XZ=             -0.0000   YZ=              0.0000

 Normal termination of Gaussian 09 at Thu Feb  9 16:23:23 2017.
