 Gaussian 09, Revision E.01,
 Gaussian 09:  ES64L-G09RevE.01 30-Nov-2015

 ----------------------------------------------------------------------
 #rhf/gen scf(symm,tight,novaracc,noincfock,fulldiag) stable(crhf) geom
 =nocrowd test
 ----------------------------------------------------------------------

 hf stability analysis of h10 triangular lattice, y= 0.7806821130012239
 2
 ----------------------------------------------------------------------
 Symbolic Z-matrix:
 Charge =  0 Multiplicity = 1

                         Standard orientation:
 ---------------------------------------------------------------------
 Center     Atomic      Atomic             Coordinates (Angstroms)
 Number     Number       Type             X           Y           Z
 ---------------------------------------------------------------------
      1          1           0        0.000000    0.780682    1.479092
      2          1           0        0.000000   -0.000000    2.218638
      3          1           0        0.000000   -0.000000    0.739546
      4          1           0       -0.000000   -0.780682    1.479092
      5          1           0       -0.000000    0.780682    0.000000
      6          1           0       -0.000000   -0.780682   -0.000000
      7          1           0        0.000000    0.000000   -0.739546
      8          1           0        0.000000    0.780682   -1.479092
      9          1           0       -0.000000   -0.780682   -1.479092
     10          1           0        0.000000    0.000000   -2.218638
 ---------------------------------------------------------------------

 SCF Done:  E(RHF) =  -4.88472930479     A.U. after    8 cycles
 E2 =    -0.9687786824D-01 EUMP2 =    -0.49816071730369D+01

 The electronic state is 1-AG.
 Alpha  occ. eigenvalues --   -0.91851  -0.74840  -0.51032  -0.47973  -0.28603
 Alpha virt. eigenvalues --   -0.00222   0.15759   0.37511   0.48062   0.54983

 Mulliken charges:
               1
     1  H   -0.196730
     2  H    0.207136
     3  H    0.137490
     4  H   -0.196730
     5  H    0.048834
     6  H    0.048834
     7  H    0.137490
     8  H   -0.196730
     9  H   -0.196730
    10  H    0.207136
 Sum of Mulliken charges =   0.00000

 Dipole moment (field-independent basis, Debye):
    X=              0.0000    Y=             -0.0000    Z=              0.0000  Tot=              0.0000
 Quadrupole moment (field-independent basis, Debye-Ang):
   XX=            -12.9897   YY=            -18.3130   ZZ=            -12.0390
   XY=             -0.0000   XZ=             -0.0000   YZ=             -0.0000

 Normal termination of Gaussian 09 at Thu Feb  9 16:07:46 2017.
