 Gaussian 09, Revision E.01,
 Gaussian 09:  ES64L-G09RevE.01 30-Nov-2015

 ----------------------------------------------------------------------
 #rhf/gen scf(symm,tight,novaracc,noincfock,fulldiag) stable(crhf) geom
 =nocrowd test
 ----------------------------------------------------------------------

 ----------------------------------------------------------------------
 hf stability analysis of h10 triangular lattice, y= 1.0290458576996018
 ----------------------------------------------------------------------
 Symbolic Z-matrix:
 Charge =  0 Multiplicity = 1

                         Standard orientation:
 ---------------------------------------------------------------------
 Center     Atomic      Atomic             Coordinates (Angstroms)
 Number     Number       Type             X           Y           Z
 ---------------------------------------------------------------------
      1          1           0        0.000000    1.029046    1.122108
      2          1           0        0.000000    0.000000    1.683162
      3          1           0        0.000000    0.000000    0.561054
      4          1           0       -0.000000   -1.029046    1.122108
      5          1           0       -0.000000    1.029046   -0.000000
      6          1           0       -0.000000   -1.029046   -0.000000
      7          1           0        0.000000   -0.000000   -0.561054
      8          1           0        0.000000    1.029046   -1.122108
      9          1           0       -0.000000   -1.029046   -1.122108
     10          1           0        0.000000   -0.000000   -1.683162
 ---------------------------------------------------------------------

 SCF Done:  E(RHF) =  -4.92000480764     A.U. after    9 cycles
 E2 =    -0.1039089334D+00 EUMP2 =    -0.50239137410311D+01

 The electronic state is 1-AG.
 Alpha  occ. eigenvalues --   -0.97025  -0.72079  -0.62445  -0.38272  -0.34183
 Alpha virt. eigenvalues --    0.06618   0.24066   0.29028   0.38866   0.62497

 Mulliken charges:
               1
     1  H   -0.081622
     2  H   -0.024716
     3  H    0.108090
     4  H   -0.081622
     5  H    0.079869
     6  H    0.079869
     7  H    0.108090
     8  H   -0.081622
     9  H   -0.081622
    10  H   -0.024716
 Sum of Mulliken charges =   0.00000

 Dipole moment (field-independent basis, Debye):
    X=              0.0000    Y=              0.0000    Z=             -0.0000  Tot=              0.0000
 Quadrupole moment (field-independent basis, Debye-Ang):
   XX=            -12.8212   YY=            -14.9868   ZZ=            -19.3289
   XY=             -0.0000   XZ=              0.0000   YZ=             -0.0000

 Normal termination of Gaussian 09 at Thu Feb  9 16:18:08 2017.
