 Gaussian 09, Revision E.01,
 Gaussian 09:  ES64L-G09RevE.01 30-Nov-2015

 ----------------------------------------------------------------------
 #rhf/gen scf(symm,tight,novaracc,noincfock,fulldiag) stable(crhf) geom
 =nocrowd test
 ----------------------------------------------------------------------

 hf stability analysis of h10 triangular lattice, y= 0.8280250719462473
 0
 ----------------------------------------------------------------------
 Symbolic Z-matrix:
 Charge =  0 Multiplicity = 1

                         Standard orientation:
 ---------------------------------------------------------------------
 Center     Atomic      Atomic             Coordinates (Angstroms)
 Number     Number       Type             X           Y           Z
 ---------------------------------------------------------------------
      1          1           0        0.000000    0.828025    1.394524
      2          1           0        0.000000    0.000000    2.091785
      3          1           0        0.000000    0.000000    0.697262
      4          1           0       -0.000000   -0.828025    1.394524
      5          1           0       -0.000000    0.828025   -0.000000
      6          1           0       -0.000000   -0.828025    0.000000
      7          1           0        0.000000   -0.000000   -0.697262
      8          1           0        0.000000    0.828025   -1.394524
      9          1           0       -0.000000   -0.828025   -1.394524
     10          1           0        0.000000   -0.000000   -2.091785
 ---------------------------------------------------------------------

 SCF Done:  E(RHF) =  -4.93280116639     A.U. after    8 cycles
 E2 =    -0.9625299933D-01 EUMP2 =    -0.50290541657289D+01

 The electronic state is 1-AG.
 Alpha  occ. eigenvalues --   -0.93425  -0.74906  -0.51386  -0.48934  -0.30446
 Alpha virt. eigenvalues --    0.04032   0.17487   0.38397   0.44506   0.53153

 Mulliken charges:
               1
     1  H   -0.171146
     2  H    0.160850
     3  H    0.114596
     4  H   -0.171146
     5  H    0.066846
     6  H    0.066846
     7  H    0.114596
     8  H   -0.171146
     9  H   -0.171146
    10  H    0.160850
 Sum of Mulliken charges =   0.00000

 Dipole moment (field-independent basis, Debye):
    X=              0.0000    Y=             -0.0000    Z=              0.0000  Tot=              0.0000
 Quadrupole moment (field-independent basis, Debye-Ang):
   XX=            -12.9591   YY=            -17.7166   ZZ=            -13.9690
   XY=             -0.0000   XZ=             -0.0000   YZ=             -0.0000

 Normal termination of Gaussian 09 at Thu Feb  9 16:10:08 2017.
