 Gaussian 09, Revision E.01,
 Gaussian 09:  ES64L-G09RevE.01 30-Nov-2015

 ----------------------------------------------------------------------
 #rhf/gen scf(symm,tight,novaracc,noincfock,fulldiag) stable(crhf) geom
 =nocrowd test
 ----------------------------------------------------------------------

 ----------------------------------------------------------------------
 hf stability analysis of h10 triangular lattice, y= 1.1026771700415456
 ----------------------------------------------------------------------
 Symbolic Z-matrix:
 Charge =  0 Multiplicity = 1

                         Standard orientation:
 ---------------------------------------------------------------------
 Center     Atomic      Atomic             Coordinates (Angstroms)
 Number     Number       Type             X           Y           Z
 ---------------------------------------------------------------------
      1          1           0        0.000000    1.102677    1.047179
      2          1           0        0.000000    0.000000    1.570769
      3          1           0        0.000000    0.000000    0.523590
      4          1           0       -0.000000   -1.102677    1.047179
      5          1           0       -0.000000    1.102677   -0.000000
      6          1           0       -0.000000   -1.102677   -0.000000
      7          1           0        0.000000    0.000000   -0.523590
      8          1           0        0.000000    1.102677   -1.047179
      9          1           0       -0.000000   -1.102677   -1.047179
     10          1           0        0.000000    0.000000   -1.570769
 ---------------------------------------------------------------------

 SCF Done:  E(RHF) =  -4.83545577641     A.U. after   11 cycles
 E2 =    -0.1111544647D+00 EUMP2 =    -0.49466102411373D+01

 The electronic state is 1-AG.
 Alpha  occ. eigenvalues --   -0.97512  -0.70492  -0.65495  -0.34095  -0.33726
 Alpha virt. eigenvalues --   -0.02448   0.24491   0.34707   0.41378   0.66381

 Mulliken charges:
               1
     1  H   -0.018602
     2  H   -0.112455
     3  H    0.131704
     4  H   -0.018602
     5  H    0.017955
     6  H    0.017955
     7  H    0.131704
     8  H   -0.018602
     9  H   -0.018602
    10  H   -0.112455
 Sum of Mulliken charges =  -0.00000

 Dipole moment (field-independent basis, Debye):
    X=             -0.0000    Y=              0.0000    Z=             -0.0000  Tot=              0.0000
 Quadrupole moment (field-independent basis, Debye-Ang):
   XX=            -12.7493   YY=            -13.9807   ZZ=            -20.2371
   XY=             -0.0000   XZ=              0.0000   YZ=             -0.0000

 Normal termination of Gaussian 09 at Thu Feb  9 16:20:24 2017.
