 Gaussian 09, Revision E.01,
 Gaussian 09:  ES64L-G09RevE.01 30-Nov-2015

 ----------------------------------------------------------------------
 #rhf/gen scf(symm,tight,novaracc,noincfock,fulldiag) stable(crhf) geom
 =nocrowd test
 ----------------------------------------------------------------------

 hf stability analysis of h10 triangular lattice, y= 0.7882277041353643
 6
 ----------------------------------------------------------------------
 Symbolic Z-matrix:
 Charge =  0 Multiplicity = 1

                         Standard orientation:
 ---------------------------------------------------------------------
 Center     Atomic      Atomic             Coordinates (Angstroms)
 Number     Number       Type             X           Y           Z
 ---------------------------------------------------------------------
      1          1           0        0.000000    0.788228    1.464933
      2          1           0        0.000000    0.000000    2.197399
      3          1           0        0.000000    0.000000    0.732466
      4          1           0       -0.000000   -0.788228    1.464933
      5          1           0       -0.000000    0.788228    0.000000
      6          1           0       -0.000000   -0.788228   -0.000000
      7          1           0        0.000000    0.000000   -0.732466
      8          1           0        0.000000    0.788228   -1.464933
      9          1           0       -0.000000   -0.788228   -1.464933
     10          1           0        0.000000    0.000000   -2.197399
 ---------------------------------------------------------------------

 SCF Done:  E(RHF) =  -4.89373133810     A.U. after    8 cycles
 E2 =    -0.9671281963D-01 EUMP2 =    -0.49904441577343D+01

 The electronic state is 1-AG.
 Alpha  occ. eigenvalues --   -0.92125  -0.74876  -0.50712  -0.48544  -0.28928
 Alpha virt. eigenvalues --    0.00423   0.16002   0.38481   0.46703   0.54813

 Mulliken charges:
               1
     1  H   -0.192443
     2  H    0.199666
     3  H    0.132980
     4  H   -0.192443
     5  H    0.052240
     6  H    0.052240
     7  H    0.132980
     8  H   -0.192443
     9  H   -0.192443
    10  H    0.199666
 Sum of Mulliken charges =  -0.00000

 Dipole moment (field-independent basis, Debye):
    X=              0.0000    Y=             -0.0000    Z=              0.0000  Tot=              0.0000
 Quadrupole moment (field-independent basis, Debye-Ang):
   XX=            -12.9849   YY=            -18.2196   ZZ=            -12.3698
   XY=             -0.0000   XZ=             -0.0000   YZ=             -0.0000

 Normal termination of Gaussian 09 at Thu Feb  9 16:08:09 2017.
