 Gaussian 09, Revision E.01,
 Gaussian 09:  ES64L-G09RevE.01 30-Nov-2015

 ----------------------------------------------------------------------
 #rhf/gen scf(symm,tight,novaracc,noincfock,fulldiag) stable(crhf) geom
 =nocrowd test
 ----------------------------------------------------------------------

 hf stability analysis of h10 triangular lattice, y= 0.7611630264406603
 6
 ----------------------------------------------------------------------
 Symbolic Z-matrix:
 Charge =  0 Multiplicity = 1

                         Standard orientation:
 ---------------------------------------------------------------------
 Center     Atomic      Atomic             Coordinates (Angstroms)
 Number     Number       Type             X           Y           Z
 ---------------------------------------------------------------------
      1          1           0        0.000000    0.761163    1.517021
      2          1           0       -0.000000    0.000000    2.275532
      3          1           0       -0.000000    0.000000    0.758511
      4          1           0       -0.000000   -0.761163    1.517021
      5          1           0       -0.000000    0.761163   -0.000000
      6          1           0       -0.000000   -0.761163   -0.000000
      7          1           0        0.000000    0.000000   -0.758511
      8          1           0        0.000000    0.761163   -1.517021
      9          1           0       -0.000000   -0.761163   -1.517021
     10          1           0        0.000000    0.000000   -2.275532
 ---------------------------------------------------------------------

 SCF Done:  E(RHF) =  -4.85905579585     A.U. after    8 cycles
 E2 =    -0.9742553392D-01 EUMP2 =    -0.49564813297684D+01

 The electronic state is 1-AG.
 Alpha  occ. eigenvalues --   -0.91097  -0.74700  -0.51829  -0.46444  -0.27700
 Alpha virt. eigenvalues --   -0.01826   0.15194   0.34858   0.51617   0.55171

 Mulliken charges:
               1
     1  H   -0.208212
     2  H    0.226610
     3  H    0.150829
     4  H   -0.208212
     5  H    0.038986
     6  H    0.038986
     7  H    0.150829
     8  H   -0.208212
     9  H   -0.208212
    10  H    0.226610
 Sum of Mulliken charges =  -0.00000

 Dipole moment (field-independent basis, Debye):
    X=              0.0000    Y=             -0.0000    Z=             -0.0000  Tot=              0.0000
 Quadrupole moment (field-independent basis, Debye-Ang):
   XX=            -13.0020   YY=            -18.5511   ZZ=            -11.1385
   XY=             -0.0000   XZ=             -0.0000   YZ=             -0.0000

 Normal termination of Gaussian 09 at Thu Feb  9 16:06:44 2017.
