 Gaussian 09, Revision E.01,
 Gaussian 09:  ES64L-G09RevE.01 30-Nov-2015

 ----------------------------------------------------------------------
 #rhf/gen scf(symm,tight,novaracc,noincfock,fulldiag) stable(crhf) geom
 =nocrowd test
 ----------------------------------------------------------------------

 ----------------------------------------------------------------------
 hf stability analysis of h10 triangular lattice, y= 1.5782458886051585
 ----------------------------------------------------------------------
 Symbolic Z-matrix:
 Charge =  0 Multiplicity = 1

                         Standard orientation:
 ---------------------------------------------------------------------
 Center     Atomic      Atomic             Coordinates (Angstroms)
 Number     Number       Type             X           Y           Z
 ---------------------------------------------------------------------
      1          1           0        0.000000    1.578246    0.731635
      2          1           0        0.000000    0.000000    1.097453
      3          1           0        0.000000    0.000000    0.365818
      4          1           0       -0.000000   -1.578246    0.731635
      5          1           0       -0.000000    1.578246   -0.000000
      6          1           0       -0.000000   -1.578246    0.000000
      7          1           0        0.000000   -0.000000   -0.365818
      8          1           0        0.000000    1.578246   -0.731635
      9          1           0       -0.000000   -1.578246   -0.731635
     10          1           0        0.000000   -0.000000   -1.097453
 ---------------------------------------------------------------------

 SCF Done:  E(RHF) =  -4.82110616844     A.U. after    7 cycles
 E2 =    -0.9766818484D-01 EUMP2 =    -0.49187743532832D+01

 The electronic state is 1-AG.
 Alpha  occ. eigenvalues --   -0.96705  -0.76975  -0.67341  -0.60274  -0.25016
 Alpha virt. eigenvalues --    0.02291   0.19240   0.83965   0.93779   1.12612

 Mulliken charges:
               1
     1  H    0.016479
     2  H    0.238131
     3  H   -0.094143
     4  H    0.016479
     5  H   -0.176946
     6  H   -0.176946
     7  H   -0.094143
     8  H    0.016479
     9  H    0.016479
    10  H    0.238131
 Sum of Mulliken charges =   0.00000

 Dipole moment (field-independent basis, Debye):
    X=              0.0000    Y=             -0.0000    Z=              0.0000  Tot=              0.0000
 Quadrupole moment (field-independent basis, Debye-Ang):
   XX=            -12.5764   YY=            -19.1209   ZZ=            -12.7477
   XY=             -0.0000   XZ=             -0.0000   YZ=              0.0000

 Normal termination of Gaussian 09 at Thu Feb  9 16:29:02 2017.
