 Gaussian 09, Revision E.01,
 Gaussian 09:  ES64L-G09RevE.01 30-Nov-2015

 ----------------------------------------------------------------------
 #rhf/gen scf(symm,tight,novaracc,noincfock,fulldiag) stable(crhf) geom
 =nocrowd test
 ----------------------------------------------------------------------

 ----------------------------------------------------------------------
 hf stability analysis of h10 triangular lattice, y= 2.4375523412504077
 ----------------------------------------------------------------------
 Symbolic Z-matrix:
 Charge =  0 Multiplicity = 1

                         Standard orientation:
 ---------------------------------------------------------------------
 Center     Atomic      Atomic             Coordinates (Angstroms)
 Number     Number       Type             X           Y           Z
 ---------------------------------------------------------------------
      1          1           0       -0.000000    2.437552    0.473713
      2          1           0       -0.000000    0.000000    0.710570
      3          1           0       -0.000000    0.000000    0.236857
      4          1           0       -0.000000   -2.437552    0.473713
      5          1           0       -0.000000    2.437552   -0.000000
      6          1           0       -0.000000   -2.437552    0.000000
      7          1           0        0.000000   -0.000000   -0.236857
      8          1           0        0.000000    2.437552   -0.473713
      9          1           0       -0.000000   -2.437552   -0.473713
     10          1           0        0.000000   -0.000000   -0.710570
 ---------------------------------------------------------------------

 SCF Done:  E(RHF) =  -3.04990780047     A.U. after    7 cycles
 E2 =    -0.2615125477D+00 EUMP2 =    -0.33114203481770D+01

 The electronic state is 1-AG.
 Alpha  occ. eigenvalues --   -1.08480  -0.93271  -0.93238  -0.53404  -0.11626
 Alpha virt. eigenvalues --   -0.00290   0.60550   1.55517   1.56640   2.60526

 Mulliken charges:
               1
     1  H    0.332648
     2  H    0.324404
     3  H   -0.317480
     4  H    0.332648
     5  H   -0.672220
     6  H   -0.672220
     7  H   -0.317480
     8  H    0.332648
     9  H    0.332648
    10  H    0.324404
 Sum of Mulliken charges =  -0.00000

 Dipole moment (field-independent basis, Debye):
    X=              0.0000    Y=             -0.0000    Z=             -0.0000  Tot=              0.0000
 Quadrupole moment (field-independent basis, Debye-Ang):
   XX=            -12.1129   YY=            -13.3072   ZZ=            -14.8992
   XY=              0.0000   XZ=              0.0000   YZ=              0.0000

 Normal termination of Gaussian 09 at Thu Feb  9 16:34:16 2017.
