 Gaussian 09, Revision E.01,
 Gaussian 09:  ES64L-G09RevE.01 30-Nov-2015

 ----------------------------------------------------------------------
 #rhf/gen scf(symm,tight,novaracc,noincfock,fulldiag) stable(crhf) geom
 =nocrowd test
 ----------------------------------------------------------------------

 hf stability analysis of h10 triangular lattice, y= 0.7951598910690518
 3
 ----------------------------------------------------------------------
 Symbolic Z-matrix:
 Charge =  0 Multiplicity = 1

                         Standard orientation:
 ---------------------------------------------------------------------
 Center     Atomic      Atomic             Coordinates (Angstroms)
 Number     Number       Type             X           Y           Z
 ---------------------------------------------------------------------
      1          1           0        0.000000    0.795160    1.452161
      2          1           0        0.000000    0.000000    2.178242
      3          1           0        0.000000    0.000000    0.726081
      4          1           0       -0.000000   -0.795160    1.452161
      5          1           0       -0.000000    0.795160   -0.000000
      6          1           0       -0.000000   -0.795160    0.000000
      7          1           0        0.000000   -0.000000   -0.726081
      8          1           0        0.000000    0.795160   -1.452161
      9          1           0       -0.000000   -0.795160   -1.452161
     10          1           0        0.000000   -0.000000   -2.178242
 ---------------------------------------------------------------------

 SCF Done:  E(RHF) =  -4.90155144740     A.U. after    8 cycles
 E2 =    -0.9658350947D-01 EUMP2 =    -0.49981349568693D+01

 The electronic state is 1-AG.
 Alpha  occ. eigenvalues --   -0.92369  -0.74900  -0.50414  -0.49059  -0.29216
 Alpha virt. eigenvalues --    0.01027   0.16236   0.39310   0.45501   0.54612

 Mulliken charges:
               1
     1  H   -0.188578
     2  H    0.192833
     3  H    0.129141
     4  H   -0.188578
     5  H    0.055180
     6  H    0.055180
     7  H    0.129141
     8  H   -0.188578
     9  H   -0.188578
    10  H    0.192833
 Sum of Mulliken charges =  -0.00000

 Dipole moment (field-independent basis, Debye):
    X=              0.0000    Y=              0.0000    Z=             -0.0000  Tot=              0.0000
 Quadrupole moment (field-independent basis, Debye-Ang):
   XX=            -12.9805   YY=            -18.1332   ZZ=            -12.6656
   XY=             -0.0000   XZ=             -0.0000   YZ=              0.0000

 Normal termination of Gaussian 09 at Thu Feb  9 16:08:31 2017.
