 Gaussian 09, Revision E.01,
 Gaussian 09:  ES64L-G09RevE.01 30-Nov-2015

 ----------------------------------------------------------------------
 #rhf/gen scf(symm,tight,novaracc,noincfock,fulldiag) stable(crhf) geom
 =nocrowd test
 ----------------------------------------------------------------------

 ----------------------------------------------------------------------
 hf stability analysis of h10 triangular lattice, y= 2.4829720147946408
 ----------------------------------------------------------------------
 Symbolic Z-matrix:
 Charge =  0 Multiplicity = 1

                         Standard orientation:
 ---------------------------------------------------------------------
 Center     Atomic      Atomic             Coordinates (Angstroms)
 Number     Number       Type             X           Y           Z
 ---------------------------------------------------------------------
      1          1           0       -0.000000    2.482972    0.465048
      2          1           0        0.000000    0.000000    0.697572
      3          1           0        0.000000    0.000000    0.232524
      4          1           0       -0.000000   -2.482972    0.465048
      5          1           0       -0.000000    2.482972    0.000000
      6          1           0       -0.000000   -2.482972   -0.000000
      7          1           0        0.000000    0.000000   -0.232524
      8          1           0        0.000000    2.482972   -0.465048
      9          1           0       -0.000000   -2.482972   -0.465048
     10          1           0        0.000000    0.000000   -0.697572
 ---------------------------------------------------------------------

 SCF Done:  E(RHF) =  -2.92634980512     A.U. after    7 cycles
 E2 =    -0.2712872807D+00 EUMP2 =    -0.31976370858326D+01

 The electronic state is 1-AG.
 Alpha  occ. eigenvalues --   -1.09412  -0.93993  -0.93947  -0.53260  -0.11024
 Alpha virt. eigenvalues --    0.00026   0.62388   1.59292   1.60308   2.69032

 Mulliken charges:
               1
     1  H    0.349242
     2  H    0.338931
     3  H   -0.333191
     4  H    0.349242
     5  H   -0.704225
     6  H   -0.704225
     7  H   -0.333191
     8  H    0.349242
     9  H    0.349242
    10  H    0.338931
 Sum of Mulliken charges =  -0.00000

 Dipole moment (field-independent basis, Debye):
    X=              0.0000    Y=              0.0000    Z=             -0.0000  Tot=              0.0000
 Quadrupole moment (field-independent basis, Debye-Ang):
   XX=            -12.0881   YY=            -13.1637   ZZ=            -14.9361
   XY=              0.0000   XZ=              0.0000   YZ=              0.0000

 Normal termination of Gaussian 09 at Thu Feb  9 16:34:24 2017.
