 Gaussian 09, Revision E.01,
 Gaussian 09:  ES64L-G09RevE.01 30-Nov-2015

 ----------------------------------------------------------------------
 #rhf/gen scf(symm,tight,novaracc,noincfock,fulldiag) stable(crhf) geom
 =nocrowd test
 ----------------------------------------------------------------------

 hf stability analysis of h10 triangular lattice, y= 0.8833142989544126
 0
 ----------------------------------------------------------------------
 Symbolic Z-matrix:
 Charge =  0 Multiplicity = 1

                         Standard orientation:
 ---------------------------------------------------------------------
 Center     Atomic      Atomic             Coordinates (Angstroms)
 Number     Number       Type             X           Y           Z
 ---------------------------------------------------------------------
      1          1           0        0.000000    0.883314    1.307236
      2          1           0        0.000000    0.000000    1.960855
      3          1           0        0.000000    0.000000    0.653618
      4          1           0       -0.000000   -0.883314    1.307236
      5          1           0       -0.000000    0.883314    0.000000
      6          1           0       -0.000000   -0.883314    0.000000
      7          1           0        0.000000   -0.000000   -0.653618
      8          1           0        0.000000    0.883314   -1.307236
      9          1           0       -0.000000   -0.883314   -1.307236
     10          1           0        0.000000   -0.000000   -1.960855
 ---------------------------------------------------------------------

 SCF Done:  E(RHF) =  -4.96385666594     A.U. after    8 cycles
 E2 =    -0.9671067045D-01 EUMP2 =    -0.50605673363930D+01

 The electronic state is 1-AG.
 Alpha  occ. eigenvalues --   -0.94857  -0.74553  -0.54918  -0.46242  -0.32060
 Alpha virt. eigenvalues --    0.09536   0.20062   0.28710   0.49345   0.50682

 Mulliken charges:
               1
     1  H   -0.144663
     2  H    0.108563
     3  H    0.101454
     4  H   -0.144663
     5  H    0.079308
     6  H    0.079308
     7  H    0.101454
     8  H   -0.144663
     9  H   -0.144663
    10  H    0.108563
 Sum of Mulliken charges =  -0.00000

 Dipole moment (field-independent basis, Debye):
    X=              0.0000    Y=             -0.0000    Z=             -0.0000  Tot=              0.0000
 Quadrupole moment (field-independent basis, Debye-Ang):
   XX=            -12.9227   YY=            -16.9955   ZZ=            -15.8384
   XY=             -0.0000   XZ=             -0.0000   YZ=             -0.0000

 Normal termination of Gaussian 09 at Thu Feb  9 16:12:39 2017.
