 Gaussian 09, Revision E.01,
 Gaussian 09:  ES64L-G09RevE.01 30-Nov-2015

 ----------------------------------------------------------------------
 #rhf/gen scf(symm,tight,novaracc,noincfock,fulldiag) stable(crhf) geom
 =nocrowd test
 ----------------------------------------------------------------------

 ----------------------------------------------------------------------
 hf stability analysis of h10 triangular lattice, y= 2.5066432657105051
 ----------------------------------------------------------------------
 Symbolic Z-matrix:
 Charge =  0 Multiplicity = 1

                         Standard orientation:
 ---------------------------------------------------------------------
 Center     Atomic      Atomic             Coordinates (Angstroms)
 Number     Number       Type             X           Y           Z
 ---------------------------------------------------------------------
      1          1           0       -0.000000    2.506643    0.460656
      2          1           0       -0.000000   -0.000000    0.690984
      3          1           0       -0.000000   -0.000000    0.230328
      4          1           0       -0.000000   -2.506643    0.460656
      5          1           0       -0.000000    2.506643    0.000000
      6          1           0       -0.000000   -2.506643   -0.000000
      7          1           0        0.000000    0.000000   -0.230328
      8          1           0        0.000000    2.506643   -0.460656
      9          1           0       -0.000000   -2.506643   -0.460656
     10          1           0        0.000000    0.000000   -0.690984
 ---------------------------------------------------------------------

 SCF Done:  E(RHF) =  -2.86114823917     A.U. after    7 cycles
 E2 =    -0.2763535022D+00 EUMP2 =    -0.31375017413426D+01

 The electronic state is 1-AG.
 Alpha  occ. eigenvalues --   -1.09900  -0.94360  -0.94311  -0.53186  -0.10713
 Alpha virt. eigenvalues --    0.00197   0.63339   1.61260   1.62225   2.73500

 Mulliken charges:
               1
     1  H    0.357950
     2  H    0.346722
     3  H   -0.341516
     4  H    0.357950
     5  H   -0.721107
     6  H   -0.721107
     7  H   -0.341516
     8  H    0.357950
     9  H    0.357950
    10  H    0.346722
 Sum of Mulliken charges =   0.00000

 Dipole moment (field-independent basis, Debye):
    X=              0.0000    Y=              0.0000    Z=              0.0000  Tot=              0.0000
 Quadrupole moment (field-independent basis, Debye-Ang):
   XX=            -12.0752   YY=            -13.0937   ZZ=            -14.9544
   XY=              0.0000   XZ=              0.0000   YZ=              0.0000

 Normal termination of Gaussian 09 at Thu Feb  9 16:34:29 2017.
