 Gaussian 09, Revision E.01,
 Gaussian 09:  ES64L-G09RevE.01 30-Nov-2015

 ----------------------------------------------------------------------
 #rhf/gen scf(symm,tight,novaracc,noincfock,fulldiag) stable(crhf) geom
 =nocrowd test
 ----------------------------------------------------------------------

 ----------------------------------------------------------------------
 hf stability analysis of h10 triangular lattice, y= 1.0163890700006153
 ----------------------------------------------------------------------
 Symbolic Z-matrix:
 Charge =  0 Multiplicity = 1

                         Standard orientation:
 ---------------------------------------------------------------------
 Center     Atomic      Atomic             Coordinates (Angstroms)
 Number     Number       Type             X           Y           Z
 ---------------------------------------------------------------------
      1          1           0        0.000000    1.016389    1.136081
      2          1           0        0.000000   -0.000000    1.704122
      3          1           0        0.000000   -0.000000    0.568041
      4          1           0       -0.000000   -1.016389    1.136081
      5          1           0       -0.000000    1.016389    0.000000
      6          1           0       -0.000000   -1.016389   -0.000000
      7          1           0        0.000000    0.000000   -0.568041
      8          1           0        0.000000    1.016389   -1.136081
      9          1           0       -0.000000   -1.016389   -1.136081
     10          1           0        0.000000    0.000000   -1.704122
 ---------------------------------------------------------------------

 SCF Done:  E(RHF) =  -4.93072124780     A.U. after    9 cycles
 E2 =    -0.1029268253D+00 EUMP2 =    -0.50336480730714D+01

 The electronic state is 1-AG.
 Alpha  occ. eigenvalues --   -0.96909  -0.72354  -0.61875  -0.39004  -0.34101
 Alpha virt. eigenvalues --    0.08313   0.23133   0.28149   0.39338   0.61737

 Mulliken charges:
               1
     1  H   -0.087494
     2  H   -0.012840
     3  H    0.105866
     4  H   -0.087494
     5  H    0.081962
     6  H    0.081962
     7  H    0.105866
     8  H   -0.087494
     9  H   -0.087494
    10  H   -0.012840
 Sum of Mulliken charges =  -0.00000

 Dipole moment (field-independent basis, Debye):
    X=              0.0000    Y=              0.0000    Z=              0.0000  Tot=              0.0000
 Quadrupole moment (field-independent basis, Debye-Ang):
   XX=            -12.8307   YY=            -15.1686   ZZ=            -19.0911
   XY=             -0.0000   XZ=              0.0000   YZ=             -0.0000

 Normal termination of Gaussian 09 at Thu Feb  9 16:17:42 2017.
