 Gaussian 09, Revision E.01,
 Gaussian 09:  ES64L-G09RevE.01 30-Nov-2015

 ----------------------------------------------------------------------
 #rhf/gen scf(symm,tight,novaracc,noincfock,fulldiag) stable(crhf) geom
 =nocrowd test
 ----------------------------------------------------------------------

 ----------------------------------------------------------------------
 hf stability analysis of h10 triangular lattice, y= 1.0174315389116453
 ----------------------------------------------------------------------
 Symbolic Z-matrix:
 Charge =  0 Multiplicity = 1

                         Standard orientation:
 ---------------------------------------------------------------------
 Center     Atomic      Atomic             Coordinates (Angstroms)
 Number     Number       Type             X           Y           Z
 ---------------------------------------------------------------------
      1          1           0       -0.000000    1.017432    1.134917
      2          1           0       -0.000000    0.000000    1.702376
      3          1           0       -0.000000    0.000000    0.567459
      4          1           0       -0.000000   -1.017432    1.134917
      5          1           0       -0.000000    1.017432   -0.000000
      6          1           0       -0.000000   -1.017432    0.000000
      7          1           0        0.000000   -0.000000   -0.567459
      8          1           0        0.000000    1.017432   -1.134917
      9          1           0       -0.000000   -1.017432   -1.134917
     10          1           0        0.000000   -0.000000   -1.702376
 ---------------------------------------------------------------------

 SCF Done:  E(RHF) =  -4.92988557420     A.U. after    9 cycles
 E2 =    -0.1030049692D+00 EUMP2 =    -0.50328905433942D+01

 The electronic state is 1-AG.
 Alpha  occ. eigenvalues --   -0.96919  -0.72332  -0.61923  -0.38944  -0.34108
 Alpha virt. eigenvalues --    0.08172   0.23216   0.28220   0.39292   0.61801

 Mulliken charges:
               1
     1  H   -0.087021
     2  H   -0.013809
     3  H    0.106038
     4  H   -0.087021
     5  H    0.081814
     6  H    0.081814
     7  H    0.106038
     8  H   -0.087021
     9  H   -0.087021
    10  H   -0.013809
 Sum of Mulliken charges =  -0.00000

 Dipole moment (field-independent basis, Debye):
    X=              0.0000    Y=              0.0000    Z=             -0.0000  Tot=              0.0000
 Quadrupole moment (field-independent basis, Debye-Ang):
   XX=            -12.8299   YY=            -15.1537   ZZ=            -19.1111
   XY=             -0.0000   XZ=              0.0000   YZ=              0.0000

 Normal termination of Gaussian 09 at Thu Feb  9 16:17:44 2017.
