 Gaussian 09, Revision E.01,
 Gaussian 09:  ES64L-G09RevE.01 30-Nov-2015

 ----------------------------------------------------------------------
 #rhf/gen scf(symm,tight,novaracc,noincfock,fulldiag) stable(crhf) geom
 =nocrowd test
 ----------------------------------------------------------------------

 ----------------------------------------------------------------------
 hf stability analysis of h10 triangular lattice, y= 1.9038832683870603
 ----------------------------------------------------------------------
 Symbolic Z-matrix:
 Charge =  0 Multiplicity = 1

                         Standard orientation:
 ---------------------------------------------------------------------
 Center     Atomic      Atomic             Coordinates (Angstroms)
 Number     Number       Type             X           Y           Z
 ---------------------------------------------------------------------
      1          1           0        0.000000    1.903883    0.606498
      2          1           0        0.000000    0.000000    0.909746
      3          1           0        0.000000    0.000000    0.303249
      4          1           0       -0.000000   -1.903883    0.606498
      5          1           0       -0.000000    1.903883    0.000000
      6          1           0       -0.000000   -1.903883    0.000000
      7          1           0        0.000000   -0.000000   -0.303249
      8          1           0        0.000000    1.903883   -0.606498
      9          1           0       -0.000000   -1.903883   -0.606498
     10          1           0        0.000000   -0.000000   -0.909746
 ---------------------------------------------------------------------

 SCF Done:  E(RHF) =  -4.31213115609     A.U. after    7 cycles
 E2 =    -0.1458492148D+00 EUMP2 =    -0.44579803709220D+01

 The electronic state is 1-AG.
 Alpha  occ. eigenvalues --   -0.99391  -0.83817  -0.81299  -0.56280  -0.19365
 Alpha virt. eigenvalues --   -0.01665   0.36602   1.11290   1.15395   1.66026

 Mulliken charges:
               1
     1  H    0.140573
     2  H    0.217465
     3  H   -0.160971
     4  H    0.140573
     5  H   -0.337640
     6  H   -0.337640
     7  H   -0.160971
     8  H    0.140573
     9  H    0.140573
    10  H    0.217465
 Sum of Mulliken charges =  -0.00000

 Dipole moment (field-independent basis, Debye):
    X=              0.0000    Y=              0.0000    Z=              0.0000  Tot=              0.0000
 Quadrupole moment (field-independent basis, Debye-Ang):
   XX=            -12.4213   YY=            -16.2867   ZZ=            -14.1085
   XY=             -0.0000   XZ=              0.0000   YZ=              0.0000

 Normal termination of Gaussian 09 at Thu Feb  9 16:31:49 2017.
