 Gaussian 09, Revision E.01,
 Gaussian 09:  ES64L-G09RevE.01 30-Nov-2015

 ----------------------------------------------------------------------
 #rhf/gen scf(symm,tight,novaracc,noincfock,fulldiag) stable(crhf) geom
 =nocrowd test
 ----------------------------------------------------------------------

 hf stability analysis of h10 triangular lattice, y= 0.8849287528247804
 5
 ----------------------------------------------------------------------
 Symbolic Z-matrix:
 Charge =  0 Multiplicity = 1

                         Standard orientation:
 ---------------------------------------------------------------------
 Center     Atomic      Atomic             Coordinates (Angstroms)
 Number     Number       Type             X           Y           Z
 ---------------------------------------------------------------------
      1          1           0        0.000000    0.884929    1.304851
      2          1           0        0.000000    0.000000    1.957277
      3          1           0        0.000000    0.000000    0.652426
      4          1           0       -0.000000   -0.884929    1.304851
      5          1           0       -0.000000    0.884929   -0.000000
      6          1           0       -0.000000   -0.884929    0.000000
      7          1           0        0.000000   -0.000000   -0.652426
      8          1           0        0.000000    0.884929   -1.304851
      9          1           0       -0.000000   -0.884929   -1.304851
     10          1           0        0.000000   -0.000000   -1.957277
 ---------------------------------------------------------------------

 SCF Done:  E(RHF) =  -4.96436063719     A.U. after    8 cycles
 E2 =    -0.9674273979D-01 EUMP2 =    -0.50611033769779D+01

 The electronic state is 1-AG.
 Alpha  occ. eigenvalues --   -0.94893  -0.74537  -0.55014  -0.46160  -0.32099
 Alpha virt. eigenvalues --    0.09704   0.20145   0.28432   0.49218   0.50853

 Mulliken charges:
               1
     1  H   -0.143933
     2  H    0.107063
     3  H    0.101244
     4  H   -0.143933
     5  H    0.079558
     6  H    0.079558
     7  H    0.101244
     8  H   -0.143933
     9  H   -0.143933
    10  H    0.107063
 Sum of Mulliken charges =  -0.00000

 Dipole moment (field-independent basis, Debye):
    X=              0.0000    Y=              0.0000    Z=             -0.0000  Tot=              0.0000
 Quadrupole moment (field-independent basis, Debye-Ang):
   XX=            -12.9216   YY=            -16.9742   ZZ=            -15.8876
   XY=             -0.0000   XZ=             -0.0000   YZ=             -0.0000

 Normal termination of Gaussian 09 at Thu Feb  9 16:12:43 2017.
