 Gaussian 09, Revision E.01,
 Gaussian 09:  ES64L-G09RevE.01 30-Nov-2015

 ----------------------------------------------------------------------
 #rhf/gen scf(symm,tight,novaracc,noincfock,fulldiag) stable(crhf) geom
 =nocrowd test
 ----------------------------------------------------------------------

 hf stability analysis of h10 triangular lattice, y= 0.9725490418538073
 1
 ----------------------------------------------------------------------
 Symbolic Z-matrix:
 Charge =  0 Multiplicity = 1

                         Standard orientation:
 ---------------------------------------------------------------------
 Center     Atomic      Atomic             Coordinates (Angstroms)
 Number     Number       Type             X           Y           Z
 ---------------------------------------------------------------------
      1          1           0       -0.000000    0.972549    1.187293
      2          1           0       -0.000000    0.000000    1.780939
      3          1           0       -0.000000    0.000000    0.593646
      4          1           0       -0.000000   -0.972549    1.187293
      5          1           0       -0.000000    0.972549    0.000000
      6          1           0       -0.000000   -0.972549    0.000000
      7          1           0        0.000000   -0.000000   -0.593646
      8          1           0        0.000000    0.972549   -1.187293
      9          1           0       -0.000000   -0.972549   -1.187293
     10          1           0        0.000000   -0.000000   -1.780939
 ---------------------------------------------------------------------

 SCF Done:  E(RHF) =  -4.95800383287     A.U. after    8 cycles
 E2 =    -0.1000685319D+00 EUMP2 =    -0.50580723647970D+01

 The electronic state is 1-AG.
 Alpha  occ. eigenvalues --   -0.96415  -0.73240  -0.59789  -0.41484  -0.33675
 Alpha virt. eigenvalues --    0.14491   0.18989   0.25237   0.42093   0.58754

 Mulliken charges:
               1
     1  H   -0.106389
     2  H    0.027157
     3  H    0.100386
     4  H   -0.106389
     5  H    0.085234
     6  H    0.085234
     7  H    0.100386
     8  H   -0.106389
     9  H   -0.106389
    10  H    0.027157
 Sum of Mulliken charges =  -0.00000

 Dipole moment (field-independent basis, Debye):
    X=              0.0000    Y=             -0.0000    Z=             -0.0000  Tot=              0.0000
 Quadrupole moment (field-independent basis, Debye-Ang):
   XX=            -12.8621   YY=            -15.7861   ZZ=            -18.1804
   XY=             -0.0000   XZ=              0.0000   YZ=             -0.0000

 Normal termination of Gaussian 09 at Thu Feb  9 16:16:10 2017.
