 Gaussian 09, Revision E.01,
 Gaussian 09:  ES64L-G09RevE.01 30-Nov-2015

 ----------------------------------------------------------------------
 #rhf/gen scf(symm,tight,novaracc,noincfock,fulldiag) stable(crhf) geom
 =nocrowd test
 ----------------------------------------------------------------------

 hf stability analysis of h10 triangular lattice, y= 0.7889177612594635
 6
 ----------------------------------------------------------------------
 Symbolic Z-matrix:
 Charge =  0 Multiplicity = 1

                         Standard orientation:
 ---------------------------------------------------------------------
 Center     Atomic      Atomic             Coordinates (Angstroms)
 Number     Number       Type             X           Y           Z
 ---------------------------------------------------------------------
      1          1           0       -0.000000    0.788918    1.463651
      2          1           0       -0.000000    0.000000    2.195477
      3          1           0       -0.000000    0.000000    0.731826
      4          1           0       -0.000000   -0.788918    1.463651
      5          1           0       -0.000000    0.788918   -0.000000
      6          1           0       -0.000000   -0.788918    0.000000
      7          1           0        0.000000   -0.000000   -0.731826
      8          1           0        0.000000    0.788918   -1.463651
      9          1           0       -0.000000   -0.788918   -1.463651
     10          1           0        0.000000   -0.000000   -2.195477
 ---------------------------------------------------------------------

 SCF Done:  E(RHF) =  -4.89452907187     A.U. after    8 cycles
 E2 =    -0.9669899524D-01 EUMP2 =    -0.49912280671060D+01

 The electronic state is 1-AG.
 Alpha  occ. eigenvalues --   -0.92150  -0.74879  -0.50683  -0.48596  -0.28957
 Alpha virt. eigenvalues --    0.00482   0.16025   0.38567   0.46581   0.54795

 Mulliken charges:
               1
     1  H   -0.192055
     2  H    0.198985
     3  H    0.132585
     4  H   -0.192055
     5  H    0.052541
     6  H    0.052541
     7  H    0.132585
     8  H   -0.192055
     9  H   -0.192055
    10  H    0.198985
 Sum of Mulliken charges =   0.00000

 Dipole moment (field-independent basis, Debye):
    X=              0.0000    Y=              0.0000    Z=             -0.0000  Tot=              0.0000
 Quadrupole moment (field-independent basis, Debye-Ang):
   XX=            -12.9845   YY=            -18.2110   ZZ=            -12.3996
   XY=             -0.0000   XZ=             -0.0000   YZ=              0.0000

 Normal termination of Gaussian 09 at Thu Feb  9 16:08:12 2017.
