 Gaussian 09, Revision E.01,
 Gaussian 09:  ES64L-G09RevE.01 30-Nov-2015

 ----------------------------------------------------------------------
 #rhf/gen scf(symm,tight,novaracc,noincfock,fulldiag) stable(crhf) geom
 =nocrowd test
 ----------------------------------------------------------------------

 hf stability analysis of h10 triangular lattice, y= 0.9139783088366740
 8
 ----------------------------------------------------------------------
 Symbolic Z-matrix:
 Charge =  0 Multiplicity = 1

                         Standard orientation:
 ---------------------------------------------------------------------
 Center     Atomic      Atomic             Coordinates (Angstroms)
 Number     Number       Type             X           Y           Z
 ---------------------------------------------------------------------
      1          1           0        0.000000    0.913978    1.263379
      2          1           0       -0.000000   -0.000000    1.895068
      3          1           0       -0.000000   -0.000000    0.631689
      4          1           0       -0.000000   -0.913978    1.263379
      5          1           0       -0.000000    0.913978    0.000000
      6          1           0       -0.000000   -0.913978   -0.000000
      7          1           0        0.000000    0.000000   -0.631689
      8          1           0        0.000000    0.913978   -1.263379
      9          1           0       -0.000000   -0.913978   -1.263379
     10          1           0        0.000000    0.000000   -1.895068
 ---------------------------------------------------------------------

 SCF Done:  E(RHF) =  -4.96955299523     A.U. after    8 cycles
 E2 =    -0.9749983993D-01 EUMP2 =    -0.50670528351668D+01

 The electronic state is 1-AG.
 Alpha  occ. eigenvalues --   -0.95487  -0.74192  -0.56697  -0.44657  -0.32739
 Alpha virt. eigenvalues --    0.12763   0.21712   0.23565   0.46849   0.53777

 Mulliken charges:
               1
     1  H   -0.131119
     2  H    0.080287
     3  H    0.098842
     4  H   -0.131119
     5  H    0.083109
     6  H    0.083109
     7  H    0.098842
     8  H   -0.131119
     9  H   -0.131119
    10  H    0.080287
 Sum of Mulliken charges =  -0.00000

 Dipole moment (field-independent basis, Debye):
    X=              0.0000    Y=              0.0000    Z=              0.0000  Tot=              0.0000
 Quadrupole moment (field-independent basis, Debye-Ang):
   XX=            -12.9022   YY=            -16.5864   ZZ=            -16.7267
   XY=             -0.0000   XZ=              0.0000   YZ=              0.0000

 Normal termination of Gaussian 09 at Thu Feb  9 16:13:56 2017.
