 Gaussian 09, Revision E.01,
 Gaussian 09:  ES64L-G09RevE.01 30-Nov-2015

 ----------------------------------------------------------------------
 #rhf/gen scf(symm,tight,novaracc,noincfock,fulldiag) stable(crhf) geom
 =nocrowd test
 ----------------------------------------------------------------------

 ----------------------------------------------------------------------
 hf stability analysis of h10 triangular lattice, y= 1.2930606134246510
 ----------------------------------------------------------------------
 Symbolic Z-matrix:
 Charge =  0 Multiplicity = 1

                         Standard orientation:
 ---------------------------------------------------------------------
 Center     Atomic      Atomic             Coordinates (Angstroms)
 Number     Number       Type             X           Y           Z
 ---------------------------------------------------------------------
      1          1           0       -0.000000    1.293061    0.892998
      2          1           0        0.000000   -0.000000    1.339497
      3          1           0        0.000000   -0.000000    0.446499
      4          1           0       -0.000000   -1.293061    0.892998
      5          1           0       -0.000000    1.293061    0.000000
      6          1           0       -0.000000   -1.293061   -0.000000
      7          1           0        0.000000    0.000000   -0.446499
      8          1           0        0.000000    1.293061   -0.892998
      9          1           0       -0.000000   -1.293061   -0.892998
     10          1           0        0.000000    0.000000   -1.339497
 ---------------------------------------------------------------------

 SCF Done:  E(RHF) =  -4.94373315139     A.U. after    8 cycles
 E2 =    -0.8930324925D-01 EUMP2 =    -0.50330364006375D+01

 The electronic state is 1-AG.
 Alpha  occ. eigenvalues --   -0.94721  -0.69686  -0.65285  -0.47754  -0.29822
 Alpha virt. eigenvalues --    0.03269   0.11774   0.59362   0.69759   0.78796

 Mulliken charges:
               1
     1  H   -0.078790
     2  H    0.290497
     3  H   -0.052462
     4  H   -0.078790
     5  H   -0.080456
     6  H   -0.080456
     7  H   -0.052462
     8  H   -0.078790
     9  H   -0.078790
    10  H    0.290497
 Sum of Mulliken charges =   0.00000

 Dipole moment (field-independent basis, Debye):
    X=              0.0000    Y=             -0.0000    Z=              0.0000  Tot=              0.0000
 Quadrupole moment (field-independent basis, Debye-Ang):
   XX=            -12.6130   YY=            -21.1537   ZZ=            -10.2791
   XY=             -0.0000   XZ=             -0.0000   YZ=             -0.0000

 Normal termination of Gaussian 09 at Thu Feb  9 16:24:52 2017.
