 Gaussian 09, Revision E.01,
 Gaussian 09:  ES64L-G09RevE.01 30-Nov-2015

 ----------------------------------------------------------------------
 #rhf/gen scf(symm,tight,novaracc,noincfock,fulldiag) stable(crhf) geom
 =nocrowd test
 ----------------------------------------------------------------------

 ----------------------------------------------------------------------
 hf stability analysis of h10 triangular lattice, y= 1.2750986286448989
 ----------------------------------------------------------------------
 Symbolic Z-matrix:
 Charge =  0 Multiplicity = 1

                         Standard orientation:
 ---------------------------------------------------------------------
 Center     Atomic      Atomic             Coordinates (Angstroms)
 Number     Number       Type             X           Y           Z
 ---------------------------------------------------------------------
      1          1           0        0.000000    1.275099    0.905577
      2          1           0       -0.000000   -0.000000    1.358366
      3          1           0       -0.000000   -0.000000    0.452789
      4          1           0       -0.000000   -1.275099    0.905577
      5          1           0       -0.000000    1.275099    0.000000
      6          1           0       -0.000000   -1.275099   -0.000000
      7          1           0        0.000000    0.000000   -0.452789
      8          1           0        0.000000    1.275099   -0.905577
      9          1           0       -0.000000   -1.275099   -0.905577
     10          1           0        0.000000    0.000000   -1.358366
 ---------------------------------------------------------------------

 SCF Done:  E(RHF) =  -4.93609762526     A.U. after    8 cycles
 E2 =    -0.9011128960D-01 EUMP2 =    -0.50262089148608D+01

 The electronic state is 1-AG.
 Alpha  occ. eigenvalues --   -0.94583  -0.69160  -0.65640  -0.46231  -0.30063
 Alpha virt. eigenvalues --    0.02290   0.12596   0.57799   0.67211   0.77953

 Mulliken charges:
               1
     1  H   -0.082211
     2  H    0.291595
     3  H   -0.048985
     4  H   -0.082211
     5  H   -0.078187
     6  H   -0.078187
     7  H   -0.048985
     8  H   -0.082211
     9  H   -0.082211
    10  H    0.291595
 Sum of Mulliken charges =   0.00000

 Dipole moment (field-independent basis, Debye):
    X=              0.0000    Y=             -0.0000    Z=              0.0000  Tot=              0.0000
 Quadrupole moment (field-independent basis, Debye-Ang):
   XX=            -12.6106   YY=            -21.2303   ZZ=            -10.0929
   XY=             -0.0000   XZ=             -0.0000   YZ=              0.0000

 Normal termination of Gaussian 09 at Thu Feb  9 16:24:31 2017.
