 Gaussian 09, Revision E.01,
 Gaussian 09:  ES64L-G09RevE.01 30-Nov-2015

 ----------------------------------------------------------------------
 #rhf/gen scf(symm,tight,novaracc,noincfock,fulldiag) stable(crhf) geom
 =nocrowd test
 ----------------------------------------------------------------------

 ----------------------------------------------------------------------
 hf stability analysis of h10 triangular lattice, y= 1.1894342271849665
 ----------------------------------------------------------------------
 Symbolic Z-matrix:
 Charge =  0 Multiplicity = 1

                         Standard orientation:
 ---------------------------------------------------------------------
 Center     Atomic      Atomic             Coordinates (Angstroms)
 Number     Number       Type             X           Y           Z
 ---------------------------------------------------------------------
      1          1           0       -0.000000    1.189434    0.970798
      2          1           0       -0.000000   -0.000000    1.456197
      3          1           0       -0.000000   -0.000000    0.485399
      4          1           0       -0.000000   -1.189434    0.970798
      5          1           0       -0.000000    1.189434    0.000000
      6          1           0       -0.000000   -1.189434   -0.000000
      7          1           0        0.000000    0.000000   -0.485399
      8          1           0        0.000000    1.189434   -0.970798
      9          1           0       -0.000000   -1.189434   -0.970798
     10          1           0        0.000000    0.000000   -1.456197
 ---------------------------------------------------------------------

 SCF Done:  E(RHF) =  -4.87037308418     A.U. after    9 cycles
 E2 =    -0.9800337924D-01 EUMP2 =    -0.49683764634231D+01

 The electronic state is 1-AG.
 Alpha  occ. eigenvalues --   -0.94119  -0.67488  -0.66626  -0.38557  -0.31010
 Alpha virt. eigenvalues --   -0.01991   0.16782   0.50107   0.55185   0.73809

 Mulliken charges:
               1
     1  H   -0.073887
     2  H    0.259748
     3  H   -0.015872
     4  H   -0.073887
     5  H   -0.096102
     6  H   -0.096102
     7  H   -0.015872
     8  H   -0.073887
     9  H   -0.073887
    10  H    0.259748
 Sum of Mulliken charges =   0.00000

 Dipole moment (field-independent basis, Debye):
    X=              0.0000    Y=             -0.0000    Z=              0.0000  Tot=              0.0000
 Quadrupole moment (field-independent basis, Debye-Ang):
   XX=            -12.5909   YY=            -21.1377   ZZ=             -9.6237
   XY=             -0.0000   XZ=             -0.0000   YZ=             -0.0000

 Normal termination of Gaussian 09 at Thu Feb  9 16:22:39 2017.
