 Gaussian 09, Revision E.01,
 Gaussian 09:  ES64L-G09RevE.01 30-Nov-2015

 ----------------------------------------------------------------------
 #rhf/gen scf(symm,tight,novaracc,noincfock,fulldiag) stable(crhf) geom
 =nocrowd test
 ----------------------------------------------------------------------

 hf stability analysis of h10 triangular lattice, y= 0.9556557294683085
 7
 ----------------------------------------------------------------------
 Symbolic Z-matrix:
 Charge =  0 Multiplicity = 1

                         Standard orientation:
 ---------------------------------------------------------------------
 Center     Atomic      Atomic             Coordinates (Angstroms)
 Number     Number       Type             X           Y           Z
 ---------------------------------------------------------------------
      1          1           0       -0.000000    0.955656    1.208281
      2          1           0       -0.000000   -0.000000    1.812421
      3          1           0       -0.000000   -0.000000    0.604140
      4          1           0       -0.000000   -0.955656    1.208281
      5          1           0       -0.000000    0.955656    0.000000
      6          1           0       -0.000000   -0.955656   -0.000000
      7          1           0        0.000000    0.000000   -0.604140
      8          1           0        0.000000    0.955656   -1.208281
      9          1           0       -0.000000   -0.955656   -1.208281
     10          1           0        0.000000    0.000000   -1.812421
 ---------------------------------------------------------------------

 SCF Done:  E(RHF) =  -4.96431236542     A.U. after    8 cycles
 E2 =    -0.9918347701D-01 EUMP2 =    -0.50634958424285D+01

 The electronic state is 1-AG.
 Alpha  occ. eigenvalues --   -0.96182  -0.73545  -0.58936  -0.42417  -0.33450
 Alpha virt. eigenvalues --    0.17008   0.17217   0.24174   0.43408   0.57442

 Mulliken charges:
               1
     1  H   -0.113460
     2  H    0.042422
     3  H    0.099198
     4  H   -0.113460
     5  H    0.085300
     6  H    0.085300
     7  H    0.099198
     8  H   -0.113460
     9  H   -0.113460
    10  H    0.042422
 Sum of Mulliken charges =  -0.00000

 Dipole moment (field-independent basis, Debye):
    X=              0.0000    Y=             -0.0000    Z=             -0.0000  Tot=              0.0000
 Quadrupole moment (field-independent basis, Debye-Ang):
   XX=            -12.8739   YY=            -16.0196   ZZ=            -17.7909
   XY=             -0.0000   XZ=              0.0000   YZ=             -0.0000

 Normal termination of Gaussian 09 at Thu Feb  9 16:15:37 2017.
