 Gaussian 09, Revision E.01,
 Gaussian 09:  ES64L-G09RevE.01 30-Nov-2015

 ----------------------------------------------------------------------
 #rhf/gen scf(symm,tight,novaracc,noincfock,fulldiag) stable(crhf) geom
 =nocrowd test
 ----------------------------------------------------------------------

 hf stability analysis of h10 triangular lattice, y= 0.9013383364020320
 9
 ----------------------------------------------------------------------
 Symbolic Z-matrix:
 Charge =  0 Multiplicity = 1

                         Standard orientation:
 ---------------------------------------------------------------------
 Center     Atomic      Atomic             Coordinates (Angstroms)
 Number     Number       Type             X           Y           Z
 ---------------------------------------------------------------------
      1          1           0       -0.000000    0.901338    1.281096
      2          1           0       -0.000000   -0.000000    1.921643
      3          1           0       -0.000000   -0.000000    0.640548
      4          1           0       -0.000000   -0.901338    1.281096
      5          1           0       -0.000000    0.901338    0.000000
      6          1           0       -0.000000   -0.901338   -0.000000
      7          1           0        0.000000    0.000000   -0.640548
      8          1           0        0.000000    0.901338   -1.281096
      9          1           0       -0.000000   -0.901338   -1.281096
     10          1           0        0.000000    0.000000   -1.921643
 ---------------------------------------------------------------------

 SCF Done:  E(RHF) =  -4.96819428383     A.U. after    8 cycles
 E2 =    -0.9712849287D-01 EUMP2 =    -0.50653227767037D+01

 The electronic state is 1-AG.
 Alpha  occ. eigenvalues --   -0.95240  -0.74354  -0.55978  -0.45318  -0.32476
 Alpha virt. eigenvalues --    0.11422   0.21014   0.25654   0.47893   0.52541

 Mulliken charges:
               1
     1  H   -0.136626
     2  H    0.091889
     3  H    0.099583
     4  H   -0.136626
     5  H    0.081779
     6  H    0.081779
     7  H    0.099583
     8  H   -0.136626
     9  H   -0.136626
    10  H    0.091889
 Sum of Mulliken charges =   0.00000

 Dipole moment (field-independent basis, Debye):
    X=              0.0000    Y=             -0.0000    Z=              0.0000  Tot=              0.0000
 Quadrupole moment (field-independent basis, Debye-Ang):
   XX=            -12.9107   YY=            -16.7558   ZZ=            -16.3722
   XY=             -0.0000   XZ=              0.0000   YZ=              0.0000

 Normal termination of Gaussian 09 at Thu Feb  9 16:13:25 2017.
