 Gaussian 09, Revision E.01,
 Gaussian 09:  ES64L-G09RevE.01 30-Nov-2015

 ----------------------------------------------------------------------
 #rhf/gen scf(symm,tight,novaracc,noincfock,fulldiag) stable(crhf) geom
 =nocrowd test
 ----------------------------------------------------------------------

 ----------------------------------------------------------------------
 hf stability analysis of h10 triangular lattice, y= 2.2338071410539140
 ----------------------------------------------------------------------
 Symbolic Z-matrix:
 Charge =  0 Multiplicity = 1

                         Standard orientation:
 ---------------------------------------------------------------------
 Center     Atomic      Atomic             Coordinates (Angstroms)
 Number     Number       Type             X           Y           Z
 ---------------------------------------------------------------------
      1          1           0       -0.000000    2.233807    0.516920
      2          1           0       -0.000000    0.000000    0.775381
      3          1           0       -0.000000    0.000000    0.258460
      4          1           0       -0.000000   -2.233807    0.516920
      5          1           0       -0.000000    2.233807   -0.000000
      6          1           0       -0.000000   -2.233807   -0.000000
      7          1           0        0.000000    0.000000   -0.258460
      8          1           0        0.000000    2.233807   -0.516920
      9          1           0       -0.000000   -2.233807   -0.516920
     10          1           0        0.000000    0.000000   -0.775381
 ---------------------------------------------------------------------

 SCF Done:  E(RHF) =  -3.57681326220     A.U. after    7 cycles
 E2 =    -0.2168232431D+00 EUMP2 =    -0.37936365052790D+01

 The electronic state is 1-AG.
 Alpha  occ. eigenvalues --   -1.04452  -0.89885  -0.89657  -0.54159  -0.14411
 Alpha virt. eigenvalues --   -0.01449   0.52006   1.38609   1.40398   2.23376

 Mulliken charges:
               1
     1  H    0.259562
     2  H    0.267469
     3  H   -0.251416
     4  H    0.259562
     5  H   -0.535177
     6  H   -0.535177
     7  H   -0.251416
     8  H    0.259562
     9  H    0.259562
    10  H    0.267469
 Sum of Mulliken charges =  -0.00000

 Dipole moment (field-independent basis, Debye):
    X=              0.0000    Y=              0.0000    Z=             -0.0000  Tot=              0.0000
 Quadrupole moment (field-independent basis, Debye-Ang):
   XX=            -12.2283   YY=            -14.1329   ZZ=            -14.6945
   XY=              0.0000   XZ=              0.0000   YZ=              0.0000

 Normal termination of Gaussian 09 at Thu Feb  9 16:33:31 2017.
