 Gaussian 09, Revision E.01,
 Gaussian 09:  ES64L-G09RevE.01 30-Nov-2015

 ----------------------------------------------------------------------
 #rhf/gen scf(symm,tight,novaracc,noincfock,fulldiag) stable(crhf) geom
 =nocrowd test
 ----------------------------------------------------------------------

 ----------------------------------------------------------------------
 hf stability analysis of h10 triangular lattice, y= 1.3079075690836115
 ----------------------------------------------------------------------
 Symbolic Z-matrix:
 Charge =  0 Multiplicity = 1

                         Standard orientation:
 ---------------------------------------------------------------------
 Center     Atomic      Atomic             Coordinates (Angstroms)
 Number     Number       Type             X           Y           Z
 ---------------------------------------------------------------------
      1          1           0        0.000000    1.307908    0.882861
      2          1           0        0.000000    0.000000    1.324292
      3          1           0        0.000000    0.000000    0.441430
      4          1           0       -0.000000   -1.307908    0.882861
      5          1           0       -0.000000    1.307908   -0.000000
      6          1           0       -0.000000   -1.307908    0.000000
      7          1           0        0.000000    0.000000   -0.441430
      8          1           0        0.000000    1.307908   -0.882861
      9          1           0       -0.000000   -1.307908   -0.882861
     10          1           0        0.000000    0.000000   -1.324292
 ---------------------------------------------------------------------

 SCF Done:  E(RHF) =  -4.94843238804     A.U. after    8 cycles
 E2 =    -0.8878900747D-01 EUMP2 =    -0.50372213955029D+01

 The electronic state is 1-AG.
 Alpha  occ. eigenvalues --   -0.94837  -0.70114  -0.64996  -0.48986  -0.29613
 Alpha virt. eigenvalues --    0.04086   0.11112   0.60652   0.71879   0.79495

 Mulliken charges:
               1
     1  H   -0.075417
     2  H    0.288908
     3  H   -0.055012
     4  H   -0.075417
     5  H   -0.083062
     6  H   -0.083062
     7  H   -0.055012
     8  H   -0.075417
     9  H   -0.075417
    10  H    0.288908
 Sum of Mulliken charges =  -0.00000

 Dipole moment (field-independent basis, Debye):
    X=              0.0000    Y=             -0.0000    Z=             -0.0000  Tot=              0.0000
 Quadrupole moment (field-independent basis, Debye-Ang):
   XX=            -12.6144   YY=            -21.0813   ZZ=            -10.4352
   XY=             -0.0000   XZ=             -0.0000   YZ=              0.0000

 Normal termination of Gaussian 09 at Thu Feb  9 16:25:09 2017.
