 Gaussian 09, Revision E.01,
 Gaussian 09:  ES64L-G09RevE.01 30-Nov-2015

 ----------------------------------------------------------------------
 #rhf/gen scf(symm,tight,novaracc,noincfock,fulldiag) stable(crhf) geom
 =nocrowd test
 ----------------------------------------------------------------------

 hf stability analysis of h10 triangular lattice, y= 0.8331796203003375
 4
 ----------------------------------------------------------------------
 Symbolic Z-matrix:
 Charge =  0 Multiplicity = 1

                         Standard orientation:
 ---------------------------------------------------------------------
 Center     Atomic      Atomic             Coordinates (Angstroms)
 Number     Number       Type             X           Y           Z
 ---------------------------------------------------------------------
      1          1           0       -0.000000    0.833180    1.385896
      2          1           0       -0.000000    0.000000    2.078844
      3          1           0       -0.000000    0.000000    0.692948
      4          1           0       -0.000000   -0.833180    1.385896
      5          1           0       -0.000000    0.833180    0.000000
      6          1           0       -0.000000   -0.833180    0.000000
      7          1           0        0.000000    0.000000   -0.692948
      8          1           0        0.000000    0.833180   -1.385896
      9          1           0       -0.000000   -0.833180   -1.385896
     10          1           0        0.000000    0.000000   -2.078844
 ---------------------------------------------------------------------

 SCF Done:  E(RHF) =  -4.93683387975     A.U. after    8 cycles
 E2 =    -0.9624256480D-01 EUMP2 =    -0.50330764445521D+01

 The electronic state is 1-AG.
 Alpha  occ. eigenvalues --   -0.93576  -0.74891  -0.51734  -0.48693  -0.30619
 Alpha virt. eigenvalues --    0.04523   0.17703   0.37525   0.45062   0.52859

 Mulliken charges:
               1
     1  H   -0.168538
     2  H    0.155896
     3  H    0.112818
     4  H   -0.168538
     5  H    0.068361
     6  H    0.068361
     7  H    0.112818
     8  H   -0.168538
     9  H   -0.168538
    10  H    0.155896
 Sum of Mulliken charges =  -0.00000

 Dipole moment (field-independent basis, Debye):
    X=              0.0000    Y=             -0.0000    Z=              0.0000  Tot=              0.0000
 Quadrupole moment (field-independent basis, Debye-Ang):
   XX=            -12.9558   YY=            -17.6503   ZZ=            -14.1595
   XY=             -0.0000   XZ=             -0.0000   YZ=             -0.0000

 Normal termination of Gaussian 09 at Thu Feb  9 16:10:22 2017.
