 Gaussian 09, Revision E.01,
 Gaussian 09:  ES64L-G09RevE.01 30-Nov-2015

 ----------------------------------------------------------------------
 #rhf/gen scf(symm,tight,novaracc,noincfock,fulldiag) stable(crhf) geom
 =nocrowd test
 ----------------------------------------------------------------------

 ----------------------------------------------------------------------
 hf stability analysis of h10 triangular lattice, y= 1.0420355127918348
 ----------------------------------------------------------------------
 Symbolic Z-matrix:
 Charge =  0 Multiplicity = 1

                         Standard orientation:
 ---------------------------------------------------------------------
 Center     Atomic      Atomic             Coordinates (Angstroms)
 Number     Number       Type             X           Y           Z
 ---------------------------------------------------------------------
      1          1           0       -0.000000    1.042035    1.108120
      2          1           0       -0.000000   -0.000000    1.662180
      3          1           0       -0.000000   -0.000000    0.554060
      4          1           0       -0.000000   -1.042035    1.108120
      5          1           0       -0.000000    1.042035    0.000000
      6          1           0       -0.000000   -1.042035   -0.000000
      7          1           0        0.000000    0.000000   -0.554060
      8          1           0        0.000000    1.042035   -1.108120
      9          1           0       -0.000000   -1.042035   -1.108120
     10          1           0        0.000000    0.000000   -1.662180
 ---------------------------------------------------------------------

 SCF Done:  E(RHF) =  -4.90773472734     A.U. after    9 cycles
 E2 =    -0.1049945184D+00 EUMP2 =    -0.50127292457135D+01

 The electronic state is 1-AG.
 Alpha  occ. eigenvalues --   -0.97134  -0.71791  -0.63017  -0.37512  -0.34249
 Alpha virt. eigenvalues --    0.04919   0.24810   0.29948   0.38622   0.63237

 Mulliken charges:
               1
     1  H   -0.075179
     2  H   -0.037242
     3  H    0.110716
     4  H   -0.075179
     5  H    0.076883
     6  H    0.076883
     7  H    0.110716
     8  H   -0.075179
     9  H   -0.075179
    10  H   -0.037242
 Sum of Mulliken charges =   0.00000

 Dipole moment (field-independent basis, Debye):
    X=             -0.0000    Y=             -0.0000    Z=              0.0000  Tot=              0.0000
 Quadrupole moment (field-independent basis, Debye-Ang):
   XX=            -12.8113   YY=            -14.7985   ZZ=            -19.5612
   XY=             -0.0000   XZ=              0.0000   YZ=             -0.0000

 Normal termination of Gaussian 09 at Thu Feb  9 16:18:33 2017.
