 Gaussian 09, Revision E.01,
 Gaussian 09:  ES64L-G09RevE.01 30-Nov-2015

 ----------------------------------------------------------------------
 #rhf/gen scf(symm,tight,novaracc,noincfock,fulldiag) stable(crhf) geom
 =nocrowd test
 ----------------------------------------------------------------------

 ----------------------------------------------------------------------
 hf stability analysis of h10 triangular lattice, y= 1.1089257086049120
 ----------------------------------------------------------------------
 Symbolic Z-matrix:
 Charge =  0 Multiplicity = 1

                         Standard orientation:
 ---------------------------------------------------------------------
 Center     Atomic      Atomic             Coordinates (Angstroms)
 Number     Number       Type             X           Y           Z
 ---------------------------------------------------------------------
      1          1           0        0.000000    1.108926    1.041279
      2          1           0       -0.000000   -0.000000    1.561918
      3          1           0       -0.000000   -0.000000    0.520639
      4          1           0       -0.000000   -1.108926    1.041279
      5          1           0       -0.000000    1.108926    0.000000
      6          1           0       -0.000000   -1.108926   -0.000000
      7          1           0        0.000000    0.000000   -0.520639
      8          1           0        0.000000    1.108926   -1.041279
      9          1           0       -0.000000   -1.108926   -1.041279
     10          1           0        0.000000    0.000000   -1.561918
 ---------------------------------------------------------------------

 SCF Done:  E(RHF) =  -4.82737401646     A.U. after   12 cycles
 E2 =    -0.1116564433D+00 EUMP2 =    -0.49390304597588D+01

 The electronic state is 1-AG.
 Alpha  occ. eigenvalues --   -0.97467  -0.70393  -0.65690  -0.33883  -0.33252
 Alpha virt. eigenvalues --   -0.03085   0.24014   0.35487   0.41995   0.66801

 Mulliken charges:
               1
     1  H    0.000409
     2  H   -0.123350
     3  H    0.134551
     4  H    0.000409
     5  H   -0.012020
     6  H   -0.012020
     7  H    0.134551
     8  H    0.000409
     9  H    0.000409
    10  H   -0.123350
 Sum of Mulliken charges =  -0.00000

 Dipole moment (field-independent basis, Debye):
    X=             -0.0000    Y=             -0.0000    Z=             -0.0000  Tot=              0.0000
 Quadrupole moment (field-independent basis, Debye-Ang):
   XX=            -12.7329   YY=            -14.0344   ZZ=            -19.9758
   XY=             -0.0000   XZ=              0.0000   YZ=             -0.0000

 Normal termination of Gaussian 09 at Thu Feb  9 16:20:34 2017.
