 Gaussian 09, Revision E.01,
 Gaussian 09:  ES64L-G09RevE.01 30-Nov-2015

 ----------------------------------------------------------------------
 #rhf/gen scf(symm,tight,novaracc,noincfock,fulldiag) stable(crhf) geom
 =nocrowd test
 ----------------------------------------------------------------------

 ----------------------------------------------------------------------
 hf stability analysis of h10 triangular lattice, y= 1.0365814879045478
 ----------------------------------------------------------------------
 Symbolic Z-matrix:
 Charge =  0 Multiplicity = 1

                         Standard orientation:
 ---------------------------------------------------------------------
 Center     Atomic      Atomic             Coordinates (Angstroms)
 Number     Number       Type             X           Y           Z
 ---------------------------------------------------------------------
      1          1           0       -0.000000    1.036581    1.113951
      2          1           0        0.000000    0.000000    1.670926
      3          1           0        0.000000    0.000000    0.556975
      4          1           0       -0.000000   -1.036581    1.113951
      5          1           0       -0.000000    1.036581    0.000000
      6          1           0       -0.000000   -1.036581    0.000000
      7          1           0        0.000000   -0.000000   -0.556975
      8          1           0        0.000000    1.036581   -1.113951
      9          1           0       -0.000000   -1.036581   -1.113951
     10          1           0        0.000000   -0.000000   -1.670926
 ---------------------------------------------------------------------

 SCF Done:  E(RHF) =  -4.91304124478     A.U. after    9 cycles
 E2 =    -0.1045288929D+00 EUMP2 =    -0.50175701376332D+01

 The electronic state is 1-AG.
 Alpha  occ. eigenvalues --   -0.97089  -0.71912  -0.62778  -0.37832  -0.34224
 Alpha virt. eigenvalues --    0.05628   0.24528   0.29559   0.38691   0.62931

 Mulliken charges:
               1
     1  H   -0.077948
     2  H   -0.031931
     3  H    0.109568
     4  H   -0.077948
     5  H    0.078259
     6  H    0.078259
     7  H    0.109568
     8  H   -0.077948
     9  H   -0.077948
    10  H   -0.031931
 Sum of Mulliken charges =  -0.00000

 Dipole moment (field-independent basis, Debye):
    X=              0.0000    Y=              0.0000    Z=             -0.0000  Tot=              0.0000
 Quadrupole moment (field-independent basis, Debye-Ang):
   XX=            -12.8155   YY=            -14.8778   ZZ=            -19.4651
   XY=             -0.0000   XZ=              0.0000   YZ=              0.0000

 Normal termination of Gaussian 09 at Thu Feb  9 16:18:23 2017.
