 Gaussian 09, Revision E.01,
 Gaussian 09:  ES64L-G09RevE.01 30-Nov-2015

 ----------------------------------------------------------------------
 #rhf/gen scf(symm,tight,novaracc,noincfock,fulldiag) stable(crhf) geom
 =nocrowd test
 ----------------------------------------------------------------------

 hf stability analysis of h10 triangular lattice, y= 0.8376326839306148
 5
 ----------------------------------------------------------------------
 Symbolic Z-matrix:
 Charge =  0 Multiplicity = 1

                         Standard orientation:
 ---------------------------------------------------------------------
 Center     Atomic      Atomic             Coordinates (Angstroms)
 Number     Number       Type             X           Y           Z
 ---------------------------------------------------------------------
      1          1           0       -0.000000    0.837633    1.378529
      2          1           0        0.000000   -0.000000    2.067793
      3          1           0        0.000000   -0.000000    0.689264
      4          1           0       -0.000000   -0.837633    1.378529
      5          1           0       -0.000000    0.837633    0.000000
      6          1           0       -0.000000   -0.837633    0.000000
      7          1           0        0.000000   -0.000000   -0.689264
      8          1           0        0.000000    0.837633   -1.378529
      9          1           0       -0.000000   -0.837633   -1.378529
     10          1           0        0.000000   -0.000000   -2.067793
 ---------------------------------------------------------------------

 SCF Done:  E(RHF) =  -4.94012887286     A.U. after    8 cycles
 E2 =    -0.9624243931D-01 EUMP2 =    -0.50363713121636D+01

 The electronic state is 1-AG.
 Alpha  occ. eigenvalues --   -0.93703  -0.74875  -0.52032  -0.48484  -0.30765
 Alpha virt. eigenvalues --    0.04952   0.17894   0.36750   0.45563   0.52592

 Mulliken charges:
               1
     1  H   -0.166310
     2  H    0.151630
     3  H    0.111384
     4  H   -0.166310
     5  H    0.069606
     6  H    0.069606
     7  H    0.111384
     8  H   -0.166310
     9  H   -0.166310
    10  H    0.151630
 Sum of Mulliken charges =  -0.00000

 Dipole moment (field-independent basis, Debye):
    X=              0.0000    Y=              0.0000    Z=              0.0000  Tot=              0.0000
 Quadrupole moment (field-independent basis, Debye-Ang):
   XX=            -12.9529   YY=            -17.5929   ZZ=            -14.3213
   XY=             -0.0000   XZ=             -0.0000   YZ=              0.0000

 Normal termination of Gaussian 09 at Thu Feb  9 16:10:35 2017.
