 Gaussian 09, Revision E.01,
 Gaussian 09:  ES64L-G09RevE.01 30-Nov-2015

 ----------------------------------------------------------------------
 #rhf/gen scf(symm,tight,novaracc,noincfock,fulldiag) stable(crhf) geom
 =nocrowd test
 ----------------------------------------------------------------------

 ----------------------------------------------------------------------
 hf stability analysis of h10 triangular lattice, y= 1.1620294322197784
 ----------------------------------------------------------------------
 Symbolic Z-matrix:
 Charge =  0 Multiplicity = 1

                         Standard orientation:
 ---------------------------------------------------------------------
 Center     Atomic      Atomic             Coordinates (Angstroms)
 Number     Number       Type             X           Y           Z
 ---------------------------------------------------------------------
      1          1           0       -0.000000    1.162029    0.993693
      2          1           0        0.000000    0.000000    1.490540
      3          1           0        0.000000    0.000000    0.496846
      4          1           0       -0.000000   -1.162029    0.993693
      5          1           0       -0.000000    1.162029   -0.000000
      6          1           0       -0.000000   -1.162029    0.000000
      7          1           0        0.000000   -0.000000   -0.496846
      8          1           0        0.000000    1.162029   -0.993693
      9          1           0       -0.000000   -1.162029   -0.993693
     10          1           0        0.000000   -0.000000   -1.490540
 ---------------------------------------------------------------------

 SCF Done:  E(RHF) =  -4.84192046529     A.U. after   10 cycles
 E2 =    -0.1027611459D+00 EUMP2 =    -0.49446816111646D+01

 The electronic state is 1-AG.
 Alpha  occ. eigenvalues --   -0.94280  -0.68227  -0.65923  -0.36056  -0.31280
 Alpha virt. eigenvalues --   -0.02965   0.18244   0.47182   0.51223   0.72244

 Mulliken charges:
               1
     1  H   -0.045528
     2  H    0.203709
     3  H    0.011665
     4  H   -0.045528
     5  H   -0.124317
     6  H   -0.124317
     7  H    0.011665
     8  H   -0.045528
     9  H   -0.045528
    10  H    0.203709
 Sum of Mulliken charges =  -0.00000

 Dipole moment (field-independent basis, Debye):
    X=              0.0000    Y=              0.0000    Z=             -0.0000  Tot=              0.0000
 Quadrupole moment (field-independent basis, Debye-Ang):
   XX=            -12.5854   YY=            -20.4747   ZZ=            -10.2478
   XY=             -0.0000   XZ=             -0.0000   YZ=             -0.0000

 Normal termination of Gaussian 09 at Thu Feb  9 16:21:59 2017.
