 Gaussian 09, Revision E.01,
 Gaussian 09:  ES64L-G09RevE.01 30-Nov-2015

 ----------------------------------------------------------------------
 #rhf/gen scf(symm,tight,novaracc,noincfock,fulldiag) stable(crhf) geom
 =nocrowd test
 ----------------------------------------------------------------------

 hf stability analysis of h10 triangular lattice, y= 0.9851084292399715
 5
 ----------------------------------------------------------------------
 Symbolic Z-matrix:
 Charge =  0 Multiplicity = 1

                         Standard orientation:
 ---------------------------------------------------------------------
 Center     Atomic      Atomic             Coordinates (Angstroms)
 Number     Number       Type             X           Y           Z
 ---------------------------------------------------------------------
      1          1           0       -0.000000    0.985108    1.172156
      2          1           0       -0.000000    0.000000    1.758234
      3          1           0       -0.000000    0.000000    0.586078
      4          1           0       -0.000000   -0.985108    1.172156
      5          1           0       -0.000000    0.985108    0.000000
      6          1           0       -0.000000   -0.985108    0.000000
      7          1           0        0.000000    0.000000   -0.586078
      8          1           0        0.000000    0.985108   -1.172156
      9          1           0       -0.000000   -0.985108   -1.172156
     10          1           0        0.000000    0.000000   -1.758234
 ---------------------------------------------------------------------

 SCF Done:  E(RHF) =  -4.95178014928     A.U. after    8 cycles
 E2 =    -0.1008035268D+00 EUMP2 =    -0.50525836760624D+01

 The electronic state is 1-AG.
 Alpha  occ. eigenvalues --   -0.96572  -0.72999  -0.60405  -0.40782  -0.33819
 Alpha virt. eigenvalues --    0.12670   0.20267   0.26049   0.41182   0.59668

 Mulliken charges:
               1
     1  H   -0.101100
     2  H    0.015792
     3  H    0.101611
     4  H   -0.101100
     5  H    0.084797
     6  H    0.084797
     7  H    0.101611
     8  H   -0.101100
     9  H   -0.101100
    10  H    0.015792
 Sum of Mulliken charges =   0.00000

 Dipole moment (field-independent basis, Debye):
    X=              0.0000    Y=              0.0000    Z=              0.0000  Tot=              0.0000
 Quadrupole moment (field-independent basis, Debye-Ang):
   XX=            -12.8533   YY=            -15.6110   ZZ=            -18.4556
   XY=             -0.0000   XZ=              0.0000   YZ=              0.0000

 Normal termination of Gaussian 09 at Thu Feb  9 16:16:37 2017.
