 Gaussian 09, Revision E.01,
 Gaussian 09:  ES64L-G09RevE.01 30-Nov-2015

 ----------------------------------------------------------------------
 #rhf/gen scf(symm,tight,novaracc,noincfock,fulldiag) stable(crhf) geom
 =nocrowd test
 ----------------------------------------------------------------------

 ----------------------------------------------------------------------
 hf stability analysis of h10 triangular lattice, y= 1.0952832261973782
 ----------------------------------------------------------------------
 Symbolic Z-matrix:
 Charge =  0 Multiplicity = 1

                         Standard orientation:
 ---------------------------------------------------------------------
 Center     Atomic      Atomic             Coordinates (Angstroms)
 Number     Number       Type             X           Y           Z
 ---------------------------------------------------------------------
      1          1           0       -0.000000    1.095283    1.054248
      2          1           0       -0.000000    0.000000    1.581373
      3          1           0       -0.000000    0.000000    0.527124
      4          1           0       -0.000000   -1.095283    1.054248
      5          1           0       -0.000000    1.095283   -0.000000
      6          1           0       -0.000000   -1.095283    0.000000
      7          1           0        0.000000   -0.000000   -0.527124
      8          1           0        0.000000    1.095283   -1.054248
      9          1           0       -0.000000   -1.095283   -1.054248
     10          1           0        0.000000   -0.000000   -1.581373
 ---------------------------------------------------------------------

 SCF Done:  E(RHF) =  -4.84523268497     A.U. after   10 cycles
 E2 =    -0.1103518491D+00 EUMP2 =    -0.49555845340488D+01

 The electronic state is 1-AG.
 Alpha  occ. eigenvalues --   -0.97491  -0.70625  -0.65220  -0.34240  -0.34212
 Alpha virt. eigenvalues --   -0.01620   0.24877   0.34006   0.40744   0.65977

 Mulliken charges:
               1
     1  H   -0.032653
     2  H   -0.099901
     3  H    0.127850
     4  H   -0.032653
     5  H    0.037356
     6  H    0.037356
     7  H    0.127850
     8  H   -0.032653
     9  H   -0.032653
    10  H   -0.099901
 Sum of Mulliken charges =   0.00000

 Dipole moment (field-independent basis, Debye):
    X=             -0.0000    Y=              0.0000    Z=              0.0000  Tot=              0.0000
 Quadrupole moment (field-independent basis, Debye-Ang):
   XX=            -12.7614   YY=            -14.0388   ZZ=            -20.2814
   XY=             -0.0000   XZ=              0.0000   YZ=             -0.0000

 Normal termination of Gaussian 09 at Thu Feb  9 16:20:11 2017.
