 Gaussian 09, Revision E.01,
 Gaussian 09:  ES64L-G09RevE.01 30-Nov-2015

 ----------------------------------------------------------------------
 #rhf/gen scf(symm,tight,novaracc,noincfock,fulldiag) stable(crhf) geom
 =nocrowd test
 ----------------------------------------------------------------------

 ----------------------------------------------------------------------
 hf stability analysis of h10 triangular lattice, y= 1.0184762030947627
 ----------------------------------------------------------------------
 Symbolic Z-matrix:
 Charge =  0 Multiplicity = 1

                         Standard orientation:
 ---------------------------------------------------------------------
 Center     Atomic      Atomic             Coordinates (Angstroms)
 Number     Number       Type             X           Y           Z
 ---------------------------------------------------------------------
      1          1           0        0.000000    1.018476    1.133753
      2          1           0        0.000000    0.000000    1.700630
      3          1           0        0.000000    0.000000    0.566877
      4          1           0       -0.000000   -1.018476    1.133753
      5          1           0       -0.000000    1.018476   -0.000000
      6          1           0       -0.000000   -1.018476    0.000000
      7          1           0        0.000000   -0.000000   -0.566877
      8          1           0        0.000000    1.018476   -1.133753
      9          1           0       -0.000000   -1.018476   -1.133753
     10          1           0        0.000000   -0.000000   -1.700630
 ---------------------------------------------------------------------

 SCF Done:  E(RHF) =  -4.92903962707     A.U. after    9 cycles
 E2 =    -0.1030837674D+00 EUMP2 =    -0.50321233944368D+01

 The electronic state is 1-AG.
 Alpha  occ. eigenvalues --   -0.96929  -0.72310  -0.61970  -0.38884  -0.34116
 Alpha virt. eigenvalues --    0.08031   0.23299   0.28293   0.39247   0.61865

 Mulliken charges:
               1
     1  H   -0.086546
     2  H   -0.014782
     3  H    0.106212
     4  H   -0.086546
     5  H    0.081662
     6  H    0.081662
     7  H    0.106212
     8  H   -0.086546
     9  H   -0.086546
    10  H   -0.014782
 Sum of Mulliken charges =  -0.00000

 Dipole moment (field-independent basis, Debye):
    X=              0.0000    Y=              0.0000    Z=             -0.0000  Tot=              0.0000
 Quadrupole moment (field-independent basis, Debye-Ang):
   XX=            -12.8292   YY=            -15.1388   ZZ=            -19.1311
   XY=             -0.0000   XZ=              0.0000   YZ=              0.0000

 Normal termination of Gaussian 09 at Thu Feb  9 16:17:46 2017.
