 Gaussian 09, Revision E.01,
 Gaussian 09:  ES64L-G09RevE.01 30-Nov-2015

 ----------------------------------------------------------------------
 #rhf/gen scf(symm,tight,novaracc,noincfock,fulldiag) stable(crhf) geom
 =nocrowd test
 ----------------------------------------------------------------------

 hf stability analysis of h10 triangular lattice, y= 0.9929956017537452
 4
 ----------------------------------------------------------------------
 Symbolic Z-matrix:
 Charge =  0 Multiplicity = 1

                         Standard orientation:
 ---------------------------------------------------------------------
 Center     Atomic      Atomic             Coordinates (Angstroms)
 Number     Number       Type             X           Y           Z
 ---------------------------------------------------------------------
      1          1           0       -0.000000    0.992996    1.162846
      2          1           0       -0.000000    0.000000    1.744268
      3          1           0       -0.000000    0.000000    0.581423
      4          1           0       -0.000000   -0.992996    1.162846
      5          1           0       -0.000000    0.992996    0.000000
      6          1           0       -0.000000   -0.992996    0.000000
      7          1           0        0.000000    0.000000   -0.581423
      8          1           0        0.000000    0.992996   -1.162846
      9          1           0       -0.000000   -0.992996   -1.162846
     10          1           0        0.000000    0.000000   -1.744268
 ---------------------------------------------------------------------

 SCF Done:  E(RHF) =  -4.94721179423     A.U. after    8 cycles
 E2 =    -0.1012991125D+00 EUMP2 =    -0.50485109067404D+01

 The electronic state is 1-AG.
 Alpha  occ. eigenvalues --   -0.96665  -0.72842  -0.60784  -0.40338  -0.33901
 Alpha virt. eigenvalues --    0.11548   0.21042   0.26568   0.40650   0.60217

 Mulliken charges:
               1
     1  H   -0.097745
     2  H    0.008631
     3  H    0.102523
     4  H   -0.097745
     5  H    0.084337
     6  H    0.084337
     7  H    0.102523
     8  H   -0.097745
     9  H   -0.097745
    10  H    0.008631
 Sum of Mulliken charges =  -0.00000

 Dipole moment (field-independent basis, Debye):
    X=              0.0000    Y=              0.0000    Z=             -0.0000  Tot=              0.0000
 Quadrupole moment (field-independent basis, Debye-Ang):
   XX=            -12.8477   YY=            -15.5003   ZZ=            -18.6225
   XY=             -0.0000   XZ=              0.0000   YZ=              0.0000

 Normal termination of Gaussian 09 at Thu Feb  9 16:16:54 2017.
