 Gaussian 09, Revision E.01,
 Gaussian 09:  ES64L-G09RevE.01 30-Nov-2015

 ----------------------------------------------------------------------
 #rhf/gen scf(symm,tight,novaracc,noincfock,fulldiag) stable(crhf) geom
 =nocrowd test
 ----------------------------------------------------------------------

 ----------------------------------------------------------------------
 hf stability analysis of h10 triangular lattice, y= 1.5941195507007735
 ----------------------------------------------------------------------
 Symbolic Z-matrix:
 Charge =  0 Multiplicity = 1

                         Standard orientation:
 ---------------------------------------------------------------------
 Center     Atomic      Atomic             Coordinates (Angstroms)
 Number     Number       Type             X           Y           Z
 ---------------------------------------------------------------------
      1          1           0       -0.000000    1.594120    0.724350
      2          1           0        0.000000    0.000000    1.086525
      3          1           0        0.000000    0.000000    0.362175
      4          1           0       -0.000000   -1.594120    0.724350
      5          1           0       -0.000000    1.594120   -0.000000
      6          1           0       -0.000000   -1.594120    0.000000
      7          1           0        0.000000   -0.000000   -0.362175
      8          1           0        0.000000    1.594120   -0.724350
      9          1           0       -0.000000   -1.594120   -0.724350
     10          1           0        0.000000   -0.000000   -1.086525
 ---------------------------------------------------------------------

 SCF Done:  E(RHF) =  -4.80348966255     A.U. after    7 cycles
 E2 =    -0.9914232193D-01 EUMP2 =    -0.49026319844753D+01

 The electronic state is 1-AG.
 Alpha  occ. eigenvalues --   -0.96807  -0.77334  -0.68202  -0.60032  -0.24728
 Alpha virt. eigenvalues --    0.01953   0.20121   0.85317   0.94730   1.15120

 Mulliken charges:
               1
     1  H    0.022536
     2  H    0.235594
     3  H   -0.096811
     4  H    0.022536
     5  H   -0.183855
     6  H   -0.183855
     7  H   -0.096811
     8  H    0.022536
     9  H    0.022536
    10  H    0.235594
 Sum of Mulliken charges =  -0.00000

 Dipole moment (field-independent basis, Debye):
    X=              0.0000    Y=              0.0000    Z=             -0.0000  Tot=              0.0000
 Quadrupole moment (field-independent basis, Debye-Ang):
   XX=            -12.5710   YY=            -18.9843   ZZ=            -12.8448
   XY=             -0.0000   XZ=             -0.0000   YZ=             -0.0000

 Normal termination of Gaussian 09 at Thu Feb  9 16:29:13 2017.
