 Gaussian 09, Revision E.01,
 Gaussian 09:  ES64L-G09RevE.01 30-Nov-2015

 ----------------------------------------------------------------------
 #rhf/gen scf(symm,tight,novaracc,noincfock,fulldiag) stable(crhf) geom
 =nocrowd test
 ----------------------------------------------------------------------

 ----------------------------------------------------------------------
 hf stability analysis of h10 triangular lattice, y= 1.2184637462790018
 ----------------------------------------------------------------------
 Symbolic Z-matrix:
 Charge =  0 Multiplicity = 1

                         Standard orientation:
 ---------------------------------------------------------------------
 Center     Atomic      Atomic             Coordinates (Angstroms)
 Number     Number       Type             X           Y           Z
 ---------------------------------------------------------------------
      1          1           0       -0.000000    1.218464    0.947669
      2          1           0       -0.000000    0.000000    1.421504
      3          1           0       -0.000000    0.000000    0.473835
      4          1           0       -0.000000   -1.218464    0.947669
      5          1           0       -0.000000    1.218464   -0.000000
      6          1           0       -0.000000   -1.218464   -0.000000
      7          1           0        0.000000   -0.000000   -0.473835
      8          1           0        0.000000    1.218464   -0.947669
      9          1           0       -0.000000   -1.218464   -0.947669
     10          1           0        0.000000   -0.000000   -1.421504
 ---------------------------------------------------------------------

 SCF Done:  E(RHF) =  -4.89779826774     A.U. after    9 cycles
 E2 =    -0.9436065537D-01 EUMP2 =    -0.49921589231018D+01

 The electronic state is 1-AG.
 Alpha  occ. eigenvalues --   -0.94201  -0.67470  -0.66816  -0.41216  -0.30728
 Alpha virt. eigenvalues --   -0.00660   0.15323   0.52808   0.59263   0.75270

 Mulliken charges:
               1
     1  H   -0.084306
     2  H    0.282697
     3  H   -0.032253
     4  H   -0.084306
     5  H   -0.081832
     6  H   -0.081832
     7  H   -0.032253
     8  H   -0.084306
     9  H   -0.084306
    10  H    0.282697
 Sum of Mulliken charges =  -0.00000

 Dipole moment (field-independent basis, Debye):
    X=              0.0000    Y=             -0.0000    Z=              0.0000  Tot=              0.0000
 Quadrupole moment (field-independent basis, Debye-Ang):
   XX=            -12.5988   YY=            -21.3215   ZZ=             -9.6168
   XY=             -0.0000   XZ=             -0.0000   YZ=             -0.0000

 Normal termination of Gaussian 09 at Thu Feb  9 16:23:19 2017.
