 Gaussian 09, Revision E.01,
 Gaussian 09:  ES64L-G09RevE.01 30-Nov-2015

 ----------------------------------------------------------------------
 #rhf/gen scf(symm,tight,novaracc,noincfock,fulldiag) stable(crhf) geom
 =nocrowd test
 ----------------------------------------------------------------------

 ----------------------------------------------------------------------
 hf stability analysis of h10 triangular lattice, y= 1.0050639437111659
 ----------------------------------------------------------------------
 Symbolic Z-matrix:
 Charge =  0 Multiplicity = 1

                         Standard orientation:
 ---------------------------------------------------------------------
 Center     Atomic      Atomic             Coordinates (Angstroms)
 Number     Number       Type             X           Y           Z
 ---------------------------------------------------------------------
      1          1           0        0.000000    1.005064    1.148883
      2          1           0        0.000000    0.000000    1.723324
      3          1           0        0.000000    0.000000    0.574441
      4          1           0       -0.000000   -1.005064    1.148883
      5          1           0       -0.000000    1.005064   -0.000000
      6          1           0       -0.000000   -1.005064    0.000000
      7          1           0        0.000000   -0.000000   -0.574441
      8          1           0        0.000000    1.005064   -1.148883
      9          1           0       -0.000000   -1.005064   -1.148883
     10          1           0        0.000000   -0.000000   -1.723324
 ---------------------------------------------------------------------

 SCF Done:  E(RHF) =  -4.93924884857     A.U. after    9 cycles
 E2 =    -0.1021089979D+00 EUMP2 =    -0.50413578464394D+01

 The electronic state is 1-AG.
 Alpha  occ. eigenvalues --   -0.96796  -0.72594  -0.61353  -0.39653  -0.34012
 Alpha virt. eigenvalues --    0.09862   0.22167   0.27376   0.39915   0.61021

 Mulliken charges:
               1
     1  H   -0.092529
     2  H   -0.002389
     3  H    0.104127
     4  H   -0.092529
     5  H    0.083319
     6  H    0.083319
     7  H    0.104127
     8  H   -0.092529
     9  H   -0.092529
    10  H   -0.002389
 Sum of Mulliken charges =  -0.00000

 Dipole moment (field-independent basis, Debye):
    X=              0.0000    Y=              0.0000    Z=             -0.0000  Tot=              0.0000
 Quadrupole moment (field-independent basis, Debye-Ang):
   XX=            -12.8390   YY=            -15.3299   ZZ=            -18.8690
   XY=             -0.0000   XZ=              0.0000   YZ=              0.0000

 Normal termination of Gaussian 09 at Thu Feb  9 16:17:19 2017.
