 Gaussian 09, Revision E.01,
 Gaussian 09:  ES64L-G09RevE.01 30-Nov-2015

 ----------------------------------------------------------------------
 #rhf/gen scf(symm,tight,novaracc,noincfock,fulldiag) stable(crhf) geom
 =nocrowd test
 ----------------------------------------------------------------------

 hf stability analysis of h10 triangular lattice, y= 0.7979527952382926
 6
 ----------------------------------------------------------------------
 Symbolic Z-matrix:
 Charge =  0 Multiplicity = 1

                         Standard orientation:
 ---------------------------------------------------------------------
 Center     Atomic      Atomic             Coordinates (Angstroms)
 Number     Number       Type             X           Y           Z
 ---------------------------------------------------------------------
      1          1           0        0.000000    0.797953    1.447079
      2          1           0        0.000000    0.000000    2.170618
      3          1           0        0.000000    0.000000    0.723539
      4          1           0       -0.000000   -0.797953    1.447079
      5          1           0       -0.000000    0.797953    0.000000
      6          1           0       -0.000000   -0.797953   -0.000000
      7          1           0        0.000000   -0.000000   -0.723539
      8          1           0        0.000000    0.797953   -1.447079
      9          1           0       -0.000000   -0.797953   -1.447079
     10          1           0        0.000000   -0.000000   -2.170618
 ---------------------------------------------------------------------

 SCF Done:  E(RHF) =  -4.90458063556     A.U. after    8 cycles
 E2 =    -0.9653738078D-01 EUMP2 =    -0.50011180163357D+01

 The electronic state is 1-AG.
 Alpha  occ. eigenvalues --   -0.92465  -0.74908  -0.50292  -0.49264  -0.29329
 Alpha virt. eigenvalues --    0.01273   0.16334   0.39615   0.45043   0.54520

 Mulliken charges:
               1
     1  H   -0.187039
     2  H    0.190089
     3  H    0.127674
     4  H   -0.187039
     5  H    0.056316
     6  H    0.056316
     7  H    0.127674
     8  H   -0.187039
     9  H   -0.187039
    10  H    0.190089
 Sum of Mulliken charges =  -0.00000

 Dipole moment (field-independent basis, Debye):
    X=              0.0000    Y=              0.0000    Z=              0.0000  Tot=              0.0000
 Quadrupole moment (field-independent basis, Debye-Ang):
   XX=            -12.9787   YY=            -18.0982   ZZ=            -12.7826
   XY=             -0.0000   XZ=             -0.0000   YZ=              0.0000

 Normal termination of Gaussian 09 at Thu Feb  9 16:08:39 2017.
