 Gaussian 09, Revision E.01,
 Gaussian 09:  ES64L-G09RevE.01 30-Nov-2015

 ----------------------------------------------------------------------
 #rhf/gen scf(symm,tight,novaracc,noincfock,fulldiag) stable(crhf) geom
 =nocrowd test
 ----------------------------------------------------------------------

 ----------------------------------------------------------------------
 hf stability analysis of h10 triangular lattice, y= 2.3738143243004877
 ----------------------------------------------------------------------
 Symbolic Z-matrix:
 Charge =  0 Multiplicity = 1

                         Standard orientation:
 ---------------------------------------------------------------------
 Center     Atomic      Atomic             Coordinates (Angstroms)
 Number     Number       Type             X           Y           Z
 ---------------------------------------------------------------------
      1          1           0       -0.000000    2.373814    0.486433
      2          1           0       -0.000000   -0.000000    0.729649
      3          1           0       -0.000000   -0.000000    0.243216
      4          1           0       -0.000000   -2.373814    0.486433
      5          1           0       -0.000000    2.373814    0.000000
      6          1           0       -0.000000   -2.373814   -0.000000
      7          1           0        0.000000    0.000000   -0.243216
      8          1           0        0.000000    2.373814   -0.486433
      9          1           0       -0.000000   -2.373814   -0.486433
     10          1           0        0.000000    0.000000   -0.729649
 ---------------------------------------------------------------------

 SCF Done:  E(RHF) =  -3.21972049806     A.U. after    7 cycles
 E2 =    -0.2476731152D+00 EUMP2 =    -0.34673936132626D+01

 The electronic state is 1-AG.
 Alpha  occ. eigenvalues --   -1.07185  -0.92220  -0.92215  -0.53617  -0.12481
 Alpha virt. eigenvalues --   -0.00703   0.57934   1.50223   1.51517   2.48734

 Mulliken charges:
               1
     1  H    0.309585
     2  H    0.305039
     3  H   -0.296023
     4  H    0.309585
     5  H   -0.628186
     6  H   -0.628186
     7  H   -0.296023
     8  H    0.309585
     9  H    0.309585
    10  H    0.305039
 Sum of Mulliken charges =  -0.00000

 Dipole moment (field-independent basis, Debye):
    X=              0.0000    Y=              0.0000    Z=             -0.0000  Tot=              0.0000
 Quadrupole moment (field-independent basis, Debye-Ang):
   XX=            -12.1483   YY=            -13.5312   ZZ=            -14.8427
   XY=              0.0000   XZ=              0.0000   YZ=              0.0000

 Normal termination of Gaussian 09 at Thu Feb  9 16:34:03 2017.
