 Gaussian 09, Revision E.01,
 Gaussian 09:  ES64L-G09RevE.01 30-Nov-2015

 ----------------------------------------------------------------------
 #rhf/gen scf(symm,tight,novaracc,noincfock,fulldiag) stable(crhf) geom
 =nocrowd test
 ----------------------------------------------------------------------

 ----------------------------------------------------------------------
 hf stability analysis of h10 triangular lattice, y= 2.3147672662825332
 ----------------------------------------------------------------------
 Symbolic Z-matrix:
 Charge =  0 Multiplicity = 1

                         Standard orientation:
 ---------------------------------------------------------------------
 Center     Atomic      Atomic             Coordinates (Angstroms)
 Number     Number       Type             X           Y           Z
 ---------------------------------------------------------------------
      1          1           0       -0.000000    2.314767    0.498841
      2          1           0        0.000000    0.000000    0.748261
      3          1           0        0.000000    0.000000    0.249420
      4          1           0       -0.000000   -2.314767    0.498841
      5          1           0       -0.000000    2.314767   -0.000000
      6          1           0       -0.000000   -2.314767    0.000000
      7          1           0        0.000000   -0.000000   -0.249420
      8          1           0        0.000000    2.314767   -0.498841
      9          1           0       -0.000000   -2.314767   -0.498841
     10          1           0        0.000000   -0.000000   -0.748261
 ---------------------------------------------------------------------

 SCF Done:  E(RHF) =  -3.37310071305     A.U. after    7 cycles
 E2 =    -0.2347285827D+00 EUMP2 =    -0.36078292957659D+01

 The electronic state is 1-AG.
 Alpha  occ. eigenvalues --   -1.06009  -0.91252  -0.91182  -0.53831  -0.13286
 Alpha virt. eigenvalues --   -0.01048   0.55468   1.45322   1.46803   2.37952

 Mulliken charges:
               1
     1  H    0.288408
     2  H    0.288290
     3  H   -0.276779
     4  H    0.288408
     5  H   -0.588327
     6  H   -0.588327
     7  H   -0.276779
     8  H    0.288408
     9  H    0.288408
    10  H    0.288290
 Sum of Mulliken charges =   0.00000

 Dipole moment (field-independent basis, Debye):
    X=              0.0000    Y=              0.0000    Z=             -0.0000  Tot=              0.0000
 Quadrupole moment (field-independent basis, Debye-Ang):
   XX=            -12.1817   YY=            -13.7653   ZZ=            -14.7847
   XY=              0.0000   XZ=              0.0000   YZ=             -0.0000

 Normal termination of Gaussian 09 at Thu Feb  9 16:33:51 2017.
