 Gaussian 09, Revision E.01,
 Gaussian 09:  ES64L-G09RevE.01 30-Nov-2015

 ----------------------------------------------------------------------
 #rhf/gen scf(symm,tight,novaracc,noincfock,fulldiag) stable(crhf) geom
 =nocrowd test
 ----------------------------------------------------------------------

 ----------------------------------------------------------------------
 hf stability analysis of h10 triangular lattice, y= 1.0656277502657008
 ----------------------------------------------------------------------
 Symbolic Z-matrix:
 Charge =  0 Multiplicity = 1

                         Standard orientation:
 ---------------------------------------------------------------------
 Center     Atomic      Atomic             Coordinates (Angstroms)
 Number     Number       Type             X           Y           Z
 ---------------------------------------------------------------------
      1          1           0        0.000000    1.065628    1.083587
      2          1           0        0.000000   -0.000000    1.625381
      3          1           0        0.000000   -0.000000    0.541794
      4          1           0       -0.000000   -1.065628    1.083587
      5          1           0       -0.000000    1.065628    0.000000
      6          1           0       -0.000000   -1.065628   -0.000000
      7          1           0        0.000000    0.000000   -0.541794
      8          1           0        0.000000    1.065628   -1.083587
      9          1           0       -0.000000   -1.065628   -1.083587
     10          1           0        0.000000    0.000000   -1.625381
 ---------------------------------------------------------------------

 SCF Done:  E(RHF) =  -4.88229231775     A.U. after   10 cycles
 E2 =    -0.1071819629D+00 EUMP2 =    -0.49894742806969D+01

 The electronic state is 1-AG.
 Alpha  occ. eigenvalues --   -0.97308  -0.71259  -0.64021  -0.36107  -0.34312
 Alpha virt. eigenvalues --    0.01933   0.25447   0.31668   0.38953   0.64490

 Mulliken charges:
               1
     1  H   -0.061440
     2  H   -0.061607
     3  H    0.116635
     4  H   -0.061440
     5  H    0.067852
     6  H    0.067852
     7  H    0.116635
     8  H   -0.061440
     9  H   -0.061440
    10  H   -0.061607
 Sum of Mulliken charges =  -0.00000

 Dipole moment (field-independent basis, Debye):
    X=             -0.0000    Y=              0.0000    Z=              0.0000  Tot=              0.0000
 Quadrupole moment (field-independent basis, Debye-Ang):
   XX=            -12.7920   YY=            -14.4525   ZZ=            -19.9483
   XY=             -0.0000   XZ=              0.0000   YZ=             -0.0000

 Normal termination of Gaussian 09 at Thu Feb  9 16:19:18 2017.
