 Gaussian 09, Revision E.01,
 Gaussian 09:  ES64L-G09RevE.01 30-Nov-2015

 ----------------------------------------------------------------------
 #rhf/gen scf(symm,tight,novaracc,noincfock,fulldiag) stable(crhf) geom
 =nocrowd test
 ----------------------------------------------------------------------

 hf stability analysis of h10 triangular lattice, y= 0.7800001708434697
 3
 ----------------------------------------------------------------------
 Symbolic Z-matrix:
 Charge =  0 Multiplicity = 1

                         Standard orientation:
 ---------------------------------------------------------------------
 Center     Atomic      Atomic             Coordinates (Angstroms)
 Number     Number       Type             X           Y           Z
 ---------------------------------------------------------------------
      1          1           0        0.000000    0.780000    1.480385
      2          1           0        0.000000    0.000000    2.220578
      3          1           0        0.000000    0.000000    0.740192
      4          1           0       -0.000000   -0.780000    1.480385
      5          1           0       -0.000000    0.780000    0.000000
      6          1           0       -0.000000   -0.780000   -0.000000
      7          1           0        0.000000    0.000000   -0.740192
      8          1           0        0.000000    0.780000   -1.480385
      9          1           0       -0.000000   -0.780000   -1.480385
     10          1           0        0.000000    0.000000   -2.220578
 ---------------------------------------------------------------------

 SCF Done:  E(RHF) =  -4.88389049722     A.U. after    8 cycles
 E2 =    -0.9689404663D-01 EUMP2 =    -0.49807845438472D+01

 The electronic state is 1-AG.
 Alpha  occ. eigenvalues --   -0.91825  -0.74837  -0.51060  -0.47921  -0.28573
 Alpha virt. eigenvalues --   -0.00279   0.15738   0.37422   0.48186   0.54996

 Mulliken charges:
               1
     1  H   -0.197122
     2  H    0.207813
     3  H    0.137914
     4  H   -0.197122
     5  H    0.048516
     6  H    0.048516
     7  H    0.137914
     8  H   -0.197122
     9  H   -0.197122
    10  H    0.207813
 Sum of Mulliken charges =   0.00000

 Dipole moment (field-independent basis, Debye):
    X=              0.0000    Y=              0.0000    Z=             -0.0000  Tot=              0.0000
 Quadrupole moment (field-independent basis, Debye-Ang):
   XX=            -12.9902   YY=            -18.3214   ZZ=            -12.0086
   XY=             -0.0000   XZ=             -0.0000   YZ=              0.0000

 Normal termination of Gaussian 09 at Thu Feb  9 16:07:43 2017.
