 Gaussian 09, Revision E.01,
 Gaussian 09:  ES64L-G09RevE.01 30-Nov-2015

 ----------------------------------------------------------------------
 #rhf/gen scf(symm,tight,novaracc,noincfock,fulldiag) stable(crhf) geom
 =nocrowd test
 ----------------------------------------------------------------------

 ----------------------------------------------------------------------
 hf stability analysis of h10 triangular lattice, y= 1.7234297938777567
 ----------------------------------------------------------------------
 Symbolic Z-matrix:
 Charge =  0 Multiplicity = 1

                         Standard orientation:
 ---------------------------------------------------------------------
 Center     Atomic      Atomic             Coordinates (Angstroms)
 Number     Number       Type             X           Y           Z
 ---------------------------------------------------------------------
      1          1           0        0.000000    1.723430    0.670002
      2          1           0        0.000000   -0.000000    1.005002
      3          1           0        0.000000   -0.000000    0.335001
      4          1           0       -0.000000   -1.723430    0.670002
      5          1           0       -0.000000    1.723430    0.000000
      6          1           0       -0.000000   -1.723430   -0.000000
      7          1           0        0.000000    0.000000   -0.335001
      8          1           0        0.000000    1.723430   -0.670002
      9          1           0       -0.000000   -1.723430   -0.670002
     10          1           0        0.000000    0.000000   -1.005002
 ---------------------------------------------------------------------

 SCF Done:  E(RHF) =  -4.62923428840     A.U. after    7 cycles
 E2 =    -0.1147615048D+00 EUMP2 =    -0.47439957931781D+01

 The electronic state is 1-AG.
 Alpha  occ. eigenvalues --   -0.97705  -0.80148  -0.74467  -0.58237  -0.22412
 Alpha virt. eigenvalues --   -0.00186   0.27194   0.96244   1.02905   1.35954

 Mulliken charges:
               1
     1  H    0.072249
     2  H    0.220262
     3  H   -0.120887
     4  H    0.072249
     5  H   -0.243873
     6  H   -0.243873
     7  H   -0.120887
     8  H    0.072249
     9  H    0.072249
    10  H    0.220262
 Sum of Mulliken charges =  -0.00000

 Dipole moment (field-independent basis, Debye):
    X=              0.0000    Y=              0.0000    Z=             -0.0000  Tot=              0.0000
 Quadrupole moment (field-independent basis, Debye-Ang):
   XX=            -12.5169   YY=            -17.8404   ZZ=            -13.5022
   XY=             -0.0000   XZ=              0.0000   YZ=             -0.0000

 Normal termination of Gaussian 09 at Thu Feb  9 16:30:28 2017.
