 Gaussian 09, Revision E.01,
 Gaussian 09:  ES64L-G09RevE.01 30-Nov-2015

 ----------------------------------------------------------------------
 #rhf/gen scf(symm,tight,novaracc,noincfock,fulldiag) stable(crhf) geom
 =nocrowd test
 ----------------------------------------------------------------------

 ----------------------------------------------------------------------
 hf stability analysis of h10 triangular lattice, y= 1.9367771983277440
 ----------------------------------------------------------------------
 Symbolic Z-matrix:
 Charge =  0 Multiplicity = 1

                         Standard orientation:
 ---------------------------------------------------------------------
 Center     Atomic      Atomic             Coordinates (Angstroms)
 Number     Number       Type             X           Y           Z
 ---------------------------------------------------------------------
      1          1           0        0.000000    1.936777    0.596197
      2          1           0        0.000000    0.000000    0.894295
      3          1           0        0.000000    0.000000    0.298098
      4          1           0       -0.000000   -1.936777    0.596197
      5          1           0       -0.000000    1.936777   -0.000000
      6          1           0       -0.000000   -1.936777    0.000000
      7          1           0        0.000000   -0.000000   -0.298098
      8          1           0        0.000000    1.936777   -0.596197
      9          1           0       -0.000000   -1.936777   -0.596197
     10          1           0        0.000000   -0.000000   -0.894295
 ---------------------------------------------------------------------

 SCF Done:  E(RHF) =  -4.24684829831     A.U. after    7 cycles
 E2 =    -0.1523978476D+00 EUMP2 =    -0.43992461459560D+01

 The electronic state is 1-AG.
 Alpha  occ. eigenvalues --   -0.99777  -0.84458  -0.82341  -0.55992  -0.18838
 Alpha virt. eigenvalues --   -0.01784   0.38244   1.14017   1.17782   1.71611

 Mulliken charges:
               1
     1  H    0.152745
     2  H    0.219417
     3  H   -0.169024
     4  H    0.152745
     5  H   -0.355883
     6  H   -0.355883
     7  H   -0.169024
     8  H    0.152745
     9  H    0.152745
    10  H    0.219417
 Sum of Mulliken charges =  -0.00000

 Dipole moment (field-independent basis, Debye):
    X=              0.0000    Y=              0.0000    Z=             -0.0000  Tot=              0.0000
 Quadrupole moment (field-independent basis, Debye-Ang):
   XX=            -12.4025   YY=            -16.0250   ZZ=            -14.1905
   XY=             -0.0000   XZ=              0.0000   YZ=              0.0000

 Normal termination of Gaussian 09 at Thu Feb  9 16:32:02 2017.
