 Gaussian 09, Revision E.01,
 Gaussian 09:  ES64L-G09RevE.01 30-Nov-2015

 ----------------------------------------------------------------------
 #rhf/gen scf(symm,tight,novaracc,noincfock,fulldiag) stable(crhf) geom
 =nocrowd test
 ----------------------------------------------------------------------

 ----------------------------------------------------------------------
 hf stability analysis of h10 triangular lattice, y= 1.3720607026010270
 ----------------------------------------------------------------------
 Symbolic Z-matrix:
 Charge =  0 Multiplicity = 1

                         Standard orientation:
 ---------------------------------------------------------------------
 Center     Atomic      Atomic             Coordinates (Angstroms)
 Number     Number       Type             X           Y           Z
 ---------------------------------------------------------------------
      1          1           0        0.000000    1.372061    0.841581
      2          1           0       -0.000000    0.000000    1.262372
      3          1           0       -0.000000    0.000000    0.420791
      4          1           0       -0.000000   -1.372061    0.841581
      5          1           0       -0.000000    1.372061    0.000000
      6          1           0       -0.000000   -1.372061    0.000000
      7          1           0        0.000000    0.000000   -0.420791
      8          1           0        0.000000    1.372061   -0.841581
      9          1           0       -0.000000   -1.372061   -0.841581
     10          1           0        0.000000    0.000000   -1.262372
 ---------------------------------------------------------------------

 SCF Done:  E(RHF) =  -4.95278825064     A.U. after    8 cycles
 E2 =    -0.8793955906D-01 EUMP2 =    -0.50407278096982D+01

 The electronic state is 1-AG.
 Alpha  occ. eigenvalues --   -0.95325  -0.71898  -0.63784  -0.54029  -0.28632
 Alpha virt. eigenvalues --    0.07666   0.08462   0.66216   0.81183   0.82585

 Mulliken charges:
               1
     1  H   -0.057279
     2  H    0.278218
     3  H   -0.064336
     4  H   -0.057279
     5  H   -0.099324
     6  H   -0.099324
     7  H   -0.064336
     8  H   -0.057279
     9  H   -0.057279
    10  H    0.278218
 Sum of Mulliken charges =   0.00000

 Dipole moment (field-independent basis, Debye):
    X=              0.0000    Y=             -0.0000    Z=             -0.0000  Tot=              0.0000
 Quadrupole moment (field-independent basis, Debye-Ang):
   XX=            -12.6161   YY=            -20.7052   ZZ=            -11.0936
   XY=             -0.0000   XZ=             -0.0000   YZ=             -0.0000

 Normal termination of Gaussian 09 at Thu Feb  9 16:26:15 2017.
