 Gaussian 09, Revision E.01,
 Gaussian 09:  ES64L-G09RevE.01 30-Nov-2015

 ----------------------------------------------------------------------
 #rhf/gen scf(symm,tight,novaracc,noincfock,fulldiag) stable(crhf) geom
 =nocrowd test
 ----------------------------------------------------------------------

 hf stability analysis of h10 triangular lattice, y= 0.9437914524525230
 5
 ----------------------------------------------------------------------
 Symbolic Z-matrix:
 Charge =  0 Multiplicity = 1

                         Standard orientation:
 ---------------------------------------------------------------------
 Center     Atomic      Atomic             Coordinates (Angstroms)
 Number     Number       Type             X           Y           Z
 ---------------------------------------------------------------------
      1          1           0        0.000000    0.943791    1.223470
      2          1           0        0.000000    0.000000    1.835205
      3          1           0        0.000000    0.000000    0.611735
      4          1           0       -0.000000   -0.943791    1.223470
      5          1           0       -0.000000    0.943791   -0.000000
      6          1           0       -0.000000   -0.943791    0.000000
      7          1           0        0.000000   -0.000000   -0.611735
      8          1           0        0.000000    0.943791   -1.223470
      9          1           0       -0.000000   -0.943791   -1.223470
     10          1           0        0.000000   -0.000000   -1.835205
 ---------------------------------------------------------------------

 SCF Done:  E(RHF) =  -4.96731057012     A.U. after    8 cycles
 E2 =    -0.9863213210D-01 EUMP2 =    -0.50659427022231D+01

 The electronic state is 1-AG.
 Alpha  occ. eigenvalues --   -0.96002  -0.73745  -0.58318  -0.43064  -0.33271
 Alpha virt. eigenvalues --    0.15952   0.18824   0.23449   0.44371   0.56461

 Mulliken charges:
               1
     1  H   -0.118435
     2  H    0.053157
     3  H    0.098701
     4  H   -0.118435
     5  H    0.085012
     6  H    0.085012
     7  H    0.098701
     8  H   -0.118435
     9  H   -0.118435
    10  H    0.053157
 Sum of Mulliken charges =  -0.00000

 Dipole moment (field-independent basis, Debye):
    X=              0.0000    Y=             -0.0000    Z=             -0.0000  Tot=              0.0000
 Quadrupole moment (field-independent basis, Debye-Ang):
   XX=            -12.8820   YY=            -16.1823   ZZ=            -17.5035
   XY=             -0.0000   XZ=              0.0000   YZ=             -0.0000

 Normal termination of Gaussian 09 at Thu Feb  9 16:15:09 2017.
