 Gaussian 09, Revision E.01,
 Gaussian 09:  ES64L-G09RevE.01 30-Nov-2015

 ----------------------------------------------------------------------
 #rhf/gen scf(symm,tight,novaracc,noincfock,fulldiag) stable(crhf) geom
 =nocrowd test
 ----------------------------------------------------------------------

 hf stability analysis of h10 triangular lattice, y= 0.9330752598533488
 3
 ----------------------------------------------------------------------
 Symbolic Z-matrix:
 Charge =  0 Multiplicity = 1

                         Standard orientation:
 ---------------------------------------------------------------------
 Center     Atomic      Atomic             Coordinates (Angstroms)
 Number     Number       Type             X           Y           Z
 ---------------------------------------------------------------------
      1          1           0        0.000000    0.933075    1.237521
      2          1           0        0.000000    0.000000    1.856282
      3          1           0        0.000000    0.000000    0.618761
      4          1           0       -0.000000   -0.933075    1.237521
      5          1           0       -0.000000    0.933075    0.000000
      6          1           0       -0.000000   -0.933075   -0.000000
      7          1           0        0.000000   -0.000000   -0.618761
      8          1           0        0.000000    0.933075   -1.237521
      9          1           0       -0.000000   -0.933075   -1.237521
     10          1           0        0.000000   -0.000000   -1.856282
 ---------------------------------------------------------------------

 SCF Done:  E(RHF) =  -4.96899237262     A.U. after    8 cycles
 E2 =    -0.9818356544D-01 EUMP2 =    -0.50671759380644D+01

 The electronic state is 1-AG.
 Alpha  occ. eigenvalues --   -0.95827  -0.73916  -0.57747  -0.43642  -0.33094
 Alpha virt. eigenvalues --    0.14805   0.20498   0.22811   0.45257   0.55533

 Mulliken charges:
               1
     1  H   -0.122956
     2  H    0.062877
     3  H    0.098511
     4  H   -0.122956
     5  H    0.084523
     6  H    0.084523
     7  H    0.098511
     8  H   -0.122956
     9  H   -0.122956
    10  H    0.062877
 Sum of Mulliken charges =   0.00000

 Dipole moment (field-independent basis, Debye):
    X=              0.0000    Y=              0.0000    Z=              0.0000  Tot=              0.0000
 Quadrupole moment (field-independent basis, Debye-Ang):
   XX=            -12.8893   YY=            -16.3282   ZZ=            -17.2335
   XY=             -0.0000   XZ=              0.0000   YZ=             -0.0000

 Normal termination of Gaussian 09 at Thu Feb  9 16:14:44 2017.
