 Gaussian 09, Revision E.01,
 Gaussian 09:  ES64L-G09RevE.01 30-Nov-2015

 ----------------------------------------------------------------------
 #rhf/gen scf(symm,tight,novaracc,noincfock,fulldiag) stable(crhf) geom
 =nocrowd test
 ----------------------------------------------------------------------

 hf stability analysis of h10 triangular lattice, y= 0.7691767212620449
 5
 ----------------------------------------------------------------------
 Symbolic Z-matrix:
 Charge =  0 Multiplicity = 1

                         Standard orientation:
 ---------------------------------------------------------------------
 Center     Atomic      Atomic             Coordinates (Angstroms)
 Number     Number       Type             X           Y           Z
 ---------------------------------------------------------------------
      1          1           0        0.000000    0.769177    1.501216
      2          1           0       -0.000000   -0.000000    2.251824
      3          1           0       -0.000000   -0.000000    0.750608
      4          1           0       -0.000000   -0.769177    1.501216
      5          1           0       -0.000000    0.769177    0.000000
      6          1           0       -0.000000   -0.769177   -0.000000
      7          1           0        0.000000    0.000000   -0.750608
      8          1           0        0.000000    0.769177   -1.501216
      9          1           0       -0.000000   -0.769177   -1.501216
     10          1           0        0.000000    0.000000   -2.251824
 ---------------------------------------------------------------------

 SCF Done:  E(RHF) =  -4.87001480714     A.U. after    8 cycles
 E2 =    -0.9717926721D-01 EUMP2 =    -0.49671940743481D+01

 The electronic state is 1-AG.
 Alpha  occ. eigenvalues --   -0.91414  -0.74766  -0.51507  -0.47081  -0.28081
 Alpha virt. eigenvalues --   -0.01179   0.15415   0.35965   0.50161   0.55139

 Mulliken charges:
               1
     1  H   -0.203429
     2  H    0.218590
     3  H    0.145053
     4  H   -0.203429
     5  H    0.043215
     6  H    0.043215
     7  H    0.145053
     8  H   -0.203429
     9  H   -0.203429
    10  H    0.218590
 Sum of Mulliken charges =   0.00000

 Dipole moment (field-independent basis, Debye):
    X=              0.0000    Y=              0.0000    Z=              0.0000  Tot=              0.0000
 Quadrupole moment (field-independent basis, Debye-Ang):
   XX=            -12.9970   YY=            -18.4541   ZZ=            -11.5162
   XY=             -0.0000   XZ=             -0.0000   YZ=              0.0000

 Normal termination of Gaussian 09 at Thu Feb  9 16:07:09 2017.
