 Gaussian 09, Revision E.01,
 Gaussian 09:  ES64L-G09RevE.01 30-Nov-2015

 ----------------------------------------------------------------------
 #rhf/gen scf(symm,tight,novaracc,noincfock,fulldiag) stable(crhf) geom
 =nocrowd test
 ----------------------------------------------------------------------

 ----------------------------------------------------------------------
 hf stability analysis of h10 triangular lattice, y= 2.3243073241259733
 ----------------------------------------------------------------------
 Symbolic Z-matrix:
 Charge =  0 Multiplicity = 1

                         Standard orientation:
 ---------------------------------------------------------------------
 Center     Atomic      Atomic             Coordinates (Angstroms)
 Number     Number       Type             X           Y           Z
 ---------------------------------------------------------------------
      1          1           0       -0.000000    2.324307    0.496793
      2          1           0        0.000000    0.000000    0.745190
      3          1           0        0.000000    0.000000    0.248397
      4          1           0       -0.000000   -2.324307    0.496793
      5          1           0       -0.000000    2.324307   -0.000000
      6          1           0       -0.000000   -2.324307    0.000000
      7          1           0        0.000000   -0.000000   -0.248397
      8          1           0        0.000000    2.324307   -0.496793
      9          1           0       -0.000000   -2.324307   -0.496793
     10          1           0        0.000000   -0.000000   -0.745190
 ---------------------------------------------------------------------

 SCF Done:  E(RHF) =  -3.34858555061     A.U. after    7 cycles
 E2 =    -0.2368274976D+00 EUMP2 =    -0.35854130482397D+01

 The electronic state is 1-AG.
 Alpha  occ. eigenvalues --   -1.06197  -0.91410  -0.91353  -0.53795  -0.13155
 Alpha virt. eigenvalues --   -0.00995   0.55870   1.46114   1.47562   2.39685

 Mulliken charges:
               1
     1  H    0.291820
     2  H    0.290912
     3  H   -0.279846
     4  H    0.291820
     5  H   -0.594705
     6  H   -0.594705
     7  H   -0.279846
     8  H    0.291820
     9  H    0.291820
    10  H    0.290912
 Sum of Mulliken charges =   0.00000

 Dipole moment (field-independent basis, Debye):
    X=              0.0000    Y=              0.0000    Z=             -0.0000  Tot=              0.0000
 Quadrupole moment (field-independent basis, Debye-Ang):
   XX=            -12.1763   YY=            -13.7256   ZZ=            -14.7944
   XY=              0.0000   XZ=              0.0000   YZ=              0.0000

 Normal termination of Gaussian 09 at Thu Feb  9 16:33:53 2017.
