 Gaussian 09, Revision E.01,
 Gaussian 09:  ES64L-G09RevE.01 30-Nov-2015

 ----------------------------------------------------------------------
 #rhf/gen scf(symm,tight,novaracc,noincfock,fulldiag) stable(crhf) geom
 =nocrowd test
 ----------------------------------------------------------------------

 ----------------------------------------------------------------------
 hf stability analysis of h10 triangular lattice, y= 1.2646232227946819
 ----------------------------------------------------------------------
 Symbolic Z-matrix:
 Charge =  0 Multiplicity = 1

                         Standard orientation:
 ---------------------------------------------------------------------
 Center     Atomic      Atomic             Coordinates (Angstroms)
 Number     Number       Type             X           Y           Z
 ---------------------------------------------------------------------
      1          1           0       -0.000000    1.264623    0.913079
      2          1           0       -0.000000   -0.000000    1.369618
      3          1           0       -0.000000   -0.000000    0.456539
      4          1           0       -0.000000   -1.264623    0.913079
      5          1           0       -0.000000    1.264623    0.000000
      6          1           0       -0.000000   -1.264623   -0.000000
      7          1           0        0.000000    0.000000   -0.456539
      8          1           0        0.000000    1.264623   -0.913079
      9          1           0       -0.000000   -1.264623   -0.913079
     10          1           0        0.000000    0.000000   -1.369618
 ---------------------------------------------------------------------

 SCF Done:  E(RHF) =  -4.93064314032     A.U. after    8 cycles
 E2 =    -0.9068606567D-01 EUMP2 =    -0.50213292059890D+01

 The electronic state is 1-AG.
 Alpha  occ. eigenvalues --   -0.94504  -0.68850  -0.65849  -0.45326  -0.30197
 Alpha virt. eigenvalues --    0.01725   0.13087   0.56886   0.65732   0.77462

 Mulliken charges:
               1
     1  H   -0.083778
     2  H    0.291667
     3  H   -0.046687
     4  H   -0.083778
     5  H   -0.077424
     6  H   -0.077424
     7  H   -0.046687
     8  H   -0.083778
     9  H   -0.083778
    10  H    0.291667
 Sum of Mulliken charges =  -0.00000

 Dipole moment (field-independent basis, Debye):
    X=              0.0000    Y=             -0.0000    Z=              0.0000  Tot=              0.0000
 Quadrupole moment (field-independent basis, Debye-Ang):
   XX=            -12.6089   YY=            -21.2679   ZZ=             -9.9876
   XY=             -0.0000   XZ=             -0.0000   YZ=             -0.0000

 Normal termination of Gaussian 09 at Thu Feb  9 16:24:18 2017.
