 Gaussian 09, Revision E.01,
 Gaussian 09:  ES64L-G09RevE.01 30-Nov-2015

 ----------------------------------------------------------------------
 #rhf/gen scf(symm,tight,novaracc,noincfock,fulldiag) stable(crhf) geom
 =nocrowd test
 ----------------------------------------------------------------------

 ----------------------------------------------------------------------
 hf stability analysis of h10 triangular lattice, y= 1.0000000336490449
 ----------------------------------------------------------------------
 Symbolic Z-matrix:
 Charge =  0 Multiplicity = 1

                         Standard orientation:
 ---------------------------------------------------------------------
 Center     Atomic      Atomic             Coordinates (Angstroms)
 Number     Number       Type             X           Y           Z
 ---------------------------------------------------------------------
      1          1           0       -0.000000    1.000000    1.154701
      2          1           0        0.000000    0.000000    1.732051
      3          1           0        0.000000    0.000000    0.577350
      4          1           0       -0.000000   -1.000000    1.154701
      5          1           0       -0.000000    1.000000   -0.000000
      6          1           0       -0.000000   -1.000000   -0.000000
      7          1           0        0.000000    0.000000   -0.577350
      8          1           0        0.000000    1.000000   -1.154701
      9          1           0       -0.000000   -1.000000   -1.154701
     10          1           0        0.000000    0.000000   -1.732051
 ---------------------------------------------------------------------

 SCF Done:  E(RHF) =  -4.94273247715     A.U. after    9 cycles
 E2 =    -0.1017615094D+00 EUMP2 =    -0.50444939865279D+01

 The electronic state is 1-AG.
 Alpha  occ. eigenvalues --   -0.96742  -0.72699  -0.61116  -0.39941  -0.33967
 Alpha virt. eigenvalues --    0.10565   0.21705   0.27035   0.40210   0.60689

 Mulliken charges:
               1
     1  H   -0.094733
     2  H    0.002246
     3  H    0.103423
     4  H   -0.094733
     5  H    0.083796
     6  H    0.083796
     7  H    0.103423
     8  H   -0.094733
     9  H   -0.094733
    10  H    0.002246
 Sum of Mulliken charges =   0.00000

 Dipole moment (field-independent basis, Debye):
    X=              0.0000    Y=              0.0000    Z=              0.0000  Tot=              0.0000
 Quadrupole moment (field-independent basis, Debye-Ang):
   XX=            -12.8426   YY=            -15.4016   ZZ=            -18.7668
   XY=             -0.0000   XZ=              0.0000   YZ=              0.0000

 Normal termination of Gaussian 09 at Thu Feb  9 16:17:09 2017.
