 Gaussian 09, Revision E.01,
 Gaussian 09:  ES64L-G09RevE.01 30-Nov-2015

 ----------------------------------------------------------------------
 #rhf/gen scf(symm,tight,novaracc,noincfock,fulldiag) stable(crhf) geom
 =nocrowd test
 ----------------------------------------------------------------------

 ----------------------------------------------------------------------
 hf stability analysis of h10 triangular lattice, y= 1.7958072101087128
 ----------------------------------------------------------------------
 Symbolic Z-matrix:
 Charge =  0 Multiplicity = 1

                         Standard orientation:
 ---------------------------------------------------------------------
 Center     Atomic      Atomic             Coordinates (Angstroms)
 Number     Number       Type             X           Y           Z
 ---------------------------------------------------------------------
      1          1           0        0.000000    1.795807    0.642998
      2          1           0       -0.000000    0.000000    0.964497
      3          1           0       -0.000000    0.000000    0.321499
      4          1           0       -0.000000   -1.795807    0.642998
      5          1           0       -0.000000    1.795807   -0.000000
      6          1           0       -0.000000   -1.795807    0.000000
      7          1           0        0.000000   -0.000000   -0.321499
      8          1           0        0.000000    1.795807   -0.642998
      9          1           0       -0.000000   -1.795807   -0.642998
     10          1           0        0.000000   -0.000000   -0.964497
 ---------------------------------------------------------------------

 SCF Done:  E(RHF) =  -4.51109112651     A.U. after    7 cycles
 E2 =    -0.1260956010D+00 EUMP2 =    -0.46371867275554D+01

 The electronic state is 1-AG.
 Alpha  occ. eigenvalues --   -0.98302  -0.81651  -0.77449  -0.57374  -0.21160
 Alpha virt. eigenvalues --   -0.00963   0.31043   1.02301   1.07781   1.47892

 Mulliken charges:
               1
     1  H    0.099932
     2  H    0.216399
     3  H   -0.136106
     4  H    0.099932
     5  H   -0.280156
     6  H   -0.280156
     7  H   -0.136106
     8  H    0.099932
     9  H    0.099932
    10  H    0.216399
 Sum of Mulliken charges =  -0.00000

 Dipole moment (field-independent basis, Debye):
    X=              0.0000    Y=              0.0000    Z=             -0.0000  Tot=              0.0000
 Quadrupole moment (field-independent basis, Debye-Ang):
   XX=            -12.4806   YY=            -17.1999   ZZ=            -13.7816
   XY=             -0.0000   XZ=              0.0000   YZ=             -0.0000

 Normal termination of Gaussian 09 at Thu Feb  9 16:31:04 2017.
