 Gaussian 09, Revision E.01,
 Gaussian 09:  ES64L-G09RevE.01 30-Nov-2015

 ----------------------------------------------------------------------
 #rhf/gen scf(symm,tight,novaracc,noincfock,fulldiag) stable(crhf) geom
 =nocrowd test
 ----------------------------------------------------------------------

 hf stability analysis of h10 triangular lattice, y= 0.7937677784109760
 1
 ----------------------------------------------------------------------
 Symbolic Z-matrix:
 Charge =  0 Multiplicity = 1

                         Standard orientation:
 ---------------------------------------------------------------------
 Center     Atomic      Atomic             Coordinates (Angstroms)
 Number     Number       Type             X           Y           Z
 ---------------------------------------------------------------------
      1          1           0        0.000000    0.793768    1.454708
      2          1           0       -0.000000    0.000000    2.182062
      3          1           0       -0.000000    0.000000    0.727354
      4          1           0       -0.000000   -0.793768    1.454708
      5          1           0       -0.000000    0.793768    0.000000
      6          1           0       -0.000000   -0.793768   -0.000000
      7          1           0        0.000000    0.000000   -0.727354
      8          1           0        0.000000    0.793768   -1.454708
      9          1           0       -0.000000   -0.793768   -1.454708
     10          1           0        0.000000    0.000000   -2.182062
 ---------------------------------------------------------------------

 SCF Done:  E(RHF) =  -4.90001553232     A.U. after    8 cycles
 E2 =    -0.9660777781D-01 EUMP2 =    -0.49966233101311D+01

 The electronic state is 1-AG.
 Alpha  occ. eigenvalues --   -0.92321  -0.74896  -0.50474  -0.48956  -0.29159
 Alpha virt. eigenvalues --    0.00905   0.16188   0.39151   0.45737   0.54656

 Mulliken charges:
               1
     1  H   -0.189348
     2  H    0.194203
     3  H    0.129889
     4  H   -0.189348
     5  H    0.054604
     6  H    0.054604
     7  H    0.129889
     8  H   -0.189348
     9  H   -0.189348
    10  H    0.194203
 Sum of Mulliken charges =  -0.00000

 Dipole moment (field-independent basis, Debye):
    X=              0.0000    Y=             -0.0000    Z=             -0.0000  Tot=              0.0000
 Quadrupole moment (field-independent basis, Debye-Ang):
   XX=            -12.9814   YY=            -18.1506   ZZ=            -12.6068
   XY=             -0.0000   XZ=             -0.0000   YZ=             -0.0000

 Normal termination of Gaussian 09 at Thu Feb  9 16:08:27 2017.
