 Gaussian 09, Revision E.01,
 Gaussian 09:  ES64L-G09RevE.01 30-Nov-2015

 ----------------------------------------------------------------------
 #rhf/gen scf(symm,tight,novaracc,noincfock,fulldiag) stable(crhf) geom
 =nocrowd test
 ----------------------------------------------------------------------

 hf stability analysis of h10 triangular lattice, y= 0.8534839121632004
 1
 ----------------------------------------------------------------------
 Symbolic Z-matrix:
 Charge =  0 Multiplicity = 1

                         Standard orientation:
 ---------------------------------------------------------------------
 Center     Atomic      Atomic             Coordinates (Angstroms)
 Number     Number       Type             X           Y           Z
 ---------------------------------------------------------------------
      1          1           0        0.000000    0.853484    1.352926
      2          1           0        0.000000    0.000000    2.029389
      3          1           0        0.000000    0.000000    0.676463
      4          1           0       -0.000000   -0.853484    1.352926
      5          1           0       -0.000000    0.853484   -0.000000
      6          1           0       -0.000000   -0.853484    0.000000
      7          1           0        0.000000   -0.000000   -0.676463
      8          1           0        0.000000    0.853484   -1.352926
      9          1           0       -0.000000   -0.853484   -1.352926
     10          1           0        0.000000   -0.000000   -2.029389
 ---------------------------------------------------------------------

 SCF Done:  E(RHF) =  -4.95043922649     A.U. after    8 cycles
 E2 =    -0.9630837737D-01 EUMP2 =    -0.50467476038623D+01

 The electronic state is 1-AG.
 Alpha  occ. eigenvalues --   -0.94135  -0.74796  -0.53067  -0.47724  -0.31255
 Alpha virt. eigenvalues --    0.06505   0.18604   0.33940   0.47380   0.51560

 Mulliken charges:
               1
     1  H   -0.158561
     2  H    0.136545
     3  H    0.106995
     4  H   -0.158561
     5  H    0.073582
     6  H    0.073582
     7  H    0.106995
     8  H   -0.158561
     9  H   -0.158561
    10  H    0.136545
 Sum of Mulliken charges =  -0.00000

 Dipole moment (field-independent basis, Debye):
    X=              0.0000    Y=              0.0000    Z=             -0.0000  Tot=              0.0000
 Quadrupole moment (field-independent basis, Debye-Ang):
   XX=            -12.9424   YY=            -17.3874   ZZ=            -14.8762
   XY=             -0.0000   XZ=             -0.0000   YZ=             -0.0000

 Normal termination of Gaussian 09 at Thu Feb  9 16:11:19 2017.
