 Gaussian 09, Revision E.01,
 Gaussian 09:  ES64L-G09RevE.01 30-Nov-2015

 ----------------------------------------------------------------------
 #rhf/gen scf(symm,tight,novaracc,noincfock,fulldiag) stable(crhf) geom
 =nocrowd test
 ----------------------------------------------------------------------

 hf stability analysis of h10 triangular lattice, y= 0.9173997895451042
 6
 ----------------------------------------------------------------------
 Symbolic Z-matrix:
 Charge =  0 Multiplicity = 1

                         Standard orientation:
 ---------------------------------------------------------------------
 Center     Atomic      Atomic             Coordinates (Angstroms)
 Number     Number       Type             X           Y           Z
 ---------------------------------------------------------------------
      1          1           0        0.000000    0.917400    1.258667
      2          1           0        0.000000    0.000000    1.888000
      3          1           0        0.000000    0.000000    0.629333
      4          1           0       -0.000000   -0.917400    1.258667
      5          1           0       -0.000000    0.917400    0.000000
      6          1           0       -0.000000   -0.917400    0.000000
      7          1           0        0.000000   -0.000000   -0.629333
      8          1           0        0.000000    0.917400   -1.258667
      9          1           0       -0.000000   -0.917400   -1.258667
     10          1           0        0.000000   -0.000000   -1.888000
 ---------------------------------------------------------------------

 SCF Done:  E(RHF) =  -4.96968321842     A.U. after    8 cycles
 E2 =    -0.9761147205D-01 EUMP2 =    -0.50672946904756D+01

 The electronic state is 1-AG.
 Alpha  occ. eigenvalues --   -0.95551  -0.74145  -0.56888  -0.44477  -0.32807
 Alpha virt. eigenvalues --    0.13128   0.21905   0.23008   0.46564   0.54101

 Mulliken charges:
               1
     1  H   -0.129644
     2  H    0.077158
     3  H    0.098715
     4  H   -0.129644
     5  H    0.083414
     6  H    0.083414
     7  H    0.098715
     8  H   -0.129644
     9  H   -0.129644
    10  H    0.077158
 Sum of Mulliken charges =  -0.00000

 Dipole moment (field-independent basis, Debye):
    X=              0.0000    Y=             -0.0000    Z=             -0.0000  Tot=              0.0000
 Quadrupole moment (field-independent basis, Debye-Ang):
   XX=            -12.8999   YY=            -16.5403   ZZ=            -16.8200
   XY=             -0.0000   XZ=              0.0000   YZ=              0.0000

 Normal termination of Gaussian 09 at Thu Feb  9 16:14:05 2017.
