 Gaussian 09, Revision E.01,
 Gaussian 09:  ES64L-G09RevE.01 30-Nov-2015

 ----------------------------------------------------------------------
 #rhf/gen scf(symm,tight,novaracc,noincfock,fulldiag) stable(crhf) geom
 =nocrowd test
 ----------------------------------------------------------------------

 ----------------------------------------------------------------------
 hf stability analysis of h10 triangular lattice, y= 1.3614912904919696
 ----------------------------------------------------------------------
 Symbolic Z-matrix:
 Charge =  0 Multiplicity = 1

                         Standard orientation:
 ---------------------------------------------------------------------
 Center     Atomic      Atomic             Coordinates (Angstroms)
 Number     Number       Type             X           Y           Z
 ---------------------------------------------------------------------
      1          1           0       -0.000000    1.361491    0.848115
      2          1           0        0.000000   -0.000000    1.272172
      3          1           0        0.000000   -0.000000    0.424057
      4          1           0       -0.000000   -1.361491    0.848115
      5          1           0       -0.000000    1.361491    0.000000
      6          1           0       -0.000000   -1.361491   -0.000000
      7          1           0        0.000000    0.000000   -0.424057
      8          1           0        0.000000    1.361491   -0.848115
      9          1           0       -0.000000   -1.361491   -0.848115
     10          1           0        0.000000    0.000000   -1.272172
 ---------------------------------------------------------------------

 SCF Done:  E(RHF) =  -4.95378060186     A.U. after    8 cycles
 E2 =    -0.8793816669D-01 EUMP2 =    -0.50417187685423D+01

 The electronic state is 1-AG.
 Alpha  occ. eigenvalues --   -0.95247  -0.71612  -0.63980  -0.53230  -0.28801
 Alpha virt. eigenvalues --    0.07073   0.08875   0.65300   0.79634   0.82066

 Mulliken charges:
               1
     1  H   -0.060558
     2  H    0.280241
     3  H   -0.062902
     4  H   -0.060558
     5  H   -0.096222
     6  H   -0.096222
     7  H   -0.062902
     8  H   -0.060558
     9  H   -0.060558
    10  H    0.280241
 Sum of Mulliken charges =  -0.00000

 Dipole moment (field-independent basis, Debye):
    X=              0.0000    Y=             -0.0000    Z=             -0.0000  Tot=              0.0000
 Quadrupole moment (field-independent basis, Debye-Ang):
   XX=            -12.6163   YY=            -20.7727   ZZ=            -10.9886
   XY=             -0.0000   XZ=             -0.0000   YZ=             -0.0000

 Normal termination of Gaussian 09 at Thu Feb  9 16:26:05 2017.
