 Gaussian 09, Revision E.01,
 Gaussian 09:  ES64L-G09RevE.01 30-Nov-2015

 ----------------------------------------------------------------------
 #rhf/gen scf(symm,tight,novaracc,noincfock,fulldiag) stable(crhf) geom
 =nocrowd test
 ----------------------------------------------------------------------

 ----------------------------------------------------------------------
 hf stability analysis of h10 triangular lattice, y= 1.1705186749937306
 ----------------------------------------------------------------------
 Symbolic Z-matrix:
 Charge =  0 Multiplicity = 1

                         Standard orientation:
 ---------------------------------------------------------------------
 Center     Atomic      Atomic             Coordinates (Angstroms)
 Number     Number       Type             X           Y           Z
 ---------------------------------------------------------------------
      1          1           0       -0.000000    1.170519    0.986486
      2          1           0       -0.000000    0.000000    1.479729
      3          1           0       -0.000000    0.000000    0.493243
      4          1           0       -0.000000   -1.170519    0.986486
      5          1           0       -0.000000    1.170519   -0.000000
      6          1           0       -0.000000   -1.170519    0.000000
      7          1           0        0.000000   -0.000000   -0.493243
      8          1           0        0.000000    1.170519   -0.986486
      9          1           0       -0.000000   -1.170519   -0.986486
     10          1           0        0.000000   -0.000000   -1.479729
 ---------------------------------------------------------------------

 SCF Done:  E(RHF) =  -4.85073028567     A.U. after   10 cycles
 E2 =    -0.1011517993D+00 EUMP2 =    -0.49518820849758D+01

 The electronic state is 1-AG.
 Alpha  occ. eigenvalues --   -0.94189  -0.67982  -0.66124  -0.36825  -0.31189
 Alpha virt. eigenvalues --   -0.02706   0.17772   0.48160   0.52472   0.72762

 Mulliken charges:
               1
     1  H   -0.057187
     2  H    0.226872
     3  H    0.001291
     4  H   -0.057187
     5  H   -0.113790
     6  H   -0.113790
     7  H    0.001291
     8  H   -0.057187
     9  H   -0.057187
    10  H    0.226872
 Sum of Mulliken charges =  -0.00000

 Dipole moment (field-independent basis, Debye):
    X=              0.0000    Y=             -0.0000    Z=              0.0000  Tot=              0.0000
 Quadrupole moment (field-independent basis, Debye-Ang):
   XX=            -12.5863   YY=            -20.7685   ZZ=             -9.9390
   XY=             -0.0000   XZ=             -0.0000   YZ=             -0.0000

 Normal termination of Gaussian 09 at Thu Feb  9 16:22:11 2017.
