 Gaussian 09, Revision E.01,
 Gaussian 09:  ES64L-G09RevE.01 30-Nov-2015

 ----------------------------------------------------------------------
 #rhf/gen scf(symm,tight,novaracc,noincfock,fulldiag) stable(crhf) geom
 =nocrowd test
 ----------------------------------------------------------------------

 ----------------------------------------------------------------------
 hf stability analysis of h10 triangular lattice, y= 1.1954046164231349
 ----------------------------------------------------------------------
 Symbolic Z-matrix:
 Charge =  0 Multiplicity = 1

                         Standard orientation:
 ---------------------------------------------------------------------
 Center     Atomic      Atomic             Coordinates (Angstroms)
 Number     Number       Type             X           Y           Z
 ---------------------------------------------------------------------
      1          1           0       -0.000000    1.195405    0.965950
      2          1           0        0.000000    0.000000    1.448924
      3          1           0        0.000000    0.000000    0.482975
      4          1           0       -0.000000   -1.195405    0.965950
      5          1           0       -0.000000    1.195405    0.000000
      6          1           0       -0.000000   -1.195405   -0.000000
      7          1           0        0.000000   -0.000000   -0.482975
      8          1           0        0.000000    1.195405   -0.965950
      9          1           0       -0.000000   -1.195405   -0.965950
     10          1           0        0.000000   -0.000000   -1.448924
 ---------------------------------------------------------------------

 SCF Done:  E(RHF) =  -4.87636119130     A.U. after    9 cycles
 E2 =    -0.9714418392D-01 EUMP2 =    -0.49735053752214D+01

 The electronic state is 1-AG.
 Alpha  occ. eigenvalues --   -0.94123  -0.67343  -0.66795  -0.39105  -0.30954
 Alpha virt. eigenvalues --   -0.01735   0.16479   0.50681   0.56029   0.74120

 Mulliken charges:
               1
     1  H   -0.077195
     2  H    0.266470
     3  H   -0.020017
     4  H   -0.077195
     5  H   -0.092063
     6  H   -0.092063
     7  H   -0.020017
     8  H   -0.077195
     9  H   -0.077195
    10  H    0.266470
 Sum of Mulliken charges =  -0.00000

 Dipole moment (field-independent basis, Debye):
    X=              0.0000    Y=             -0.0000    Z=              0.0000  Tot=              0.0000
 Quadrupole moment (field-independent basis, Debye-Ang):
   XX=            -12.5925   YY=            -21.2020   ZZ=             -9.5903
   XY=             -0.0000   XZ=             -0.0000   YZ=              0.0000

 Normal termination of Gaussian 09 at Thu Feb  9 16:22:47 2017.
