 Gaussian 09, Revision E.01,
 Gaussian 09:  ES64L-G09RevE.01 30-Nov-2015

 ----------------------------------------------------------------------
 #rhf/gen scf(symm,tight,novaracc,noincfock,fulldiag) stable(crhf) geom
 =nocrowd test
 ----------------------------------------------------------------------

 ----------------------------------------------------------------------
 hf stability analysis of h10 triangular lattice, y= 1.2328363494960013
 ----------------------------------------------------------------------
 Symbolic Z-matrix:
 Charge =  0 Multiplicity = 1

                         Standard orientation:
 ---------------------------------------------------------------------
 Center     Atomic      Atomic             Coordinates (Angstroms)
 Number     Number       Type             X           Y           Z
 ---------------------------------------------------------------------
      1          1           0        0.000000    1.232836    0.936621
      2          1           0        0.000000    0.000000    1.404932
      3          1           0        0.000000    0.000000    0.468311
      4          1           0       -0.000000   -1.232836    0.936621
      5          1           0       -0.000000    1.232836   -0.000000
      6          1           0       -0.000000   -1.232836    0.000000
      7          1           0        0.000000   -0.000000   -0.468311
      8          1           0        0.000000    1.232836   -0.936621
      9          1           0       -0.000000   -1.232836   -0.936621
     10          1           0        0.000000   -0.000000   -1.404932
 ---------------------------------------------------------------------

 SCF Done:  E(RHF) =  -4.90954311637     A.U. after    9 cycles
 E2 =    -0.9298572902D-01 EUMP2 =    -0.50025288453920D+01

 The electronic state is 1-AG.
 Alpha  occ. eigenvalues --   -0.94282  -0.67900  -0.66506  -0.42515  -0.30574
 Alpha virt. eigenvalues --    0.00059   0.14615   0.54093   0.61272   0.75962

 Mulliken charges:
               1
     1  H   -0.085639
     2  H    0.287758
     3  H   -0.037772
     4  H   -0.085639
     5  H   -0.078709
     6  H   -0.078709
     7  H   -0.037772
     8  H   -0.085639
     9  H   -0.085639
    10  H    0.287758
 Sum of Mulliken charges =  -0.00000

 Dipole moment (field-independent basis, Debye):
    X=              0.0000    Y=             -0.0000    Z=             -0.0000  Tot=              0.0000
 Quadrupole moment (field-independent basis, Debye-Ang):
   XX=            -12.6024   YY=            -21.3321   ZZ=             -9.7059
   XY=             -0.0000   XZ=             -0.0000   YZ=             -0.0000

 Normal termination of Gaussian 09 at Thu Feb  9 16:23:38 2017.
