 Gaussian 09, Revision E.01,
 Gaussian 09:  ES64L-G09RevE.01 30-Nov-2015

 ----------------------------------------------------------------------
 #rhf/gen scf(symm,tight,novaracc,noincfock,fulldiag) stable(crhf) geom
 =nocrowd test
 ----------------------------------------------------------------------

 ----------------------------------------------------------------------
 hf stability analysis of h10 triangular lattice, y= 1.9538556170843520
 ----------------------------------------------------------------------
 Symbolic Z-matrix:
 Charge =  0 Multiplicity = 1

                         Standard orientation:
 ---------------------------------------------------------------------
 Center     Atomic      Atomic             Coordinates (Angstroms)
 Number     Number       Type             X           Y           Z
 ---------------------------------------------------------------------
      1          1           0       -0.000000    1.953856    0.590986
      2          1           0       -0.000000    0.000000    0.886479
      3          1           0       -0.000000    0.000000    0.295493
      4          1           0       -0.000000   -1.953856    0.590986
      5          1           0       -0.000000    1.953856    0.000000
      6          1           0       -0.000000   -1.953856    0.000000
      7          1           0        0.000000    0.000000   -0.295493
      8          1           0        0.000000    1.953856   -0.590986
      9          1           0       -0.000000   -1.953856   -0.590986
     10          1           0        0.000000    0.000000   -0.886479
 ---------------------------------------------------------------------

 SCF Done:  E(RHF) =  -4.21215625309     A.U. after    7 cycles
 E2 =    -0.1558764207D+00 EUMP2 =    -0.43680326738053D+01

 The electronic state is 1-AG.
 Alpha  occ. eigenvalues --   -0.99989  -0.84788  -0.82861  -0.55850  -0.18568
 Alpha virt. eigenvalues --   -0.01831   0.39087   1.15432   1.19032   1.74522

 Mulliken charges:
               1
     1  H    0.159028
     2  H    0.220724
     3  H   -0.173292
     4  H    0.159028
     5  H   -0.365488
     6  H   -0.365488
     7  H   -0.173292
     8  H    0.159028
     9  H    0.159028
    10  H    0.220724
 Sum of Mulliken charges =   0.00000

 Dipole moment (field-independent basis, Debye):
    X=              0.0000    Y=              0.0000    Z=              0.0000  Tot=              0.0000
 Quadrupole moment (field-independent basis, Debye-Ang):
   XX=            -12.3926   YY=            -15.8927   ZZ=            -14.2303
   XY=             -0.0000   XZ=              0.0000   YZ=             -0.0000

 Normal termination of Gaussian 09 at Thu Feb  9 16:32:08 2017.
