 Gaussian 09, Revision E.01,
 Gaussian 09:  ES64L-G09RevE.01 30-Nov-2015

 ----------------------------------------------------------------------
 #rhf/gen scf(symm,tight,novaracc,noincfock,fulldiag) stable(crhf) geom
 =nocrowd test
 ----------------------------------------------------------------------

 ----------------------------------------------------------------------
 hf stability analysis of h10 triangular lattice, y= 1.6733867869493753
 ----------------------------------------------------------------------
 Symbolic Z-matrix:
 Charge =  0 Multiplicity = 1

                         Standard orientation:
 ---------------------------------------------------------------------
 Center     Atomic      Atomic             Coordinates (Angstroms)
 Number     Number       Type             X           Y           Z
 ---------------------------------------------------------------------
      1          1           0        0.000000    1.673387    0.690038
      2          1           0        0.000000    0.000000    1.035057
      3          1           0        0.000000    0.000000    0.345019
      4          1           0       -0.000000   -1.673387    0.690038
      5          1           0       -0.000000    1.673387    0.000000
      6          1           0       -0.000000   -1.673387   -0.000000
      7          1           0        0.000000    0.000000   -0.345019
      8          1           0        0.000000    1.673387   -0.690038
      9          1           0       -0.000000   -1.673387   -0.690038
     10          1           0        0.000000    0.000000   -1.035057
 ---------------------------------------------------------------------

 SCF Done:  E(RHF) =  -4.70274228057     A.U. after    7 cycles
 E2 =    -0.1079745009D+00 EUMP2 =    -0.48107167815088D+01

 The electronic state is 1-AG.
 Alpha  occ. eigenvalues --   -0.97339  -0.79081  -0.72193  -0.58893  -0.23299
 Alpha virt. eigenvalues --    0.00519   0.24483   0.92033   0.99654   1.27810

 Mulliken charges:
               1
     1  H    0.052990
     2  H    0.224987
     3  H   -0.111081
     4  H    0.052990
     5  H   -0.219886
     6  H   -0.219886
     7  H   -0.111081
     8  H    0.052990
     9  H    0.052990
    10  H    0.224987
 Sum of Mulliken charges =   0.00000

 Dipole moment (field-independent basis, Debye):
    X=              0.0000    Y=             -0.0000    Z=             -0.0000  Tot=              0.0000
 Quadrupole moment (field-independent basis, Debye-Ang):
   XX=            -12.5397   YY=            -18.2869   ZZ=            -13.2741
   XY=             -0.0000   XZ=             -0.0000   YZ=              0.0000

 Normal termination of Gaussian 09 at Thu Feb  9 16:30:01 2017.
