 Gaussian 09, Revision E.01,
 Gaussian 09:  ES64L-G09RevE.01 30-Nov-2015

 ----------------------------------------------------------------------
 #rhf/gen scf(symm,tight,novaracc,noincfock,fulldiag) stable(crhf) geom
 =nocrowd test
 ----------------------------------------------------------------------

 ----------------------------------------------------------------------
 hf stability analysis of h10 triangular lattice, y= 1.8235128059726211
 ----------------------------------------------------------------------
 Symbolic Z-matrix:
 Charge =  0 Multiplicity = 1

                         Standard orientation:
 ---------------------------------------------------------------------
 Center     Atomic      Atomic             Coordinates (Angstroms)
 Number     Number       Type             X           Y           Z
 ---------------------------------------------------------------------
      1          1           0        0.000000    1.823513    0.633229
      2          1           0       -0.000000   -0.000000    0.949843
      3          1           0       -0.000000   -0.000000    0.316614
      4          1           0       -0.000000   -1.823513    0.633229
      5          1           0       -0.000000    1.823513    0.000000
      6          1           0       -0.000000   -1.823513   -0.000000
      7          1           0        0.000000    0.000000   -0.316614
      8          1           0        0.000000    1.823513   -0.633229
      9          1           0       -0.000000   -1.823513   -0.633229
     10          1           0        0.000000    0.000000   -0.949843
 ---------------------------------------------------------------------

 SCF Done:  E(RHF) =  -4.46250675526     A.U. after    7 cycles
 E2 =    -0.1308653281D+00 EUMP2 =    -0.45933720833353D+01

 The electronic state is 1-AG.
 Alpha  occ. eigenvalues --   -0.98556  -0.82215  -0.78502  -0.57072  -0.20691
 Alpha virt. eigenvalues --   -0.01192   0.32491   1.04610   1.09698   1.52507

 Mulliken charges:
               1
     1  H    0.110440
     2  H    0.215885
     3  H   -0.142242
     4  H    0.110440
     5  H   -0.294524
     6  H   -0.294524
     7  H   -0.142242
     8  H    0.110440
     9  H    0.110440
    10  H    0.215885
 Sum of Mulliken charges =  -0.00000

 Dipole moment (field-independent basis, Debye):
    X=              0.0000    Y=              0.0000    Z=             -0.0000  Tot=              0.0000
 Quadrupole moment (field-independent basis, Debye-Ang):
   XX=            -12.4659   YY=            -16.9594   ZZ=            -13.8748
   XY=             -0.0000   XZ=              0.0000   YZ=              0.0000

 Normal termination of Gaussian 09 at Thu Feb  9 16:31:16 2017.
