 Gaussian 09, Revision E.01,
 Gaussian 09:  ES64L-G09RevE.01 30-Nov-2015

 ----------------------------------------------------------------------
 #rhf/gen scf(symm,tight,novaracc,noincfock,fulldiag) stable(crhf) geom
 =nocrowd test
 ----------------------------------------------------------------------

 ----------------------------------------------------------------------
 hf stability analysis of h10 triangular lattice, y= 1.7692786585343654
 ----------------------------------------------------------------------
 Symbolic Z-matrix:
 Charge =  0 Multiplicity = 1

                         Standard orientation:
 ---------------------------------------------------------------------
 Center     Atomic      Atomic             Coordinates (Angstroms)
 Number     Number       Type             X           Y           Z
 ---------------------------------------------------------------------
      1          1           0       -0.000000    1.769279    0.652639
      2          1           0        0.000000   -0.000000    0.978959
      3          1           0        0.000000   -0.000000    0.326320
      4          1           0       -0.000000   -1.769279    0.652639
      5          1           0       -0.000000    1.769279    0.000000
      6          1           0       -0.000000   -1.769279   -0.000000
      7          1           0        0.000000    0.000000   -0.326320
      8          1           0        0.000000    1.769279   -0.652639
      9          1           0       -0.000000   -1.769279   -0.652639
     10          1           0        0.000000    0.000000   -0.978959
 ---------------------------------------------------------------------

 SCF Done:  E(RHF) =  -4.55591844398     A.U. after    7 cycles
 E2 =    -0.1217445066D+00 EUMP2 =    -0.46776629505757D+01

 The electronic state is 1-AG.
 Alpha  occ. eigenvalues --   -0.98072  -0.81106  -0.76396  -0.57678  -0.21614
 Alpha virt. eigenvalues --   -0.00710   0.29643   1.00085   1.05972   1.43495

 Mulliken charges:
               1
     1  H    0.089819
     2  H    0.217396
     3  H   -0.130389
     4  H    0.089819
     5  H   -0.266644
     6  H   -0.266644
     7  H   -0.130389
     8  H    0.089819
     9  H    0.089819
    10  H    0.217396
 Sum of Mulliken charges =   0.00000

 Dipole moment (field-independent basis, Debye):
    X=              0.0000    Y=             -0.0000    Z=             -0.0000  Tot=              0.0000
 Quadrupole moment (field-independent basis, Debye-Ang):
   XX=            -12.4943   YY=            -17.4331   ZZ=            -13.6856
   XY=             -0.0000   XZ=              0.0000   YZ=             -0.0000

 Normal termination of Gaussian 09 at Thu Feb  9 16:30:51 2017.
