 Gaussian 09, Revision E.01,
 Gaussian 09:  ES64L-G09RevE.01 30-Nov-2015

 ----------------------------------------------------------------------
 #rhf/gen scf(symm,tight,novaracc,noincfock,fulldiag) stable(crhf) geom
 =nocrowd test
 ----------------------------------------------------------------------

 ----------------------------------------------------------------------
 hf stability analysis of h10 triangular lattice, y= 1.0531284965820111
 ----------------------------------------------------------------------
 Symbolic Z-matrix:
 Charge =  0 Multiplicity = 1

                         Standard orientation:
 ---------------------------------------------------------------------
 Center     Atomic      Atomic             Coordinates (Angstroms)
 Number     Number       Type             X           Y           Z
 ---------------------------------------------------------------------
      1          1           0        0.000000    1.053128    1.096448
      2          1           0        0.000000    0.000000    1.644672
      3          1           0        0.000000    0.000000    0.548224
      4          1           0       -0.000000   -1.053128    1.096448
      5          1           0       -0.000000    1.053128   -0.000000
      6          1           0       -0.000000   -1.053128    0.000000
      7          1           0        0.000000   -0.000000   -0.548224
      8          1           0        0.000000    1.053128   -1.096448
      9          1           0       -0.000000   -1.053128   -1.096448
     10          1           0        0.000000   -0.000000   -1.644672
 ---------------------------------------------------------------------

 SCF Done:  E(RHF) =  -4.89626570051     A.U. after    9 cycles
 E2 =    -0.1059869808D+00 EUMP2 =    -0.50022526813318D+01

 The electronic state is 1-AG.
 Alpha  occ. eigenvalues --   -0.97219  -0.71541  -0.63494  -0.36857  -0.34288
 Alpha virt. eigenvalues --    0.03499   0.25232   0.30748   0.38647   0.63839

 Mulliken charges:
               1
     1  H   -0.069157
     2  H   -0.048357
     3  H    0.113285
     4  H   -0.069157
     5  H    0.073386
     6  H    0.073386
     7  H    0.113285
     8  H   -0.069157
     9  H   -0.069157
    10  H   -0.048357
 Sum of Mulliken charges =  -0.00000

 Dipole moment (field-independent basis, Debye):
    X=             -0.0000    Y=             -0.0000    Z=             -0.0000  Tot=              0.0000
 Quadrupole moment (field-independent basis, Debye-Ang):
   XX=            -12.8025   YY=            -14.6363   ZZ=            -19.7495
   XY=             -0.0000   XZ=              0.0000   YZ=             -0.0000

 Normal termination of Gaussian 09 at Thu Feb  9 16:18:54 2017.
