 Gaussian 09, Revision E.01,
 Gaussian 09:  ES64L-G09RevE.01 30-Nov-2015

 ----------------------------------------------------------------------
 #rhf/gen scf(symm,tight,novaracc,noincfock,fulldiag) stable(crhf) geom
 =nocrowd test
 ----------------------------------------------------------------------

 hf stability analysis of h10 triangular lattice, y= 0.9005060787134614
 4
 ----------------------------------------------------------------------
 Symbolic Z-matrix:
 Charge =  0 Multiplicity = 1

                         Standard orientation:
 ---------------------------------------------------------------------
 Center     Atomic      Atomic             Coordinates (Angstroms)
 Number     Number       Type             X           Y           Z
 ---------------------------------------------------------------------
      1          1           0        0.000000    0.900506    1.282280
      2          1           0        0.000000    0.000000    1.923419
      3          1           0        0.000000    0.000000    0.641140
      4          1           0       -0.000000   -0.900506    1.282280
      5          1           0       -0.000000    0.900506    0.000000
      6          1           0       -0.000000   -0.900506    0.000000
      7          1           0        0.000000    0.000000   -0.641140
      8          1           0        0.000000    0.900506   -1.282280
      9          1           0       -0.000000   -0.900506   -1.282280
     10          1           0        0.000000    0.000000   -1.923419
 ---------------------------------------------------------------------

 SCF Done:  E(RHF) =  -4.96805623439     A.U. after    8 cycles
 E2 =    -0.9710630836D-01 EUMP2 =    -0.50651625427463D+01

 The electronic state is 1-AG.
 Alpha  occ. eigenvalues --   -0.95223  -0.74364  -0.55930  -0.45361  -0.32458
 Alpha virt. eigenvalues --    0.11334   0.20969   0.25793   0.47962   0.52458

 Mulliken charges:
               1
     1  H   -0.136992
     2  H    0.092656
     3  H    0.099648
     4  H   -0.136992
     5  H    0.081680
     6  H    0.081680
     7  H    0.099648
     8  H   -0.136992
     9  H   -0.136992
    10  H    0.092656
 Sum of Mulliken charges =  -0.00000

 Dipole moment (field-independent basis, Debye):
    X=              0.0000    Y=              0.0000    Z=             -0.0000  Tot=              0.0000
 Quadrupole moment (field-independent basis, Debye-Ang):
   XX=            -12.9113   YY=            -16.7669   ZZ=            -16.3482
   XY=             -0.0000   XZ=              0.0000   YZ=              0.0000

 Normal termination of Gaussian 09 at Thu Feb  9 16:13:23 2017.
