 Gaussian 09, Revision E.01,
 Gaussian 09:  ES64L-G09RevE.01 30-Nov-2015

 ----------------------------------------------------------------------
 #rhf/gen scf(symm,tight,novaracc,noincfock,fulldiag) stable(crhf) geom
 =nocrowd test
 ----------------------------------------------------------------------

 ----------------------------------------------------------------------
 hf stability analysis of h10 triangular lattice, y= 2.2423922311771953
 ----------------------------------------------------------------------
 Symbolic Z-matrix:
 Charge =  0 Multiplicity = 1

                         Standard orientation:
 ---------------------------------------------------------------------
 Center     Atomic      Atomic             Coordinates (Angstroms)
 Number     Number       Type             X           Y           Z
 ---------------------------------------------------------------------
      1          1           0       -0.000000    2.242392    0.514941
      2          1           0       -0.000000    0.000000    0.772412
      3          1           0       -0.000000    0.000000    0.257471
      4          1           0       -0.000000   -2.242392    0.514941
      5          1           0       -0.000000    2.242392    0.000000
      6          1           0       -0.000000   -2.242392    0.000000
      7          1           0        0.000000   -0.000000   -0.257471
      8          1           0        0.000000    2.242392   -0.514941
      9          1           0       -0.000000   -2.242392   -0.514941
     10          1           0        0.000000   -0.000000   -0.772412
 ---------------------------------------------------------------------

 SCF Done:  E(RHF) =  -3.55558949657     A.U. after    7 cycles
 E2 =    -0.2187282057D+00 EUMP2 =    -0.37743177022356D+01

 The electronic state is 1-AG.
 Alpha  occ. eigenvalues --   -1.04613  -0.90032  -0.89825  -0.54122  -0.14291
 Alpha virt. eigenvalues --   -0.01411   0.52378   1.39321   1.41074   2.24911

 Mulliken charges:
               1
     1  H    0.262615
     2  H    0.269548
     3  H   -0.254048
     4  H    0.262615
     5  H   -0.540730
     6  H   -0.540730
     7  H   -0.254048
     8  H    0.262615
     9  H    0.262615
    10  H    0.269548
 Sum of Mulliken charges =  -0.00000

 Dipole moment (field-independent basis, Debye):
    X=              0.0000    Y=             -0.0000    Z=              0.0000  Tot=              0.0000
 Quadrupole moment (field-independent basis, Debye-Ang):
   XX=            -12.2233   YY=            -14.0912   ZZ=            -14.7047
   XY=              0.0000   XZ=              0.0000   YZ=              0.0000

 Normal termination of Gaussian 09 at Thu Feb  9 16:33:34 2017.
