 Gaussian 09, Revision E.01,
 Gaussian 09:  ES64L-G09RevE.01 30-Nov-2015

 ----------------------------------------------------------------------
 #rhf/gen scf(symm,tight,novaracc,noincfock,fulldiag) stable(crhf) geom
 =nocrowd test
 ----------------------------------------------------------------------

 ----------------------------------------------------------------------
 hf stability analysis of h10 triangular lattice, y= 1.9654877006520655
 ----------------------------------------------------------------------
 Symbolic Z-matrix:
 Charge =  0 Multiplicity = 1

                         Standard orientation:
 ---------------------------------------------------------------------
 Center     Atomic      Atomic             Coordinates (Angstroms)
 Number     Number       Type             X           Y           Z
 ---------------------------------------------------------------------
      1          1           0        0.000000    1.965488    0.587488
      2          1           0        0.000000    0.000000    0.881232
      3          1           0        0.000000    0.000000    0.293744
      4          1           0       -0.000000   -1.965488    0.587488
      5          1           0       -0.000000    1.965488   -0.000000
      6          1           0       -0.000000   -1.965488    0.000000
      7          1           0        0.000000   -0.000000   -0.293744
      8          1           0        0.000000    1.965488   -0.587488
      9          1           0       -0.000000   -1.965488   -0.587488
     10          1           0        0.000000   -0.000000   -0.881232
 ---------------------------------------------------------------------

 SCF Done:  E(RHF) =  -4.18822531691     A.U. after    7 cycles
 E2 =    -0.1582732911D+00 EUMP2 =    -0.43464986080164D+01

 The electronic state is 1-AG.
 Alpha  occ. eigenvalues --   -1.00138  -0.85011  -0.83206  -0.55756  -0.18385
 Alpha virt. eigenvalues --   -0.01858   0.39658   1.16396   1.19887   1.76509

 Mulliken charges:
               1
     1  H    0.163294
     2  H    0.221726
     3  H   -0.176232
     4  H    0.163294
     5  H   -0.372081
     6  H   -0.372081
     7  H   -0.176232
     8  H    0.163294
     9  H    0.163294
    10  H    0.221726
 Sum of Mulliken charges =  -0.00000

 Dipole moment (field-independent basis, Debye):
    X=              0.0000    Y=              0.0000    Z=             -0.0000  Tot=              0.0000
 Quadrupole moment (field-independent basis, Debye-Ang):
   XX=            -12.3858   YY=            -15.8042   ZZ=            -14.2564
   XY=             -0.0000   XZ=              0.0000   YZ=              0.0000

 Normal termination of Gaussian 09 at Thu Feb  9 16:32:12 2017.
