 Gaussian 09, Revision E.01,
 Gaussian 09:  ES64L-G09RevE.01 30-Nov-2015

 ----------------------------------------------------------------------
 #rhf/gen scf(symm,tight,novaracc,noincfock,fulldiag) stable(crhf) geom
 =nocrowd test
 ----------------------------------------------------------------------

 ----------------------------------------------------------------------
 hf stability analysis of h10 triangular lattice, y= 1.6341209389415596
 ----------------------------------------------------------------------
 Symbolic Z-matrix:
 Charge =  0 Multiplicity = 1

                         Standard orientation:
 ---------------------------------------------------------------------
 Center     Atomic      Atomic             Coordinates (Angstroms)
 Number     Number       Type             X           Y           Z
 ---------------------------------------------------------------------
      1          1           0       -0.000000    1.634121    0.706619
      2          1           0       -0.000000    0.000000    1.059928
      3          1           0       -0.000000    0.000000    0.353309
      4          1           0       -0.000000   -1.634121    0.706619
      5          1           0       -0.000000    1.634121    0.000000
      6          1           0       -0.000000   -1.634121   -0.000000
      7          1           0        0.000000    0.000000   -0.353309
      8          1           0        0.000000    1.634121   -0.706619
      9          1           0       -0.000000   -1.634121   -0.706619
     10          1           0        0.000000    0.000000   -1.059928
 ---------------------------------------------------------------------

 SCF Done:  E(RHF) =  -4.75520461534     A.U. after    7 cycles
 E2 =    -0.1032970371D+00 EUMP2 =    -0.48585016523951D+01

 The electronic state is 1-AG.
 Alpha  occ. eigenvalues --   -0.97070  -0.78225  -0.70278  -0.59443  -0.24004
 Alpha virt. eigenvalues --    0.01178   0.22331   0.88714   0.97179   1.21491

 Mulliken charges:
               1
     1  H    0.037876
     2  H    0.229790
     3  H   -0.103815
     4  H    0.037876
     5  H   -0.201727
     6  H   -0.201727
     7  H   -0.103815
     8  H    0.037876
     9  H    0.037876
    10  H    0.229790
 Sum of Mulliken charges =   0.00000

 Dipole moment (field-independent basis, Debye):
    X=              0.0000    Y=             -0.0000    Z=              0.0000  Tot=              0.0000
 Quadrupole moment (field-independent basis, Debye-Ang):
   XX=            -12.5560   YY=            -18.6349   ZZ=            -13.0726
   XY=             -0.0000   XZ=             -0.0000   YZ=              0.0000

 Normal termination of Gaussian 09 at Thu Feb  9 16:29:38 2017.
