 Gaussian 09, Revision E.01,
 Gaussian 09:  ES64L-G09RevE.01 30-Nov-2015

 ----------------------------------------------------------------------
 #rhf/gen scf(symm,tight,novaracc,noincfock,fulldiag) stable(crhf) geom
 =nocrowd test
 ----------------------------------------------------------------------

 hf stability analysis of h10 triangular lattice, y= 0.9313103730554084
 2
 ----------------------------------------------------------------------
 Symbolic Z-matrix:
 Charge =  0 Multiplicity = 1

                         Standard orientation:
 ---------------------------------------------------------------------
 Center     Atomic      Atomic             Coordinates (Angstroms)
 Number     Number       Type             X           Y           Z
 ---------------------------------------------------------------------
      1          1           0        0.000000    0.931310    1.239867
      2          1           0       -0.000000    0.000000    1.859800
      3          1           0       -0.000000    0.000000    0.619933
      4          1           0       -0.000000   -0.931310    1.239867
      5          1           0       -0.000000    0.931310    0.000000
      6          1           0       -0.000000   -0.931310    0.000000
      7          1           0        0.000000    0.000000   -0.619933
      8          1           0        0.000000    0.931310   -1.239867
      9          1           0       -0.000000   -0.931310   -1.239867
     10          1           0        0.000000    0.000000   -1.859800
 ---------------------------------------------------------------------

 SCF Done:  E(RHF) =  -4.96917541184     A.U. after    8 cycles
 E2 =    -0.9811417239D-01 EUMP2 =    -0.50672895842267D+01

 The electronic state is 1-AG.
 Alpha  occ. eigenvalues --   -0.95797  -0.73943  -0.57652  -0.43737  -0.33063
 Alpha virt. eigenvalues --    0.14615   0.20777   0.22707   0.45404   0.55376

 Mulliken charges:
               1
     1  H   -0.123704
     2  H    0.064481
     3  H    0.098505
     4  H   -0.123704
     5  H    0.084422
     6  H    0.084422
     7  H    0.098505
     8  H   -0.123704
     9  H   -0.123704
    10  H    0.064481
 Sum of Mulliken charges =   0.00000

 Dipole moment (field-independent basis, Debye):
    X=              0.0000    Y=              0.0000    Z=             -0.0000  Tot=              0.0000
 Quadrupole moment (field-independent basis, Debye-Ang):
   XX=            -12.8905   YY=            -16.3522   ZZ=            -17.1881
   XY=             -0.0000   XZ=              0.0000   YZ=             -0.0000

 Normal termination of Gaussian 09 at Thu Feb  9 16:14:40 2017.
