 Gaussian 09, Revision E.01,
 Gaussian 09:  ES64L-G09RevE.01 30-Nov-2015

 ----------------------------------------------------------------------
 #rhf/gen scf(symm,tight,novaracc,noincfock,fulldiag) stable(crhf) geom
 =nocrowd test
 ----------------------------------------------------------------------

 ----------------------------------------------------------------------
 hf stability analysis of h10 triangular lattice, y= 1.2377217382351597
 ----------------------------------------------------------------------
 Symbolic Z-matrix:
 Charge =  0 Multiplicity = 1

                         Standard orientation:
 ---------------------------------------------------------------------
 Center     Atomic      Atomic             Coordinates (Angstroms)
 Number     Number       Type             X           Y           Z
 ---------------------------------------------------------------------
      1          1           0        0.000000    1.237722    0.932924
      2          1           0        0.000000    0.000000    1.399386
      3          1           0        0.000000    0.000000    0.466462
      4          1           0       -0.000000   -1.237722    0.932924
      5          1           0       -0.000000    1.237722    0.000000
      6          1           0       -0.000000   -1.237722   -0.000000
      7          1           0        0.000000    0.000000   -0.466462
      8          1           0        0.000000    1.237722   -0.932924
      9          1           0       -0.000000   -1.237722   -0.932924
     10          1           0        0.000000    0.000000   -1.399386
 ---------------------------------------------------------------------

 SCF Done:  E(RHF) =  -4.91322832592     A.U. after    9 cycles
 E2 =    -0.9257081109D-01 EUMP2 =    -0.50057991370082D+01

 The electronic state is 1-AG.
 Alpha  occ. eigenvalues --   -0.94314  -0.68046  -0.66402  -0.42953  -0.30519
 Alpha virt. eigenvalues --    0.00309   0.14377   0.54525   0.61956   0.76194

 Mulliken charges:
               1
     1  H   -0.085719
     2  H    0.288901
     3  H   -0.039392
     4  H   -0.085719
     5  H   -0.078070
     6  H   -0.078070
     7  H   -0.039392
     8  H   -0.085719
     9  H   -0.085719
    10  H    0.288901
 Sum of Mulliken charges =   0.00000

 Dipole moment (field-independent basis, Debye):
    X=              0.0000    Y=             -0.0000    Z=             -0.0000  Tot=              0.0000
 Quadrupole moment (field-independent basis, Debye-Ang):
   XX=            -12.6035   YY=            -21.3287   ZZ=             -9.7434
   XY=             -0.0000   XZ=             -0.0000   YZ=             -0.0000

 Normal termination of Gaussian 09 at Thu Feb  9 16:23:44 2017.
