 Gaussian 09, Revision E.01,
 Gaussian 09:  ES64L-G09RevE.01 30-Nov-2015

 ----------------------------------------------------------------------
 #rhf/gen scf(symm,tight,novaracc,noincfock,fulldiag) stable(crhf) geom
 =nocrowd test
 ----------------------------------------------------------------------

 hf stability analysis of h10 triangular lattice, y= 0.9339599336918161
 8
 ----------------------------------------------------------------------
 Symbolic Z-matrix:
 Charge =  0 Multiplicity = 1

                         Standard orientation:
 ---------------------------------------------------------------------
 Center     Atomic      Atomic             Coordinates (Angstroms)
 Number     Number       Type             X           Y           Z
 ---------------------------------------------------------------------
      1          1           0        0.000000    0.933960    1.236349
      2          1           0       -0.000000    0.000000    1.854524
      3          1           0       -0.000000    0.000000    0.618175
      4          1           0       -0.000000   -0.933960    1.236349
      5          1           0       -0.000000    0.933960    0.000000
      6          1           0       -0.000000   -0.933960    0.000000
      7          1           0        0.000000    0.000000   -0.618175
      8          1           0        0.000000    0.933960   -1.236349
      9          1           0       -0.000000   -0.933960   -1.236349
     10          1           0        0.000000    0.000000   -1.854524
 ---------------------------------------------------------------------

 SCF Done:  E(RHF) =  -4.96889060430     A.U. after    8 cycles
 E2 =    -0.9821882611D-01 EUMP2 =    -0.50671094304066D+01

 The electronic state is 1-AG.
 Alpha  occ. eigenvalues --   -0.95842  -0.73902  -0.57795  -0.43595  -0.33109
 Alpha virt. eigenvalues --    0.14899   0.20359   0.22863   0.45184   0.55611

 Mulliken charges:
               1
     1  H   -0.122581
     2  H    0.062074
     3  H    0.098517
     4  H   -0.122581
     5  H    0.084572
     6  H    0.084572
     7  H    0.098517
     8  H   -0.122581
     9  H   -0.122581
    10  H    0.062074
 Sum of Mulliken charges =  -0.00000

 Dipole moment (field-independent basis, Debye):
    X=              0.0000    Y=             -0.0000    Z=             -0.0000  Tot=              0.0000
 Quadrupole moment (field-independent basis, Debye-Ang):
   XX=            -12.8887   YY=            -16.3162   ZZ=            -17.2562
   XY=             -0.0000   XZ=              0.0000   YZ=             -0.0000

 Normal termination of Gaussian 09 at Thu Feb  9 16:14:46 2017.
