 Gaussian 09, Revision E.01,
 Gaussian 09:  ES64L-G09RevE.01 30-Nov-2015

 ----------------------------------------------------------------------
 #rhf/gen scf(symm,tight,novaracc,noincfock,fulldiag) stable(crhf) geom
 =nocrowd test
 ----------------------------------------------------------------------

 ----------------------------------------------------------------------
 hf stability analysis of h10 triangular lattice, y= 1.1002000313062268
 ----------------------------------------------------------------------
 Symbolic Z-matrix:
 Charge =  0 Multiplicity = 1

                         Standard orientation:
 ---------------------------------------------------------------------
 Center     Atomic      Atomic             Coordinates (Angstroms)
 Number     Number       Type             X           Y           Z
 ---------------------------------------------------------------------
      1          1           0        0.000000    1.100200    1.049537
      2          1           0        0.000000    0.000000    1.574305
      3          1           0        0.000000    0.000000    0.524768
      4          1           0       -0.000000   -1.100200    1.049537
      5          1           0       -0.000000    1.100200   -0.000000
      6          1           0       -0.000000   -1.100200    0.000000
      7          1           0        0.000000   -0.000000   -0.524768
      8          1           0        0.000000    1.100200   -1.049537
      9          1           0       -0.000000   -1.100200   -1.049537
     10          1           0        0.000000   -0.000000   -1.574305
 ---------------------------------------------------------------------

 SCF Done:  E(RHF) =  -4.83872897481     A.U. after   11 cycles
 E2 =    -0.1108949593D+00 EUMP2 =    -0.49496239340957D+01

 The electronic state is 1-AG.
 Alpha  occ. eigenvalues --   -0.97509  -0.70535  -0.65406  -0.34144  -0.33902
 Alpha virt. eigenvalues --   -0.02176   0.24635   0.34458   0.41157   0.66240

 Mulliken charges:
               1
     1  H   -0.024006
     2  H   -0.108075
     3  H    0.130381
     4  H   -0.024006
     5  H    0.025706
     6  H    0.025706
     7  H    0.130381
     8  H   -0.024006
     9  H   -0.024006
    10  H   -0.108075
 Sum of Mulliken charges =  -0.00000

 Dipole moment (field-independent basis, Debye):
    X=             -0.0000    Y=             -0.0000    Z=             -0.0000  Tot=              0.0000
 Quadrupole moment (field-independent basis, Debye-Ang):
   XX=            -12.7539   YY=            -13.9931   ZZ=            -20.2689
   XY=             -0.0000   XZ=              0.0000   YZ=              0.0000

 Normal termination of Gaussian 09 at Thu Feb  9 16:20:20 2017.
