 Gaussian 09, Revision E.01,
 Gaussian 09:  ES64L-G09RevE.01 30-Nov-2015

 ----------------------------------------------------------------------
 #rhf/gen scf(symm,tight,novaracc,noincfock,fulldiag) stable(crhf) geom
 =nocrowd test
 ----------------------------------------------------------------------

 ----------------------------------------------------------------------
 hf stability analysis of h10 triangular lattice, y= 1.4120005093904389
 ----------------------------------------------------------------------
 Symbolic Z-matrix:
 Charge =  0 Multiplicity = 1

                         Standard orientation:
 ---------------------------------------------------------------------
 Center     Atomic      Atomic             Coordinates (Angstroms)
 Number     Number       Type             X           Y           Z
 ---------------------------------------------------------------------
      1          1           0       -0.000000    1.412000    0.817776
      2          1           0       -0.000000   -0.000000    1.226665
      3          1           0       -0.000000   -0.000000    0.408888
      4          1           0       -0.000000   -1.412000    0.817776
      5          1           0       -0.000000    1.412000    0.000000
      6          1           0       -0.000000   -1.412000   -0.000000
      7          1           0        0.000000    0.000000   -0.408888
      8          1           0        0.000000    1.412000   -0.817776
      9          1           0       -0.000000   -1.412000   -0.817776
     10          1           0        0.000000    0.000000   -1.226665
 ---------------------------------------------------------------------

 SCF Done:  E(RHF) =  -4.94335543610     A.U. after    8 cycles
 E2 =    -0.8840845703D-01 EUMP2 =    -0.50317638931305D+01

 The electronic state is 1-AG.
 Alpha  occ. eigenvalues --   -0.95613  -0.72953  -0.63056  -0.56941  -0.27970
 Alpha virt. eigenvalues --    0.06991   0.09913   0.69675   0.84589   0.87094

 Mulliken charges:
               1
     1  H   -0.044205
     2  H    0.270177
     3  H   -0.069665
     4  H   -0.044205
     5  H   -0.112103
     6  H   -0.112103
     7  H   -0.069665
     8  H   -0.044205
     9  H   -0.044205
    10  H    0.270177
 Sum of Mulliken charges =  -0.00000

 Dipole moment (field-independent basis, Debye):
    X=              0.0000    Y=             -0.0000    Z=             -0.0000  Tot=              0.0000
 Quadrupole moment (field-independent basis, Debye-Ang):
   XX=            -12.6135   YY=            -20.4346   ZZ=            -11.4735
   XY=             -0.0000   XZ=             -0.0000   YZ=              0.0000

 Normal termination of Gaussian 09 at Thu Feb  9 16:26:53 2017.
