 Gaussian 09, Revision E.01,
 Gaussian 09:  ES64L-G09RevE.01 30-Nov-2015

 ----------------------------------------------------------------------
 #rhf/gen scf(symm,tight,novaracc,noincfock,fulldiag) stable(crhf) geom
 =nocrowd test
 ----------------------------------------------------------------------

 hf stability analysis of h10 triangular lattice, y= 0.8889855389276178
 9
 ----------------------------------------------------------------------
 Symbolic Z-matrix:
 Charge =  0 Multiplicity = 1

                         Standard orientation:
 ---------------------------------------------------------------------
 Center     Atomic      Atomic             Coordinates (Angstroms)
 Number     Number       Type             X           Y           Z
 ---------------------------------------------------------------------
      1          1           0        0.000000    0.888986    1.298897
      2          1           0        0.000000    0.000000    1.948345
      3          1           0        0.000000    0.000000    0.649448
      4          1           0       -0.000000   -0.888986    1.298897
      5          1           0       -0.000000    0.888986    0.000000
      6          1           0       -0.000000   -0.888986   -0.000000
      7          1           0        0.000000   -0.000000   -0.649448
      8          1           0        0.000000    0.888986   -1.298897
      9          1           0       -0.000000   -0.888986   -1.298897
     10          1           0        0.000000   -0.000000   -1.948345
 ---------------------------------------------------------------------

 SCF Done:  E(RHF) =  -4.96552662819     A.U. after    8 cycles
 E2 =    -0.9682797655D-01 EUMP2 =    -0.50623546047405D+01

 The electronic state is 1-AG.
 Alpha  occ. eigenvalues --   -0.94982  -0.74494  -0.55256  -0.45953  -0.32196
 Alpha virt. eigenvalues --    0.10126   0.20356   0.27739   0.48895   0.51279

 Mulliken charges:
               1
     1  H   -0.142108
     2  H    0.103299
     3  H    0.100756
     4  H   -0.142108
     5  H    0.080161
     6  H    0.080161
     7  H    0.100756
     8  H   -0.142108
     9  H   -0.142108
    10  H    0.103299
 Sum of Mulliken charges =   0.00000

 Dipole moment (field-independent basis, Debye):
    X=              0.0000    Y=              0.0000    Z=              0.0000  Tot=              0.0000
 Quadrupole moment (field-independent basis, Debye-Ang):
   XX=            -12.9189   YY=            -16.9204   ZZ=            -16.0100
   XY=             -0.0000   XZ=             -0.0000   YZ=             -0.0000

 Normal termination of Gaussian 09 at Thu Feb  9 16:12:53 2017.
