 Gaussian 09, Revision E.01,
 Gaussian 09:  ES64L-G09RevE.01 30-Nov-2015

 ----------------------------------------------------------------------
 #rhf/gen scf(symm,tight,novaracc,noincfock,fulldiag) stable(crhf) geom
 =nocrowd test
 ----------------------------------------------------------------------

 ----------------------------------------------------------------------
 hf stability analysis of h10 triangular lattice, y= 1.3938703047871841
 ----------------------------------------------------------------------
 Symbolic Z-matrix:
 Charge =  0 Multiplicity = 1

                         Standard orientation:
 ---------------------------------------------------------------------
 Center     Atomic      Atomic             Coordinates (Angstroms)
 Number     Number       Type             X           Y           Z
 ---------------------------------------------------------------------
      1          1           0       -0.000000    1.393870    0.828413
      2          1           0        0.000000    0.000000    1.242620
      3          1           0        0.000000    0.000000    0.414207
      4          1           0       -0.000000   -1.393870    0.828413
      5          1           0       -0.000000    1.393870   -0.000000
      6          1           0       -0.000000   -1.393870    0.000000
      7          1           0        0.000000   -0.000000   -0.414207
      8          1           0        0.000000    1.393870   -0.828413
      9          1           0       -0.000000   -1.393870   -0.828413
     10          1           0        0.000000   -0.000000   -1.242620
 ---------------------------------------------------------------------

 SCF Done:  E(RHF) =  -4.94872636401     A.U. after    8 cycles
 E2 =    -0.8810640342D-01 EUMP2 =    -0.50368327674337D+01

 The electronic state is 1-AG.
 Alpha  occ. eigenvalues --   -0.95484  -0.72479  -0.63384  -0.55641  -0.28274
 Alpha virt. eigenvalues --    0.07641   0.08893   0.68106   0.83670   0.84399

 Mulliken charges:
               1
     1  H   -0.050259
     2  H    0.273883
     3  H   -0.067251
     4  H   -0.050259
     5  H   -0.106113
     6  H   -0.106113
     7  H   -0.067251
     8  H   -0.050259
     9  H   -0.050259
    10  H    0.273883
 Sum of Mulliken charges =   0.00000

 Dipole moment (field-independent basis, Debye):
    X=              0.0000    Y=             -0.0000    Z=             -0.0000  Tot=              0.0000
 Quadrupole moment (field-independent basis, Debye-Ang):
   XX=            -12.6150   YY=            -20.5603   ZZ=            -11.3045
   XY=             -0.0000   XZ=             -0.0000   YZ=              0.0000

 Normal termination of Gaussian 09 at Thu Feb  9 16:26:36 2017.
