 Gaussian 09, Revision E.01,
 Gaussian 09:  ES64L-G09RevE.01 30-Nov-2015

 ----------------------------------------------------------------------
 #rhf/gen scf(symm,tight,novaracc,noincfock,fulldiag) stable(crhf) geom
 =nocrowd test
 ----------------------------------------------------------------------

 ----------------------------------------------------------------------
 hf stability analysis of h10 triangular lattice, y= 1.3193366771142014
 ----------------------------------------------------------------------
 Symbolic Z-matrix:
 Charge =  0 Multiplicity = 1

                         Standard orientation:
 ---------------------------------------------------------------------
 Center     Atomic      Atomic             Coordinates (Angstroms)
 Number     Number       Type             X           Y           Z
 ---------------------------------------------------------------------
      1          1           0       -0.000000    1.319337    0.875213
      2          1           0        0.000000    0.000000    1.312819
      3          1           0        0.000000    0.000000    0.437606
      4          1           0       -0.000000   -1.319337    0.875213
      5          1           0       -0.000000    1.319337   -0.000000
      6          1           0       -0.000000   -1.319337    0.000000
      7          1           0        0.000000   -0.000000   -0.437606
      8          1           0        0.000000    1.319337   -0.875213
      9          1           0       -0.000000   -1.319337   -0.875213
     10          1           0        0.000000   -0.000000   -1.312819
 ---------------------------------------------------------------------

 SCF Done:  E(RHF) =  -4.95107619000     A.U. after    9 cycles
 E2 =    -0.8848034271D-01 EUMP2 =    -0.50395565327108D+01

 The electronic state is 1-AG.
 Alpha  occ. eigenvalues --   -0.94925  -0.70440  -0.64776  -0.49918  -0.29448
 Alpha virt. eigenvalues --    0.04719   0.10615   0.61644   0.73519   0.80036

 Mulliken charges:
               1
     1  H   -0.072556
     2  H    0.287375
     3  H   -0.056832
     4  H   -0.072556
     5  H   -0.085432
     6  H   -0.085432
     7  H   -0.056832
     8  H   -0.072556
     9  H   -0.072556
    10  H    0.287375
 Sum of Mulliken charges =  -0.00000

 Dipole moment (field-independent basis, Debye):
    X=              0.0000    Y=             -0.0000    Z=              0.0000  Tot=              0.0000
 Quadrupole moment (field-independent basis, Debye-Ang):
   XX=            -12.6153   YY=            -21.0211   ZZ=            -10.5553
   XY=             -0.0000   XZ=             -0.0000   YZ=             -0.0000

 Normal termination of Gaussian 09 at Thu Feb  9 16:25:21 2017.
