 Gaussian 09, Revision E.01,
 Gaussian 09:  ES64L-G09RevE.01 30-Nov-2015

 ----------------------------------------------------------------------
 #rhf/gen scf(symm,tight,novaracc,noincfock,fulldiag) stable(crhf) geom
 =nocrowd test
 ----------------------------------------------------------------------

 hf stability analysis of h10 triangular lattice, y= 0.9880516456752955
 8
 ----------------------------------------------------------------------
 Symbolic Z-matrix:
 Charge =  0 Multiplicity = 1

                         Standard orientation:
 ---------------------------------------------------------------------
 Center     Atomic      Atomic             Coordinates (Angstroms)
 Number     Number       Type             X           Y           Z
 ---------------------------------------------------------------------
      1          1           0        0.000000    0.988052    1.168664
      2          1           0        0.000000    0.000000    1.752996
      3          1           0        0.000000    0.000000    0.584332
      4          1           0       -0.000000   -0.988052    1.168664
      5          1           0       -0.000000    0.988052    0.000000
      6          1           0       -0.000000   -0.988052   -0.000000
      7          1           0        0.000000   -0.000000   -0.584332
      8          1           0        0.000000    0.988052   -1.168664
      9          1           0       -0.000000   -0.988052   -1.168664
     10          1           0        0.000000   -0.000000   -1.752996
 ---------------------------------------------------------------------

 SCF Done:  E(RHF) =  -4.95013459535     A.U. after    8 cycles
 E2 =    -0.1009853725D+00 EUMP2 =    -0.50511199678768D+01

 The electronic state is 1-AG.
 Alpha  occ. eigenvalues --   -0.96607  -0.72940  -0.60548  -0.40617  -0.33851
 Alpha virt. eigenvalues --    0.12249   0.20559   0.26242   0.40979   0.59875

 Mulliken charges:
               1
     1  H   -0.099852
     2  H    0.013122
     3  H    0.101939
     4  H   -0.099852
     5  H    0.084643
     6  H    0.084643
     7  H    0.101939
     8  H   -0.099852
     9  H   -0.099852
    10  H    0.013122
 Sum of Mulliken charges =  -0.00000

 Dipole moment (field-independent basis, Debye):
    X=              0.0000    Y=              0.0000    Z=              0.0000  Tot=              0.0000
 Quadrupole moment (field-independent basis, Debye-Ang):
   XX=            -12.8512   YY=            -15.5698   ZZ=            -18.5184
   XY=             -0.0000   XZ=              0.0000   YZ=              0.0000

 Normal termination of Gaussian 09 at Thu Feb  9 16:16:43 2017.
