 Gaussian 09, Revision E.01,
 Gaussian 09:  ES64L-G09RevE.01 30-Nov-2015

 ----------------------------------------------------------------------
 #rhf/gen scf(symm,tight,novaracc,noincfock,fulldiag) stable(crhf) geom
 =nocrowd test
 ----------------------------------------------------------------------

 ----------------------------------------------------------------------
 hf stability analysis of h10 triangular lattice, y= 1.4941379400594756
 ----------------------------------------------------------------------
 Symbolic Z-matrix:
 Charge =  0 Multiplicity = 1

                         Standard orientation:
 ---------------------------------------------------------------------
 Center     Atomic      Atomic             Coordinates (Angstroms)
 Number     Number       Type             X           Y           Z
 ---------------------------------------------------------------------
      1          1           0       -0.000000    1.494138    0.772821
      2          1           0       -0.000000    0.000000    1.159231
      3          1           0       -0.000000    0.000000    0.386410
      4          1           0       -0.000000   -1.494138    0.772821
      5          1           0       -0.000000    1.494138   -0.000000
      6          1           0       -0.000000   -1.494138    0.000000
      7          1           0        0.000000   -0.000000   -0.386410
      8          1           0        0.000000    1.494138   -0.772821
      9          1           0       -0.000000   -1.494138   -0.772821
     10          1           0        0.000000   -0.000000   -1.159231
 ---------------------------------------------------------------------

 SCF Done:  E(RHF) =  -4.89822245079     A.U. after    8 cycles
 E2 =    -0.9155188234D-01 EUMP2 =    -0.49897743331317D+01

 The electronic state is 1-AG.
 Alpha  occ. eigenvalues --   -0.96166  -0.75006  -0.62410  -0.61628  -0.26535
 Alpha virt. eigenvalues --    0.04392   0.14537   0.76762   0.88953   0.99524

 Mulliken charges:
               1
     1  H   -0.015064
     2  H    0.253418
     3  H   -0.081047
     4  H   -0.015064
     5  H   -0.142243
     6  H   -0.142243
     7  H   -0.081047
     8  H   -0.015064
     9  H   -0.015064
    10  H    0.253418
 Sum of Mulliken charges =  -0.00000

 Dipole moment (field-independent basis, Debye):
    X=              0.0000    Y=             -0.0000    Z=              0.0000  Tot=              0.0000
 Quadrupole moment (field-independent basis, Debye-Ang):
   XX=            -12.6001   YY=            -19.8169   ZZ=            -12.1642
   XY=             -0.0000   XZ=             -0.0000   YZ=             -0.0000

 Normal termination of Gaussian 09 at Thu Feb  9 16:28:02 2017.
