 Gaussian 09, Revision E.01,
 Gaussian 09:  ES64L-G09RevE.01 30-Nov-2015

 ----------------------------------------------------------------------
 #rhf/gen scf(symm,tight,novaracc,noincfock,fulldiag) stable(crhf) geom
 =nocrowd test
 ----------------------------------------------------------------------

 ----------------------------------------------------------------------
 hf stability analysis of h10 triangular lattice, y= 2.0463576738314897
 ----------------------------------------------------------------------
 Symbolic Z-matrix:
 Charge =  0 Multiplicity = 1

                         Standard orientation:
 ---------------------------------------------------------------------
 Center     Atomic      Atomic             Coordinates (Angstroms)
 Number     Number       Type             X           Y           Z
 ---------------------------------------------------------------------
      1          1           0        0.000000    2.046358    0.564271
      2          1           0        0.000000    0.000000    0.846407
      3          1           0        0.000000    0.000000    0.282136
      4          1           0       -0.000000   -2.046358    0.564271
      5          1           0       -0.000000    2.046358    0.000000
      6          1           0       -0.000000   -2.046358    0.000000
      7          1           0        0.000000   -0.000000   -0.282136
      8          1           0        0.000000    2.046358   -0.564271
      9          1           0       -0.000000   -2.046358   -0.564271
     10          1           0        0.000000   -0.000000   -0.846407
 ---------------------------------------------------------------------

 SCF Done:  E(RHF) =  -4.01543342891     A.U. after    7 cycles
 E2 =    -0.1754355750D+00 EUMP2 =    -0.41908690039111D+01

 The electronic state is 1-AG.
 Alpha  occ. eigenvalues --   -1.01266  -0.86536  -0.85436  -0.55169  -0.17140
 Alpha virt. eigenvalues --   -0.01923   0.43539   1.23090   1.25925   1.90424

 Mulliken charges:
               1
     1  H    0.192664
     2  H    0.231139
     3  H   -0.197420
     4  H    0.192664
     5  H   -0.419048
     6  H   -0.419048
     7  H   -0.197420
     8  H    0.192664
     9  H    0.192664
    10  H    0.231139
 Sum of Mulliken charges =  -0.00000

 Dipole moment (field-independent basis, Debye):
    X=              0.0000    Y=             -0.0000    Z=             -0.0000  Tot=              0.0000
 Quadrupole moment (field-independent basis, Debye-Ang):
   XX=            -12.3383   YY=            -15.2241   ZZ=            -14.4183
   XY=             -0.0000   XZ=              0.0000   YZ=             -0.0000

 Normal termination of Gaussian 09 at Thu Feb  9 16:32:39 2017.
