 Gaussian 09, Revision E.01,
 Gaussian 09:  ES64L-G09RevE.01 30-Nov-2015

 ----------------------------------------------------------------------
 #rhf/gen scf(symm,tight,novaracc,noincfock,fulldiag) stable(crhf) geom
 =nocrowd test
 ----------------------------------------------------------------------

 hf stability analysis of h10 triangular lattice, y= 0.9989933810987597
 9
 ----------------------------------------------------------------------
 Symbolic Z-matrix:
 Charge =  0 Multiplicity = 1

                         Standard orientation:
 ---------------------------------------------------------------------
 Center     Atomic      Atomic             Coordinates (Angstroms)
 Number     Number       Type             X           Y           Z
 ---------------------------------------------------------------------
      1          1           0        0.000000    0.998993    1.155864
      2          1           0        0.000000    0.000000    1.733796
      3          1           0        0.000000    0.000000    0.577932
      4          1           0       -0.000000   -0.998993    1.155864
      5          1           0       -0.000000    0.998993   -0.000000
      6          1           0       -0.000000   -0.998993    0.000000
      7          1           0        0.000000   -0.000000   -0.577932
      8          1           0        0.000000    0.998993   -1.155864
      9          1           0       -0.000000   -0.998993   -1.155864
     10          1           0        0.000000   -0.000000   -1.733796
 ---------------------------------------------------------------------

 SCF Done:  E(RHF) =  -4.94340052686     A.U. after    9 cycles
 E2 =    -0.1016937564D+00 EUMP2 =    -0.50450942832131D+01

 The electronic state is 1-AG.
 Alpha  occ. eigenvalues --   -0.96731  -0.72720  -0.61069  -0.39998  -0.33958
 Alpha virt. eigenvalues --    0.10705   0.21612   0.26968   0.40271   0.60622

 Mulliken charges:
               1
     1  H   -0.095168
     2  H    0.003166
     3  H    0.103288
     4  H   -0.095168
     5  H    0.083882
     6  H    0.083882
     7  H    0.103288
     8  H   -0.095168
     9  H   -0.095168
    10  H    0.003166
 Sum of Mulliken charges =  -0.00000

 Dipole moment (field-independent basis, Debye):
    X=              0.0000    Y=             -0.0000    Z=             -0.0000  Tot=              0.0000
 Quadrupole moment (field-independent basis, Debye-Ang):
   XX=            -12.8434   YY=            -15.4158   ZZ=            -18.7463
   XY=             -0.0000   XZ=              0.0000   YZ=             -0.0000

 Normal termination of Gaussian 09 at Thu Feb  9 16:17:07 2017.
