 Gaussian 09, Revision E.01,
 Gaussian 09:  ES64L-G09RevE.01 30-Nov-2015

 ----------------------------------------------------------------------
 #rhf/gen scf(symm,tight,novaracc,noincfock,fulldiag) stable(crhf) geom
 =nocrowd test
 ----------------------------------------------------------------------

 ----------------------------------------------------------------------
 hf stability analysis of h10 triangular lattice, y= 1.2577599974754754
 ----------------------------------------------------------------------
 Symbolic Z-matrix:
 Charge =  0 Multiplicity = 1

                         Standard orientation:
 ---------------------------------------------------------------------
 Center     Atomic      Atomic             Coordinates (Angstroms)
 Number     Number       Type             X           Y           Z
 ---------------------------------------------------------------------
      1          1           0       -0.000000    1.257760    0.918061
      2          1           0       -0.000000   -0.000000    1.377092
      3          1           0       -0.000000   -0.000000    0.459031
      4          1           0       -0.000000   -1.257760    0.918061
      5          1           0       -0.000000    1.257760    0.000000
      6          1           0       -0.000000   -1.257760   -0.000000
      7          1           0        0.000000    0.000000   -0.459031
      8          1           0        0.000000    1.257760   -0.918061
      9          1           0       -0.000000   -1.257760   -0.918061
     10          1           0        0.000000    0.000000   -1.377092
 ---------------------------------------------------------------------

 SCF Done:  E(RHF) =  -4.92666620969     A.U. after    8 cycles
 E2 =    -0.9110799175D-01 EUMP2 =    -0.50177742014351D+01

 The electronic state is 1-AG.
 Alpha  occ. eigenvalues --   -0.94453  -0.68646  -0.65988  -0.44728  -0.30283
 Alpha virt. eigenvalues --    0.01359   0.13412   0.56286   0.64766   0.77140

 Mulliken charges:
               1
     1  H   -0.084592
     2  H    0.291421
     3  H   -0.045041
     4  H   -0.084592
     5  H   -0.077195
     6  H   -0.077195
     7  H   -0.045041
     8  H   -0.084592
     9  H   -0.084592
    10  H    0.291421
 Sum of Mulliken charges =  -0.00000

 Dipole moment (field-independent basis, Debye):
    X=              0.0000    Y=             -0.0000    Z=             -0.0000  Tot=              0.0000
 Quadrupole moment (field-independent basis, Debye-Ang):
   XX=            -12.6077   YY=            -21.2889   ZZ=             -9.9209
   XY=             -0.0000   XZ=             -0.0000   YZ=             -0.0000

 Normal termination of Gaussian 09 at Thu Feb  9 16:24:10 2017.
