 Gaussian 09, Revision E.01,
 Gaussian 09:  ES64L-G09RevE.01 30-Nov-2015

 ----------------------------------------------------------------------
 #rhf/gen scf(symm,tight,novaracc,noincfock,fulldiag) stable(crhf) geom
 =nocrowd test
 ----------------------------------------------------------------------

 hf stability analysis of h10 triangular lattice, y= 0.8777001811777626
 1
 ----------------------------------------------------------------------
 Symbolic Z-matrix:
 Charge =  0 Multiplicity = 1

                         Standard orientation:
 ---------------------------------------------------------------------
 Center     Atomic      Atomic             Coordinates (Angstroms)
 Number     Number       Type             X           Y           Z
 ---------------------------------------------------------------------
      1          1           0        0.000000    0.877700    1.315598
      2          1           0        0.000000   -0.000000    1.973397
      3          1           0        0.000000   -0.000000    0.657799
      4          1           0       -0.000000   -0.877700    1.315598
      5          1           0       -0.000000    0.877700    0.000000
      6          1           0       -0.000000   -0.877700   -0.000000
      7          1           0        0.000000    0.000000   -0.657799
      8          1           0        0.000000    0.877700   -1.315598
      9          1           0       -0.000000   -0.877700   -1.315598
     10          1           0        0.000000    0.000000   -1.973397
 ---------------------------------------------------------------------

 SCF Done:  E(RHF) =  -4.96192689282     A.U. after    8 cycles
 E2 =    -0.9660736509D-01 EUMP2 =    -0.50585342579071D+01

 The electronic state is 1-AG.
 Alpha  occ. eigenvalues --   -0.94729  -0.74608  -0.54579  -0.46526  -0.31919
 Alpha virt. eigenvalues --    0.08956   0.19776   0.29679   0.49783   0.50080

 Mulliken charges:
               1
     1  H   -0.147217
     2  H    0.113791
     3  H    0.102251
     4  H   -0.147217
     5  H    0.078393
     6  H    0.078393
     7  H    0.102251
     8  H   -0.147217
     9  H   -0.147217
    10  H    0.113791
 Sum of Mulliken charges =  -0.00000

 Dipole moment (field-independent basis, Debye):
    X=              0.0000    Y=              0.0000    Z=              0.0000  Tot=              0.0000
 Quadrupole moment (field-independent basis, Debye-Ang):
   XX=            -12.9264   YY=            -17.0698   ZZ=            -15.6651
   XY=             -0.0000   XZ=             -0.0000   YZ=             -0.0000

 Normal termination of Gaussian 09 at Thu Feb  9 16:12:24 2017.
