 Gaussian 09, Revision E.01,
 Gaussian 09:  ES64L-G09RevE.01 30-Nov-2015

 ----------------------------------------------------------------------
 #rhf/gen scf(symm,tight,novaracc,noincfock,fulldiag) stable(crhf) geom
 =nocrowd test
 ----------------------------------------------------------------------

 ----------------------------------------------------------------------
 hf stability analysis of h10 triangular lattice, y= 1.9256298803302931
 ----------------------------------------------------------------------
 Symbolic Z-matrix:
 Charge =  0 Multiplicity = 1

                         Standard orientation:
 ---------------------------------------------------------------------
 Center     Atomic      Atomic             Coordinates (Angstroms)
 Number     Number       Type             X           Y           Z
 ---------------------------------------------------------------------
      1          1           0       -0.000000    1.925630    0.599648
      2          1           0       -0.000000   -0.000000    0.899472
      3          1           0       -0.000000   -0.000000    0.299824
      4          1           0       -0.000000   -1.925630    0.599648
      5          1           0       -0.000000    1.925630    0.000000
      6          1           0       -0.000000   -1.925630    0.000000
      7          1           0        0.000000   -0.000000   -0.299824
      8          1           0        0.000000    1.925630   -0.599648
      9          1           0       -0.000000   -1.925630   -0.599648
     10          1           0        0.000000   -0.000000   -0.899472
 ---------------------------------------------------------------------

 SCF Done:  E(RHF) =  -4.26920164188     A.U. after    7 cycles
 E2 =    -0.1501552527D+00 EUMP2 =    -0.44193568946177D+01

 The electronic state is 1-AG.
 Alpha  occ. eigenvalues --   -0.99643  -0.84241  -0.81994  -0.56087  -0.19016
 Alpha virt. eigenvalues --   -0.01748   0.37690   1.13093   1.16970   1.69715

 Mulliken charges:
               1
     1  H    0.148631
     2  H    0.218672
     3  H   -0.166270
     4  H    0.148631
     5  H   -0.349663
     6  H   -0.349663
     7  H   -0.166270
     8  H    0.148631
     9  H    0.148631
    10  H    0.218672
 Sum of Mulliken charges =  -0.00000

 Dipole moment (field-independent basis, Debye):
    X=              0.0000    Y=             -0.0000    Z=             -0.0000  Tot=              0.0000
 Quadrupole moment (field-independent basis, Debye-Ang):
   XX=            -12.4089   YY=            -16.1127   ZZ=            -14.1635
   XY=             -0.0000   XZ=              0.0000   YZ=              0.0000

 Normal termination of Gaussian 09 at Thu Feb  9 16:31:58 2017.
