 Gaussian 09, Revision E.01,
 Gaussian 09:  ES64L-G09RevE.01 30-Nov-2015

 ----------------------------------------------------------------------
 #rhf/gen scf(symm,tight,novaracc,noincfock,fulldiag) stable(crhf) geom
 =nocrowd test
 ----------------------------------------------------------------------

 ----------------------------------------------------------------------
 hf stability analysis of h10 triangular lattice, y= 1.5448237333921728
 ----------------------------------------------------------------------
 Symbolic Z-matrix:
 Charge =  0 Multiplicity = 1

                         Standard orientation:
 ---------------------------------------------------------------------
 Center     Atomic      Atomic             Coordinates (Angstroms)
 Number     Number       Type             X           Y           Z
 ---------------------------------------------------------------------
      1          1           0       -0.000000    1.544824    0.747464
      2          1           0       -0.000000    0.000000    1.121196
      3          1           0       -0.000000    0.000000    0.373732
      4          1           0       -0.000000   -1.544824    0.747464
      5          1           0       -0.000000    1.544824    0.000000
      6          1           0       -0.000000   -1.544824    0.000000
      7          1           0        0.000000    0.000000   -0.373732
      8          1           0        0.000000    1.544824   -0.747464
      9          1           0       -0.000000   -1.544824   -0.747464
     10          1           0        0.000000    0.000000   -1.121196
 ---------------------------------------------------------------------

 SCF Done:  E(RHF) =  -4.85513757310     A.U. after    8 cycles
 E2 =    -0.9489390232D-01 EUMP2 =    -0.49500314754151D+01

 The electronic state is 1-AG.
 Alpha  occ. eigenvalues --   -0.96492  -0.76206  -0.65458  -0.60798  -0.25622
 Alpha virt. eigenvalues --    0.03062   0.17377   0.81111   0.91818   1.07370

 Mulliken charges:
               1
     1  H    0.003814
     2  H    0.243864
     3  H   -0.088734
     4  H    0.003814
     5  H   -0.162759
     6  H   -0.162759
     7  H   -0.088734
     8  H    0.003814
     9  H    0.003814
    10  H    0.243864
 Sum of Mulliken charges =  -0.00000

 Dipole moment (field-independent basis, Debye):
    X=              0.0000    Y=              0.0000    Z=              0.0000  Tot=              0.0000
 Quadrupole moment (field-independent basis, Debye-Ang):
   XX=            -12.5869   YY=            -19.4036   ZZ=            -12.5301
   XY=             -0.0000   XZ=             -0.0000   YZ=             -0.0000

 Normal termination of Gaussian 09 at Thu Feb  9 16:28:39 2017.
