 Gaussian 09, Revision E.01,
 Gaussian 09:  ES64L-G09RevE.01 30-Nov-2015

 ----------------------------------------------------------------------
 #rhf/gen scf(symm,tight,novaracc,noincfock,fulldiag) stable(crhf) geom
 =nocrowd test
 ----------------------------------------------------------------------

 ----------------------------------------------------------------------
 hf stability analysis of h10 triangular lattice, y= 1.0216234695124444
 ----------------------------------------------------------------------
 Symbolic Z-matrix:
 Charge =  0 Multiplicity = 1

                         Standard orientation:
 ---------------------------------------------------------------------
 Center     Atomic      Atomic             Coordinates (Angstroms)
 Number     Number       Type             X           Y           Z
 ---------------------------------------------------------------------
      1          1           0       -0.000000    1.021623    1.130260
      2          1           0        0.000000   -0.000000    1.695391
      3          1           0        0.000000   -0.000000    0.565130
      4          1           0       -0.000000   -1.021623    1.130260
      5          1           0       -0.000000    1.021623    0.000000
      6          1           0       -0.000000   -1.021623   -0.000000
      7          1           0        0.000000    0.000000   -0.565130
      8          1           0        0.000000    1.021623   -1.130260
      9          1           0       -0.000000   -1.021623   -1.130260
     10          1           0        0.000000    0.000000   -1.695391
 ---------------------------------------------------------------------

 SCF Done:  E(RHF) =  -4.92643967729     A.U. after    9 cycles
 E2 =    -0.1033241403D+00 EUMP2 =    -0.50297638176123D+01

 The electronic state is 1-AG.
 Alpha  occ. eigenvalues --   -0.96958  -0.72241  -0.62113  -0.38702  -0.34137
 Alpha virt. eigenvalues --    0.07607   0.23540   0.28510   0.39118   0.62057

 Mulliken charges:
               1
     1  H   -0.085103
     2  H   -0.017721
     3  H    0.106749
     4  H   -0.085103
     5  H    0.081178
     6  H    0.081178
     7  H    0.106749
     8  H   -0.085103
     9  H   -0.085103
    10  H   -0.017721
 Sum of Mulliken charges =  -0.00000

 Dipole moment (field-independent basis, Debye):
    X=              0.0000    Y=             -0.0000    Z=             -0.0000  Tot=              0.0000
 Quadrupole moment (field-independent basis, Debye-Ang):
   XX=            -12.8268   YY=            -15.0936   ZZ=            -19.1908
   XY=             -0.0000   XZ=              0.0000   YZ=             -0.0000

 Normal termination of Gaussian 09 at Thu Feb  9 16:17:52 2017.
