 Gaussian 09, Revision E.01,
 Gaussian 09:  ES64L-G09RevE.01 30-Nov-2015

 ----------------------------------------------------------------------
 #rhf/gen scf(symm,tight,novaracc,noincfock,fulldiag) stable(crhf) geom
 =nocrowd test
 ----------------------------------------------------------------------

 ----------------------------------------------------------------------
 hf stability analysis of h10 triangular lattice, y= 1.6660489144325314
 ----------------------------------------------------------------------
 Symbolic Z-matrix:
 Charge =  0 Multiplicity = 1

                         Standard orientation:
 ---------------------------------------------------------------------
 Center     Atomic      Atomic             Coordinates (Angstroms)
 Number     Number       Type             X           Y           Z
 ---------------------------------------------------------------------
      1          1           0       -0.000000    1.666049    0.693077
      2          1           0       -0.000000    0.000000    1.039616
      3          1           0       -0.000000    0.000000    0.346539
      4          1           0       -0.000000   -1.666049    0.693077
      5          1           0       -0.000000    1.666049    0.000000
      6          1           0       -0.000000   -1.666049    0.000000
      7          1           0        0.000000    0.000000   -0.346539
      8          1           0        0.000000    1.666049   -0.693077
      9          1           0       -0.000000   -1.666049   -0.693077
     10          1           0        0.000000    0.000000   -1.039616
 ---------------------------------------------------------------------

 SCF Done:  E(RHF) =  -4.71290853698     A.U. after    7 cycles
 E2 =    -0.1070561970D+00 EUMP2 =    -0.48199647340297D+01

 The electronic state is 1-AG.
 Alpha  occ. eigenvalues --   -0.97287  -0.78922  -0.71844  -0.58994  -0.23431
 Alpha virt. eigenvalues --    0.00635   0.24082   0.91414   0.99186   1.26625

 Mulliken charges:
               1
     1  H    0.050164
     2  H    0.225813
     3  H   -0.109694
     4  H    0.050164
     5  H   -0.216447
     6  H   -0.216447
     7  H   -0.109694
     8  H    0.050164
     9  H    0.050164
    10  H    0.225813
 Sum of Mulliken charges =  -0.00000

 Dipole moment (field-independent basis, Debye):
    X=              0.0000    Y=              0.0000    Z=             -0.0000  Tot=              0.0000
 Quadrupole moment (field-independent basis, Debye-Ang):
   XX=            -12.5428   YY=            -18.3522   ZZ=            -13.2380
   XY=             -0.0000   XZ=             -0.0000   YZ=              0.0000

 Normal termination of Gaussian 09 at Thu Feb  9 16:29:57 2017.
