 Gaussian 09, Revision E.01,
 Gaussian 09:  ES64L-G09RevE.01 30-Nov-2015

 ----------------------------------------------------------------------
 #rhf/gen scf(symm,tight,novaracc,noincfock,fulldiag) stable(crhf) geom
 =nocrowd test
 ----------------------------------------------------------------------

 hf stability analysis of h10 triangular lattice, y= 0.9199803762616741
 7
 ----------------------------------------------------------------------
 Symbolic Z-matrix:
 Charge =  0 Multiplicity = 1

                         Standard orientation:
 ---------------------------------------------------------------------
 Center     Atomic      Atomic             Coordinates (Angstroms)
 Number     Number       Type             X           Y           Z
 ---------------------------------------------------------------------
      1          1           0        0.000000    0.919980    1.255136
      2          1           0        0.000000    0.000000    1.882704
      3          1           0        0.000000    0.000000    0.627568
      4          1           0       -0.000000   -0.919980    1.255136
      5          1           0       -0.000000    0.919980    0.000000
      6          1           0       -0.000000   -0.919980   -0.000000
      7          1           0        0.000000   -0.000000   -0.627568
      8          1           0        0.000000    0.919980   -1.255136
      9          1           0       -0.000000   -0.919980   -1.255136
     10          1           0        0.000000   -0.000000   -1.882704
 ---------------------------------------------------------------------

 SCF Done:  E(RHF) =  -4.96971467115     A.U. after    8 cycles
 E2 =    -0.9769880356D-01 EUMP2 =    -0.50674134747019D+01

 The electronic state is 1-AG.
 Alpha  occ. eigenvalues --   -0.95598  -0.74109  -0.57032  -0.44340  -0.32856
 Alpha virt. eigenvalues --    0.13403   0.22052   0.22590   0.46349   0.54343

 Mulliken charges:
               1
     1  H   -0.128535
     2  H    0.074801
     3  H    0.098640
     4  H   -0.128535
     5  H    0.083629
     6  H    0.083629
     7  H    0.098640
     8  H   -0.128535
     9  H   -0.128535
    10  H    0.074801
 Sum of Mulliken charges =   0.00000

 Dipole moment (field-independent basis, Debye):
    X=              0.0000    Y=             -0.0000    Z=              0.0000  Tot=              0.0000
 Quadrupole moment (field-independent basis, Debye-Ang):
   XX=            -12.8982   YY=            -16.5055   ZZ=            -16.8897
   XY=             -0.0000   XZ=              0.0000   YZ=              0.0000

 Normal termination of Gaussian 09 at Thu Feb  9 16:14:11 2017.
