 Gaussian 09, Revision E.01,
 Gaussian 09:  ES64L-G09RevE.01 30-Nov-2015

 ----------------------------------------------------------------------
 #rhf/gen scf(symm,tight,novaracc,noincfock,fulldiag) stable(crhf) geom
 =nocrowd test
 ----------------------------------------------------------------------

 ----------------------------------------------------------------------
 hf stability analysis of h10 triangular lattice, y= 1.3389768002289641
 ----------------------------------------------------------------------
 Symbolic Z-matrix:
 Charge =  0 Multiplicity = 1

                         Standard orientation:
 ---------------------------------------------------------------------
 Center     Atomic      Atomic             Coordinates (Angstroms)
 Number     Number       Type             X           Y           Z
 ---------------------------------------------------------------------
      1          1           0        0.000000    1.338977    0.862375
      2          1           0        0.000000    0.000000    1.293563
      3          1           0        0.000000    0.000000    0.431188
      4          1           0       -0.000000   -1.338977    0.862375
      5          1           0       -0.000000    1.338977    0.000000
      6          1           0       -0.000000   -1.338977   -0.000000
      7          1           0        0.000000    0.000000   -0.431188
      8          1           0        0.000000    1.338977   -0.862375
      9          1           0       -0.000000   -1.338977   -0.862375
     10          1           0        0.000000    0.000000   -1.293563
 ---------------------------------------------------------------------

 SCF Done:  E(RHF) =  -4.95368996195     A.U. after    8 cycles
 E2 =    -0.8811529489D-01 EUMP2 =    -0.50418052568363D+01

 The electronic state is 1-AG.
 Alpha  occ. eigenvalues --   -0.95077  -0.70992  -0.64402  -0.51486  -0.29153
 Alpha virt. eigenvalues --    0.05813   0.09785   0.63348   0.76355   0.80975

 Mulliken charges:
               1
     1  H   -0.067211
     2  H    0.284283
     3  H   -0.059755
     4  H   -0.067211
     5  H   -0.090106
     6  H   -0.090106
     7  H   -0.059755
     8  H   -0.067211
     9  H   -0.067211
    10  H    0.284283
 Sum of Mulliken charges =  -0.00000

 Dipole moment (field-independent basis, Debye):
    X=              0.0000    Y=              0.0000    Z=              0.0000  Tot=              0.0000
 Quadrupole moment (field-independent basis, Debye-Ang):
   XX=            -12.6162   YY=            -20.9100   ZZ=            -10.7597
   XY=             -0.0000   XZ=             -0.0000   YZ=             -0.0000

 Normal termination of Gaussian 09 at Thu Feb  9 16:25:42 2017.
