 Gaussian 09, Revision E.01,
 Gaussian 09:  ES64L-G09RevE.01 30-Nov-2015

 ----------------------------------------------------------------------
 #rhf/gen scf(symm,tight,novaracc,noincfock,fulldiag) stable(crhf) geom
 =nocrowd test
 ----------------------------------------------------------------------

 ----------------------------------------------------------------------
 hf stability analysis of h10 triangular lattice, y= 1.1414311402849235
 ----------------------------------------------------------------------
 Symbolic Z-matrix:
 Charge =  0 Multiplicity = 1

                         Standard orientation:
 ---------------------------------------------------------------------
 Center     Atomic      Atomic             Coordinates (Angstroms)
 Number     Number       Type             X           Y           Z
 ---------------------------------------------------------------------
      1          1           0        0.000000    1.141431    1.011625
      2          1           0        0.000000   -0.000000    1.517438
      3          1           0        0.000000   -0.000000    0.505813
      4          1           0       -0.000000   -1.141431    1.011625
      5          1           0       -0.000000    1.141431    0.000000
      6          1           0       -0.000000   -1.141431   -0.000000
      7          1           0        0.000000    0.000000   -0.505813
      8          1           0        0.000000    1.141431   -1.011625
      9          1           0       -0.000000   -1.141431   -1.011625
     10          1           0        0.000000    0.000000   -1.517438
 ---------------------------------------------------------------------

 SCF Done:  E(RHF) =  -4.82300903343     A.U. after   12 cycles
 E2 =    -0.1067726376D+00 EUMP2 =    -0.49297816710044D+01

 The electronic state is 1-AG.
 Alpha  occ. eigenvalues --   -0.94795  -0.68923  -0.65555  -0.34244  -0.31614
 Alpha virt. eigenvalues --   -0.03378   0.19597   0.44235   0.48029   0.70749

 Mulliken charges:
               1
     1  H   -0.002353
     2  H    0.110037
     3  H    0.047394
     4  H   -0.002353
     5  H   -0.152725
     6  H   -0.152725
     7  H    0.047394
     8  H   -0.002353
     9  H   -0.002353
    10  H    0.110037
 Sum of Mulliken charges =   0.00000

 Dipole moment (field-independent basis, Debye):
    X=              0.0000    Y=              0.0000    Z=              0.0000  Tot=              0.0000
 Quadrupole moment (field-independent basis, Debye-Ang):
   XX=            -12.5922   YY=            -19.1218   ZZ=            -11.8845
   XY=             -0.0000   XZ=             -0.0000   YZ=             -0.0000

 Normal termination of Gaussian 09 at Thu Feb  9 16:21:27 2017.
