 Gaussian 09, Revision E.01,
 Gaussian 09:  ES64L-G09RevE.01 30-Nov-2015

 ----------------------------------------------------------------------
 #rhf/gen scf(symm,tight,novaracc,noincfock,fulldiag) stable(crhf) geom
 =nocrowd test
 ----------------------------------------------------------------------

 ----------------------------------------------------------------------
 hf stability analysis of h10 triangular lattice, y= 1.7649657119256603
 ----------------------------------------------------------------------
 Symbolic Z-matrix:
 Charge =  0 Multiplicity = 1

                         Standard orientation:
 ---------------------------------------------------------------------
 Center     Atomic      Atomic             Coordinates (Angstroms)
 Number     Number       Type             X           Y           Z
 ---------------------------------------------------------------------
      1          1           0       -0.000000    1.764966    0.654234
      2          1           0        0.000000    0.000000    0.981351
      3          1           0        0.000000    0.000000    0.327117
      4          1           0       -0.000000   -1.764966    0.654234
      5          1           0       -0.000000    1.764966    0.000000
      6          1           0       -0.000000   -1.764966    0.000000
      7          1           0        0.000000    0.000000   -0.327117
      8          1           0        0.000000    1.764966   -0.654234
      9          1           0       -0.000000   -1.764966   -0.654234
     10          1           0        0.000000    0.000000   -0.981351
 ---------------------------------------------------------------------

 SCF Done:  E(RHF) =  -4.56304407050     A.U. after    7 cycles
 E2 =    -0.1210580300D+00 EUMP2 =    -0.46841021004464D+01

 The electronic state is 1-AG.
 Alpha  occ. eigenvalues --   -0.98036  -0.81016  -0.76221  -0.57729  -0.21689
 Alpha virt. eigenvalues --   -0.00665   0.29414   0.99724   1.05680   1.42783

 Mulliken charges:
               1
     1  H    0.088171
     2  H    0.217604
     3  H   -0.129475
     4  H    0.088171
     5  H   -0.264471
     6  H   -0.264471
     7  H   -0.129475
     8  H    0.088171
     9  H    0.088171
    10  H    0.217604
 Sum of Mulliken charges =  -0.00000

 Dipole moment (field-independent basis, Debye):
    X=              0.0000    Y=              0.0000    Z=              0.0000  Tot=              0.0000
 Quadrupole moment (field-independent basis, Debye-Ang):
   XX=            -12.4965   YY=            -17.4712   ZZ=            -13.6693
   XY=             -0.0000   XZ=              0.0000   YZ=              0.0000

 Normal termination of Gaussian 09 at Thu Feb  9 16:30:49 2017.
