 Gaussian 09, Revision E.01,
 Gaussian 09:  ES64L-G09RevE.01 30-Nov-2015

 ----------------------------------------------------------------------
 #rhf/gen scf(symm,tight,novaracc,noincfock,fulldiag) stable(crhf) geom
 =nocrowd test
 ----------------------------------------------------------------------

 ----------------------------------------------------------------------
 hf stability analysis of h10 triangular lattice, y= 1.0940617386278098
 ----------------------------------------------------------------------
 Symbolic Z-matrix:
 Charge =  0 Multiplicity = 1

                         Standard orientation:
 ---------------------------------------------------------------------
 Center     Atomic      Atomic             Coordinates (Angstroms)
 Number     Number       Type             X           Y           Z
 ---------------------------------------------------------------------
      1          1           0       -0.000000    1.094062    1.055425
      2          1           0       -0.000000    0.000000    1.583138
      3          1           0       -0.000000    0.000000    0.527713
      4          1           0       -0.000000   -1.094062    1.055425
      5          1           0       -0.000000    1.094062    0.000000
      6          1           0       -0.000000   -1.094062   -0.000000
      7          1           0        0.000000    0.000000   -0.527713
      8          1           0        0.000000    1.094062   -1.055425
      9          1           0       -0.000000   -1.094062   -1.055425
     10          1           0        0.000000    0.000000   -1.583138
 ---------------------------------------------------------------------

 SCF Done:  E(RHF) =  -4.84684233051     A.U. after   10 cycles
 E2 =    -0.1102148055D+00 EUMP2 =    -0.49570571359563D+01

 The electronic state is 1-AG.
 Alpha  occ. eigenvalues --   -0.97485  -0.70649  -0.65173  -0.34322  -0.34225
 Alpha virt. eigenvalues --   -0.01480   0.24930   0.33900   0.40646   0.65914

 Mulliken charges:
               1
     1  H   -0.034484
     2  H   -0.097982
     3  H    0.127253
     4  H   -0.034484
     5  H    0.039696
     6  H    0.039696
     7  H    0.127253
     8  H   -0.034484
     9  H   -0.034484
    10  H   -0.097982
 Sum of Mulliken charges =   0.00000

 Dipole moment (field-independent basis, Debye):
    X=             -0.0000    Y=              0.0000    Z=              0.0000  Tot=              0.0000
 Quadrupole moment (field-independent basis, Debye-Ang):
   XX=            -12.7631   YY=            -14.0528   ZZ=            -20.2779
   XY=             -0.0000   XZ=              0.0000   YZ=             -0.0000

 Normal termination of Gaussian 09 at Thu Feb  9 16:20:09 2017.
