 Gaussian 09, Revision E.01,
 Gaussian 09:  ES64L-G09RevE.01 30-Nov-2015

 ----------------------------------------------------------------------
 #rhf/gen scf(symm,tight,novaracc,noincfock,fulldiag) stable(crhf) geom
 =nocrowd test
 ----------------------------------------------------------------------

 ----------------------------------------------------------------------
 hf stability analysis of h10 triangular lattice, y= 1.5537426650355510
 ----------------------------------------------------------------------
 Symbolic Z-matrix:
 Charge =  0 Multiplicity = 1

                         Standard orientation:
 ---------------------------------------------------------------------
 Center     Atomic      Atomic             Coordinates (Angstroms)
 Number     Number       Type             X           Y           Z
 ---------------------------------------------------------------------
      1          1           0       -0.000000    1.553743    0.743174
      2          1           0       -0.000000   -0.000000    1.114761
      3          1           0       -0.000000   -0.000000    0.371587
      4          1           0       -0.000000   -1.553743    0.743174
      5          1           0       -0.000000    1.553743    0.000000
      6          1           0       -0.000000   -1.553743   -0.000000
      7          1           0        0.000000    0.000000   -0.371587
      8          1           0        0.000000    1.553743   -0.743174
      9          1           0       -0.000000   -1.553743   -0.743174
     10          1           0        0.000000    0.000000   -1.114761
 ---------------------------------------------------------------------

 SCF Done:  E(RHF) =  -4.84647408895     A.U. after    8 cycles
 E2 =    -0.9559025284D-01 EUMP2 =    -0.49420643417823D+01

 The electronic state is 1-AG.
 Alpha  occ. eigenvalues --   -0.96549  -0.76413  -0.65970  -0.60656  -0.25460
 Alpha virt. eigenvalues --    0.02848   0.17875   0.81873   0.92336   1.08764

 Mulliken charges:
               1
     1  H    0.007180
     2  H    0.242285
     3  H   -0.090150
     4  H    0.007180
     5  H   -0.166496
     6  H   -0.166496
     7  H   -0.090150
     8  H    0.007180
     9  H    0.007180
    10  H    0.242285
 Sum of Mulliken charges =   0.00000

 Dipole moment (field-independent basis, Debye):
    X=              0.0000    Y=              0.0000    Z=              0.0000  Tot=              0.0000
 Quadrupole moment (field-independent basis, Debye-Ang):
   XX=            -12.5843   YY=            -19.3289   ZZ=            -12.5899
   XY=             -0.0000   XZ=             -0.0000   YZ=             -0.0000

 Normal termination of Gaussian 09 at Thu Feb  9 16:28:45 2017.
