 Gaussian 09, Revision E.01,
 Gaussian 09:  ES64L-G09RevE.01 30-Nov-2015

 ----------------------------------------------------------------------
 #rhf/gen scf(symm,tight,novaracc,noincfock,fulldiag) stable(crhf) geom
 =nocrowd test
 ----------------------------------------------------------------------

 ----------------------------------------------------------------------
 hf stability analysis of h10 triangular lattice, y= 2.4713823157820722
 ----------------------------------------------------------------------
 Symbolic Z-matrix:
 Charge =  0 Multiplicity = 1

                         Standard orientation:
 ---------------------------------------------------------------------
 Center     Atomic      Atomic             Coordinates (Angstroms)
 Number     Number       Type             X           Y           Z
 ---------------------------------------------------------------------
      1          1           0       -0.000000    2.471382    0.467229
      2          1           0       -0.000000    0.000000    0.700843
      3          1           0       -0.000000    0.000000    0.233614
      4          1           0       -0.000000   -2.471382    0.467229
      5          1           0       -0.000000    2.471382   -0.000000
      6          1           0       -0.000000   -2.471382    0.000000
      7          1           0        0.000000   -0.000000   -0.233614
      8          1           0        0.000000    2.471382   -0.467229
      9          1           0       -0.000000   -2.471382   -0.467229
     10          1           0        0.000000   -0.000000   -0.700843
 ---------------------------------------------------------------------

 SCF Done:  E(RHF) =  -2.95807356777     A.U. after    7 cycles
 E2 =    -0.2687998767D+00 EUMP2 =    -0.32268734445130D+01

 The electronic state is 1-AG.
 Alpha  occ. eigenvalues --   -1.09174  -0.93811  -0.93767  -0.53296  -0.11177
 Alpha virt. eigenvalues --   -0.00056   0.61921   1.58329   1.59371   2.66853

 Mulliken charges:
               1
     1  H    0.344994
     2  H    0.335170
     3  H   -0.329150
     4  H    0.344994
     5  H   -0.696009
     6  H   -0.696009
     7  H   -0.329150
     8  H    0.344994
     9  H    0.344994
    10  H    0.335170
 Sum of Mulliken charges =  -0.00000

 Dipole moment (field-independent basis, Debye):
    X=              0.0000    Y=              0.0000    Z=             -0.0000  Tot=              0.0000
 Quadrupole moment (field-independent basis, Debye-Ang):
   XX=            -12.0944   YY=            -13.1991   ZZ=            -14.9269
   XY=              0.0000   XZ=              0.0000   YZ=              0.0000

 Normal termination of Gaussian 09 at Thu Feb  9 16:34:22 2017.
