 Gaussian 09, Revision E.01,
 Gaussian 09:  ES64L-G09RevE.01 30-Nov-2015

 ----------------------------------------------------------------------
 #rhf/gen scf(symm,tight,novaracc,noincfock,fulldiag) stable(crhf) geom
 =nocrowd test
 ----------------------------------------------------------------------

 ----------------------------------------------------------------------
 hf stability analysis of h10 triangular lattice, y= 2.4947243753068959
 ----------------------------------------------------------------------
 Symbolic Z-matrix:
 Charge =  0 Multiplicity = 1

                         Standard orientation:
 ---------------------------------------------------------------------
 Center     Atomic      Atomic             Coordinates (Angstroms)
 Number     Number       Type             X           Y           Z
 ---------------------------------------------------------------------
      1          1           0        0.000000    2.494724    0.462857
      2          1           0        0.000000    0.000000    0.694286
      3          1           0        0.000000    0.000000    0.231428
      4          1           0       -0.000000   -2.494724    0.462857
      5          1           0       -0.000000    2.494724    0.000000
      6          1           0       -0.000000   -2.494724   -0.000000
      7          1           0        0.000000   -0.000000   -0.231428
      8          1           0        0.000000    2.494724   -0.462857
      9          1           0       -0.000000   -2.494724   -0.462857
     10          1           0        0.000000   -0.000000   -0.694286
 ---------------------------------------------------------------------

 SCF Done:  E(RHF) =  -2.89404631891     A.U. after    7 cycles
 E2 =    -0.2738049220D+00 EUMP2 =    -0.31678512409249D+01

 The electronic state is 1-AG.
 Alpha  occ. eigenvalues --   -1.09654  -0.94176  -0.94128  -0.53223  -0.10870
 Alpha virt. eigenvalues --    0.00110   0.62860   1.60269   1.61260   2.71247

 Mulliken charges:
               1
     1  H    0.353560
     2  H    0.342781
     3  H   -0.337313
     4  H    0.353560
     5  H   -0.712589
     6  H   -0.712589
     7  H   -0.337313
     8  H    0.353560
     9  H    0.353560
    10  H    0.342781
 Sum of Mulliken charges =  -0.00000

 Dipole moment (field-independent basis, Debye):
    X=              0.0000    Y=              0.0000    Z=             -0.0000  Tot=              0.0000
 Quadrupole moment (field-independent basis, Debye-Ang):
   XX=            -12.0817   YY=            -13.1285   ZZ=            -14.9453
   XY=              0.0000   XZ=              0.0000   YZ=              0.0000

 Normal termination of Gaussian 09 at Thu Feb  9 16:34:27 2017.
