 Gaussian 09, Revision E.01,
 Gaussian 09:  ES64L-G09RevE.01 30-Nov-2015

 ----------------------------------------------------------------------
 #rhf/gen scf(symm,tight,novaracc,noincfock,fulldiag) stable(crhf) geom
 =nocrowd test
 ----------------------------------------------------------------------

 ----------------------------------------------------------------------
 hf stability analysis of h10 triangular lattice, y= 1.4834853073917655
 ----------------------------------------------------------------------
 Symbolic Z-matrix:
 Charge =  0 Multiplicity = 1

                         Standard orientation:
 ---------------------------------------------------------------------
 Center     Atomic      Atomic             Coordinates (Angstroms)
 Number     Number       Type             X           Y           Z
 ---------------------------------------------------------------------
      1          1           0        0.000000    1.483485    0.778370
      2          1           0        0.000000   -0.000000    1.167555
      3          1           0        0.000000   -0.000000    0.389185
      4          1           0       -0.000000   -1.483485    0.778370
      5          1           0       -0.000000    1.483485    0.000000
      6          1           0       -0.000000   -1.483485   -0.000000
      7          1           0        0.000000    0.000000   -0.389185
      8          1           0        0.000000    1.483485   -0.778370
      9          1           0       -0.000000   -1.483485   -0.778370
     10          1           0        0.000000    0.000000   -1.167555
 ---------------------------------------------------------------------

 SCF Done:  E(RHF) =  -4.90587685324     A.U. after    8 cycles
 E2 =    -0.9098388405D-01 EUMP2 =    -0.49968607372891D+01

 The electronic state is 1-AG.
 Alpha  occ. eigenvalues --   -0.96097  -0.74748  -0.61808  -0.61738  -0.26725
 Alpha virt. eigenvalues --    0.04698   0.13938   0.75846   0.88368   0.97892

 Mulliken charges:
               1
     1  H   -0.018963
     2  H    0.255530
     3  H   -0.079505
     4  H   -0.018963
     5  H   -0.138099
     6  H   -0.138099
     7  H   -0.079505
     8  H   -0.018963
     9  H   -0.018963
    10  H    0.255530
 Sum of Mulliken charges =  -0.00000

 Dipole moment (field-independent basis, Debye):
    X=              0.0000    Y=              0.0000    Z=             -0.0000  Tot=              0.0000
 Quadrupole moment (field-independent basis, Debye-Ang):
   XX=            -12.6024   YY=            -19.9009   ZZ=            -12.0816
   XY=             -0.0000   XZ=             -0.0000   YZ=             -0.0000

 Normal termination of Gaussian 09 at Thu Feb  9 16:27:53 2017.
