 Gaussian 09, Revision E.01,
 Gaussian 09:  ES64L-G09RevE.01 30-Nov-2015

 ----------------------------------------------------------------------
 #rhf/gen scf(symm,tight,novaracc,noincfock,fulldiag) stable(crhf) geom
 =nocrowd test
 ----------------------------------------------------------------------

 ----------------------------------------------------------------------
 hf stability analysis of h10 triangular lattice, y= 1.5132970893756394
 ----------------------------------------------------------------------
 Symbolic Z-matrix:
 Charge =  0 Multiplicity = 1

                         Standard orientation:
 ---------------------------------------------------------------------
 Center     Atomic      Atomic             Coordinates (Angstroms)
 Number     Number       Type             X           Y           Z
 ---------------------------------------------------------------------
      1          1           0       -0.000000    1.513297    0.763036
      2          1           0       -0.000000    0.000000    1.144554
      3          1           0       -0.000000    0.000000    0.381518
      4          1           0       -0.000000   -1.513297    0.763036
      5          1           0       -0.000000    1.513297   -0.000000
      6          1           0       -0.000000   -1.513297    0.000000
      7          1           0        0.000000   -0.000000   -0.381518
      8          1           0        0.000000    1.513297   -0.763036
      9          1           0       -0.000000   -1.513297   -0.763036
     10          1           0        0.000000   -0.000000   -1.144554
 ---------------------------------------------------------------------

 SCF Done:  E(RHF) =  -4.88320289029     A.U. after    8 cycles
 E2 =    -0.9269145523D-01 EUMP2 =    -0.49758943455214D+01

 The electronic state is 1-AG.
 Alpha  occ. eigenvalues --   -0.96290  -0.75465  -0.63590  -0.61309  -0.26191
 Alpha virt. eigenvalues --    0.03866   0.15612   0.78409   0.90021   1.02475

 Mulliken charges:
               1
     1  H   -0.007985
     2  H    0.249701
     3  H   -0.083882
     4  H   -0.007985
     5  H   -0.149848
     6  H   -0.149848
     7  H   -0.083882
     8  H   -0.007985
     9  H   -0.007985
    10  H    0.249701
 Sum of Mulliken charges =  -0.00000

 Dipole moment (field-independent basis, Debye):
    X=              0.0000    Y=             -0.0000    Z=             -0.0000  Tot=              0.0000
 Quadrupole moment (field-independent basis, Debye-Ang):
   XX=            -12.5955   YY=            -19.6631   ZZ=            -12.3078
   XY=             -0.0000   XZ=             -0.0000   YZ=              0.0000

 Normal termination of Gaussian 09 at Thu Feb  9 16:28:16 2017.
