 Gaussian 09, Revision E.01,
 Gaussian 09:  ES64L-G09RevE.01 30-Nov-2015

 ----------------------------------------------------------------------
 #rhf/gen scf(symm,tight,novaracc,noincfock,fulldiag) stable(crhf) geom
 =nocrowd test
 ----------------------------------------------------------------------

 hf stability analysis of h10 triangular lattice, y= 0.7902999627936464
 5
 ----------------------------------------------------------------------
 Symbolic Z-matrix:
 Charge =  0 Multiplicity = 1

                         Standard orientation:
 ---------------------------------------------------------------------
 Center     Atomic      Atomic             Coordinates (Angstroms)
 Number     Number       Type             X           Y           Z
 ---------------------------------------------------------------------
      1          1           0       -0.000000    0.790300    1.461091
      2          1           0       -0.000000    0.000000    2.191637
      3          1           0       -0.000000    0.000000    0.730546
      4          1           0       -0.000000   -0.790300    1.461091
      5          1           0       -0.000000    0.790300    0.000000
      6          1           0       -0.000000   -0.790300    0.000000
      7          1           0        0.000000    0.000000   -0.730546
      8          1           0        0.000000    0.790300   -1.461091
      9          1           0       -0.000000   -0.790300   -1.461091
     10          1           0        0.000000    0.000000   -2.191637
 ---------------------------------------------------------------------

 SCF Done:  E(RHF) =  -4.89611411486     A.U. after    8 cycles
 E2 =    -0.9667194004D-01 EUMP2 =    -0.49927860549022D+01

 The electronic state is 1-AG.
 Alpha  occ. eigenvalues --   -0.92199  -0.74884  -0.50623  -0.48699  -0.29015
 Alpha virt. eigenvalues --    0.00602   0.16071   0.38737   0.46338   0.54757

 Mulliken charges:
               1
     1  H   -0.191280
     2  H    0.197620
     3  H    0.131803
     4  H   -0.191280
     5  H    0.053138
     6  H    0.053138
     7  H    0.131803
     8  H   -0.191280
     9  H   -0.191280
    10  H    0.197620
 Sum of Mulliken charges =   0.00000

 Dipole moment (field-independent basis, Debye):
    X=              0.0000    Y=             -0.0000    Z=             -0.0000  Tot=              0.0000
 Quadrupole moment (field-independent basis, Debye-Ang):
   XX=            -12.9836   YY=            -18.1938   ZZ=            -12.4590
   XY=             -0.0000   XZ=             -0.0000   YZ=              0.0000

 Normal termination of Gaussian 09 at Thu Feb  9 16:08:16 2017.
