 Gaussian 09, Revision E.01,
 Gaussian 09:  ES64L-G09RevE.01 30-Nov-2015

 ----------------------------------------------------------------------
 #rhf/gen scf(symm,tight,novaracc,noincfock,fulldiag) stable(crhf) geom
 =nocrowd test
 ----------------------------------------------------------------------

 hf stability analysis of h10 triangular lattice, y= 0.8713519307064939
 7
 ----------------------------------------------------------------------
 Symbolic Z-matrix:
 Charge =  0 Multiplicity = 1

                         Standard orientation:
 ---------------------------------------------------------------------
 Center     Atomic      Atomic             Coordinates (Angstroms)
 Number     Number       Type             X           Y           Z
 ---------------------------------------------------------------------
      1          1           0       -0.000000    0.871352    1.325183
      2          1           0       -0.000000   -0.000000    1.987774
      3          1           0       -0.000000   -0.000000    0.662591
      4          1           0       -0.000000   -0.871352    1.325183
      5          1           0       -0.000000    0.871352    0.000000
      6          1           0       -0.000000   -0.871352   -0.000000
      7          1           0        0.000000    0.000000   -0.662591
      8          1           0        0.000000    0.871352   -1.325183
      9          1           0       -0.000000   -0.871352   -1.325183
     10          1           0        0.000000    0.000000   -1.987774
 ---------------------------------------------------------------------

 SCF Done:  E(RHF) =  -4.95941266919     A.U. after    8 cycles
 E2 =    -0.9650593467D-01 EUMP2 =    -0.50559186038597D+01

 The electronic state is 1-AG.
 Alpha  occ. eigenvalues --   -0.94581  -0.74664  -0.54191  -0.46844  -0.31755
 Alpha virt. eigenvalues --    0.08305   0.19459   0.30785   0.49388   0.50268

 Mulliken charges:
               1
     1  H   -0.150138
     2  H    0.119723
     3  H    0.103283
     4  H   -0.150138
     5  H    0.077270
     6  H    0.077270
     7  H    0.103283
     8  H   -0.150138
     9  H   -0.150138
    10  H    0.119723
 Sum of Mulliken charges =  -0.00000

 Dipole moment (field-independent basis, Debye):
    X=              0.0000    Y=              0.0000    Z=             -0.0000  Tot=              0.0000
 Quadrupole moment (field-independent basis, Debye-Ang):
   XX=            -12.9306   YY=            -17.1534   ZZ=            -15.4648
   XY=             -0.0000   XZ=             -0.0000   YZ=              0.0000

 Normal termination of Gaussian 09 at Thu Feb  9 16:12:07 2017.
