 Gaussian 09, Revision E.01,
 Gaussian 09:  ES64L-G09RevE.01 30-Nov-2015

 ----------------------------------------------------------------------
 #rhf/gen scf(symm,tight,novaracc,noincfock,fulldiag) stable(crhf) geom
 =nocrowd test
 ----------------------------------------------------------------------

 hf stability analysis of h10 triangular lattice, y= 0.8580921458546944
 0
 ----------------------------------------------------------------------
 Symbolic Z-matrix:
 Charge =  0 Multiplicity = 1

                         Standard orientation:
 ---------------------------------------------------------------------
 Center     Atomic      Atomic             Coordinates (Angstroms)
 Number     Number       Type             X           Y           Z
 ---------------------------------------------------------------------
      1          1           0        0.000000    0.858092    1.345660
      2          1           0        0.000000   -0.000000    2.018490
      3          1           0        0.000000   -0.000000    0.672830
      4          1           0       -0.000000   -0.858092    1.345660
      5          1           0       -0.000000    0.858092    0.000000
      6          1           0       -0.000000   -0.858092    0.000000
      7          1           0        0.000000    0.000000   -0.672830
      8          1           0        0.000000    0.858092   -1.345660
      9          1           0       -0.000000   -0.858092   -1.345660
     10          1           0        0.000000    0.000000   -2.018490
 ---------------------------------------------------------------------

 SCF Done:  E(RHF) =  -4.95302176620     A.U. after    8 cycles
 E2 =    -0.9634687778D-01 EUMP2 =    -0.50493686439855D+01

 The electronic state is 1-AG.
 Alpha  occ. eigenvalues --   -0.94254  -0.74766  -0.53361  -0.47499  -0.31389
 Alpha virt. eigenvalues --    0.06965   0.18819   0.33121   0.47905   0.51238

 Mulliken charges:
               1
     1  H   -0.156359
     2  H    0.132189
     3  H    0.105919
     4  H   -0.156359
     5  H    0.074610
     6  H    0.074610
     7  H    0.105919
     8  H   -0.156359
     9  H   -0.156359
    10  H    0.132189
 Sum of Mulliken charges =  -0.00000

 Dipole moment (field-independent basis, Debye):
    X=              0.0000    Y=              0.0000    Z=             -0.0000  Tot=              0.0000
 Quadrupole moment (field-independent basis, Debye-Ang):
   XX=            -12.9394   YY=            -17.3272   ZZ=            -15.0316
   XY=             -0.0000   XZ=             -0.0000   YZ=              0.0000

 Normal termination of Gaussian 09 at Thu Feb  9 16:11:31 2017.
