 Gaussian 09, Revision E.01,
 Gaussian 09:  ES64L-G09RevE.01 30-Nov-2015

 ----------------------------------------------------------------------
 #rhf/gen scf(symm,tight,novaracc,noincfock,fulldiag) stable(crhf) geom
 =nocrowd test
 ----------------------------------------------------------------------

 ----------------------------------------------------------------------
 hf stability analysis of h10 triangular lattice, y= 1.3116886411449822
 ----------------------------------------------------------------------
 Symbolic Z-matrix:
 Charge =  0 Multiplicity = 1

                         Standard orientation:
 ---------------------------------------------------------------------
 Center     Atomic      Atomic             Coordinates (Angstroms)
 Number     Number       Type             X           Y           Z
 ---------------------------------------------------------------------
      1          1           0        0.000000    1.311689    0.880316
      2          1           0        0.000000   -0.000000    1.320474
      3          1           0        0.000000   -0.000000    0.440158
      4          1           0       -0.000000   -1.311689    0.880316
      5          1           0       -0.000000    1.311689    0.000000
      6          1           0       -0.000000   -1.311689   -0.000000
      7          1           0        0.000000    0.000000   -0.440158
      8          1           0        0.000000    1.311689   -0.880316
      9          1           0       -0.000000   -1.311689   -0.880316
     10          1           0        0.000000    0.000000   -1.320474
 ---------------------------------------------------------------------

 SCF Done:  E(RHF) =  -4.94939988499     A.U. after    8 cycles
 E2 =    -0.8867875160D-01 EUMP2 =    -0.50380786365851D+01

 The electronic state is 1-AG.
 Alpha  occ. eigenvalues --   -0.94866  -0.70222  -0.64923  -0.49296  -0.29559
 Alpha virt. eigenvalues --    0.04295   0.10947   0.60980   0.72421   0.79674

 Mulliken charges:
               1
     1  H   -0.074493
     2  H    0.288427
     3  H   -0.055626
     4  H   -0.074493
     5  H   -0.083814
     6  H   -0.083814
     7  H   -0.055626
     8  H   -0.074493
     9  H   -0.074493
    10  H    0.288427
 Sum of Mulliken charges =   0.00000

 Dipole moment (field-independent basis, Debye):
    X=              0.0000    Y=              0.0000    Z=              0.0000  Tot=              0.0000
 Quadrupole moment (field-independent basis, Debye-Ang):
   XX=            -12.6148   YY=            -21.0618   ZZ=            -10.4750
   XY=             -0.0000   XZ=             -0.0000   YZ=              0.0000

 Normal termination of Gaussian 09 at Thu Feb  9 16:25:13 2017.
