 Gaussian 09, Revision E.01,
 Gaussian 09:  ES64L-G09RevE.01 30-Nov-2015

 ----------------------------------------------------------------------
 #rhf/gen scf(symm,tight,novaracc,noincfock,fulldiag) stable(crhf) geom
 =nocrowd test
 ----------------------------------------------------------------------

 ----------------------------------------------------------------------
 hf stability analysis of h10 triangular lattice, y= 1.2822063159356787
 ----------------------------------------------------------------------
 Symbolic Z-matrix:
 Charge =  0 Multiplicity = 1

                         Standard orientation:
 ---------------------------------------------------------------------
 Center     Atomic      Atomic             Coordinates (Angstroms)
 Number     Number       Type             X           Y           Z
 ---------------------------------------------------------------------
      1          1           0       -0.000000    1.282206    0.900558
      2          1           0       -0.000000    0.000000    1.350836
      3          1           0       -0.000000    0.000000    0.450279
      4          1           0       -0.000000   -1.282206    0.900558
      5          1           0       -0.000000    1.282206   -0.000000
      6          1           0       -0.000000   -1.282206   -0.000000
      7          1           0        0.000000    0.000000   -0.450279
      8          1           0        0.000000    1.282206   -0.900558
      9          1           0       -0.000000   -1.282206   -0.900558
     10          1           0        0.000000    0.000000   -1.350836
 ---------------------------------------------------------------------

 SCF Done:  E(RHF) =  -4.93937703335     A.U. after    8 cycles
 E2 =    -0.8976586490D-01 EUMP2 =    -0.50291428982504D+01

 The electronic state is 1-AG.
 Alpha  occ. eigenvalues --   -0.94637  -0.69369  -0.65498  -0.46838  -0.29969
 Alpha virt. eigenvalues --    0.02676   0.12268   0.58418   0.68217   0.78286

 Mulliken charges:
               1
     1  H   -0.080957
     2  H    0.291289
     3  H   -0.050422
     4  H   -0.080957
     5  H   -0.078954
     6  H   -0.078954
     7  H   -0.050422
     8  H   -0.080957
     9  H   -0.080957
    10  H    0.291289
 Sum of Mulliken charges =  -0.00000

 Dipole moment (field-independent basis, Debye):
    X=              0.0000    Y=             -0.0000    Z=              0.0000  Tot=              0.0000
 Quadrupole moment (field-independent basis, Debye-Ang):
   XX=            -12.6116   YY=            -21.2017   ZZ=            -10.1660
   XY=             -0.0000   XZ=             -0.0000   YZ=             -0.0000

 Normal termination of Gaussian 09 at Thu Feb  9 16:24:39 2017.
