 Gaussian 09, Revision E.01,
 Gaussian 09:  ES64L-G09RevE.01 30-Nov-2015

 ----------------------------------------------------------------------
 #rhf/gen scf(symm,tight,novaracc,noincfock,fulldiag) stable(crhf) geom
 =nocrowd test
 ----------------------------------------------------------------------

 ----------------------------------------------------------------------
 hf stability analysis of h10 triangular lattice, y= 1.2279988011079066
 ----------------------------------------------------------------------
 Symbolic Z-matrix:
 Charge =  0 Multiplicity = 1

                         Standard orientation:
 ---------------------------------------------------------------------
 Center     Atomic      Atomic             Coordinates (Angstroms)
 Number     Number       Type             X           Y           Z
 ---------------------------------------------------------------------
      1          1           0        0.000000    1.227999    0.940311
      2          1           0        0.000000    0.000000    1.410466
      3          1           0        0.000000    0.000000    0.470155
      4          1           0       -0.000000   -1.227999    0.940311
      5          1           0       -0.000000    1.227999   -0.000000
      6          1           0       -0.000000   -1.227999    0.000000
      7          1           0        0.000000   -0.000000   -0.470155
      8          1           0        0.000000    1.227999   -0.940311
      9          1           0       -0.000000   -1.227999   -0.940311
     10          1           0        0.000000   -0.000000   -1.410466
 ---------------------------------------------------------------------

 SCF Done:  E(RHF) =  -4.90573885033     A.U. after    9 cycles
 E2 =    -0.9342176236D-01 EUMP2 =    -0.49991606126942D+01

 The electronic state is 1-AG.
 Alpha  occ. eigenvalues --   -0.94253  -0.67755  -0.66609  -0.42080  -0.30627
 Alpha virt. eigenvalues --   -0.00186   0.14852   0.53663   0.60596   0.75731

 Mulliken charges:
               1
     1  H   -0.085387
     2  H    0.286363
     3  H   -0.036050
     4  H   -0.085387
     5  H   -0.079539
     6  H   -0.079539
     7  H   -0.036050
     8  H   -0.085387
     9  H   -0.085387
    10  H    0.286363
 Sum of Mulliken charges =  -0.00000

 Dipole moment (field-independent basis, Debye):
    X=              0.0000    Y=             -0.0000    Z=             -0.0000  Tot=              0.0000
 Quadrupole moment (field-independent basis, Debye-Ang):
   XX=            -12.6012   YY=            -21.3323   ZZ=             -9.6720
   XY=             -0.0000   XZ=             -0.0000   YZ=              0.0000

 Normal termination of Gaussian 09 at Thu Feb  9 16:23:31 2017.
