 Gaussian 09, Revision E.01,
 Gaussian 09:  ES64L-G09RevE.01 30-Nov-2015

 ----------------------------------------------------------------------
 #rhf/gen scf(symm,tight,novaracc,noincfock,fulldiag) stable(crhf) geom
 =nocrowd test
 ----------------------------------------------------------------------

 ----------------------------------------------------------------------
 hf stability analysis of h10 triangular lattice, y= 1.6883418562042736
 ----------------------------------------------------------------------
 Symbolic Z-matrix:
 Charge =  0 Multiplicity = 1

                         Standard orientation:
 ---------------------------------------------------------------------
 Center     Atomic      Atomic             Coordinates (Angstroms)
 Number     Number       Type             X           Y           Z
 ---------------------------------------------------------------------
      1          1           0       -0.000000    1.688342    0.683926
      2          1           0       -0.000000   -0.000000    1.025889
      3          1           0       -0.000000   -0.000000    0.341963
      4          1           0       -0.000000   -1.688342    0.683926
      5          1           0       -0.000000    1.688342    0.000000
      6          1           0       -0.000000   -1.688342   -0.000000
      7          1           0        0.000000    0.000000   -0.341963
      8          1           0        0.000000    1.688342   -0.683926
      9          1           0       -0.000000   -1.688342   -0.683926
     10          1           0        0.000000    0.000000   -1.025889
 ---------------------------------------------------------------------

 SCF Done:  E(RHF) =  -4.68152634363     A.U. after    7 cycles
 E2 =    -0.1099078063D+00 EUMP2 =    -0.47914341499160D+01

 The electronic state is 1-AG.
 Alpha  occ. eigenvalues --   -0.97445  -0.79402  -0.72892  -0.58692  -0.23033
 Alpha virt. eigenvalues --    0.00293   0.25297   0.93294   1.00615   1.30234

 Mulliken charges:
               1
     1  H    0.058750
     2  H    0.223406
     3  H   -0.113948
     4  H    0.058750
     5  H   -0.226957
     6  H   -0.226957
     7  H   -0.113948
     8  H    0.058750
     9  H    0.058750
    10  H    0.223406
 Sum of Mulliken charges =   0.00000

 Dipole moment (field-independent basis, Debye):
    X=              0.0000    Y=             -0.0000    Z=             -0.0000  Tot=              0.0000
 Quadrupole moment (field-independent basis, Debye-Ang):
   XX=            -12.5331   YY=            -18.1536   ZZ=            -13.3455
   XY=             -0.0000   XZ=              0.0000   YZ=              0.0000

 Normal termination of Gaussian 09 at Thu Feb  9 16:30:09 2017.
