 Gaussian 09, Revision E.01,
 Gaussian 09:  ES64L-G09RevE.01 30-Nov-2015

 ----------------------------------------------------------------------
 #rhf/gen scf(symm,tight,novaracc,noincfock,fulldiag) stable(crhf) geom
 =nocrowd test
 ----------------------------------------------------------------------

 ----------------------------------------------------------------------
 hf stability analysis of h10 triangular lattice, y= 1.4074087190092159
 ----------------------------------------------------------------------
 Symbolic Z-matrix:
 Charge =  0 Multiplicity = 1

                         Standard orientation:
 ---------------------------------------------------------------------
 Center     Atomic      Atomic             Coordinates (Angstroms)
 Number     Number       Type             X           Y           Z
 ---------------------------------------------------------------------
      1          1           0       -0.000000    1.407409    0.820444
      2          1           0        0.000000    0.000000    1.230667
      3          1           0        0.000000    0.000000    0.410222
      4          1           0       -0.000000   -1.407409    0.820444
      5          1           0       -0.000000    1.407409    0.000000
      6          1           0       -0.000000   -1.407409   -0.000000
      7          1           0        0.000000    0.000000   -0.410222
      8          1           0        0.000000    1.407409   -0.820444
      9          1           0       -0.000000   -1.407409   -0.820444
     10          1           0        0.000000    0.000000   -1.230667
 ---------------------------------------------------------------------

 SCF Done:  E(RHF) =  -4.94488269634     A.U. after    8 cycles
 E2 =    -0.8831817232D-01 EUMP2 =    -0.50332008686603D+01

 The electronic state is 1-AG.
 Alpha  occ. eigenvalues --   -0.95580  -0.72834  -0.63139  -0.56615  -0.28048
 Alpha virt. eigenvalues --    0.07153   0.09655   0.69278   0.84355   0.86409

 Mulliken charges:
               1
     1  H   -0.045755
     2  H    0.271121
     3  H   -0.069053
     4  H   -0.045755
     5  H   -0.110559
     6  H   -0.110559
     7  H   -0.069053
     8  H   -0.045755
     9  H   -0.045755
    10  H    0.271121
 Sum of Mulliken charges =  -0.00000

 Dipole moment (field-independent basis, Debye):
    X=              0.0000    Y=              0.0000    Z=             -0.0000  Tot=              0.0000
 Quadrupole moment (field-independent basis, Debye-Ang):
   XX=            -12.6139   YY=            -20.4669   ZZ=            -11.4312
   XY=             -0.0000   XZ=             -0.0000   YZ=             -0.0000

 Normal termination of Gaussian 09 at Thu Feb  9 16:26:49 2017.
