 Gaussian 09, Revision E.01,
 Gaussian 09:  ES64L-G09RevE.01 30-Nov-2015

 ----------------------------------------------------------------------
 #rhf/gen scf(symm,tight,novaracc,noincfock,fulldiag) stable(crhf) geom
 =nocrowd test
 ----------------------------------------------------------------------

 ----------------------------------------------------------------------
 hf stability analysis of h10 triangular lattice, y= 2.2960291063410230
 ----------------------------------------------------------------------
 Symbolic Z-matrix:
 Charge =  0 Multiplicity = 1

                         Standard orientation:
 ---------------------------------------------------------------------
 Center     Atomic      Atomic             Coordinates (Angstroms)
 Number     Number       Type             X           Y           Z
 ---------------------------------------------------------------------
      1          1           0        0.000000    2.296029    0.502912
      2          1           0        0.000000    0.000000    0.754368
      3          1           0        0.000000    0.000000    0.251456
      4          1           0       -0.000000   -2.296029    0.502912
      5          1           0       -0.000000    2.296029   -0.000000
      6          1           0       -0.000000   -2.296029    0.000000
      7          1           0        0.000000   -0.000000   -0.251456
      8          1           0        0.000000    2.296029   -0.502912
      9          1           0       -0.000000   -2.296029   -0.502912
     10          1           0        0.000000   -0.000000   -0.754368
 ---------------------------------------------------------------------

 SCF Done:  E(RHF) =  -3.42094588418     A.U. after    7 cycles
 E2 =    -0.2305983183D+00 EUMP2 =    -0.36515442024445D+01

 The electronic state is 1-AG.
 Alpha  occ. eigenvalues --   -1.05642  -0.90940  -0.90841  -0.53903  -0.13544
 Alpha virt. eigenvalues --   -0.01149   0.54676   1.43768   1.45314   2.34558

 Mulliken charges:
               1
     1  H    0.281717
     2  H    0.283238
     3  H   -0.270802
     4  H    0.281717
     5  H   -0.575870
     6  H   -0.575870
     7  H   -0.270802
     8  H    0.281717
     9  H    0.281717
    10  H    0.283238
 Sum of Mulliken charges =  -0.00000

 Dipole moment (field-independent basis, Debye):
    X=              0.0000    Y=              0.0000    Z=              0.0000  Tot=              0.0000
 Quadrupole moment (field-independent basis, Debye-Ang):
   XX=            -12.1924   YY=            -13.8453   ZZ=            -14.7650
   XY=              0.0000   XZ=              0.0000   YZ=              0.0000

 Normal termination of Gaussian 09 at Thu Feb  9 16:33:47 2017.
