 Gaussian 09, Revision E.01,
 Gaussian 09:  ES64L-G09RevE.01 30-Nov-2015

 ----------------------------------------------------------------------
 #rhf/gen scf(symm,tight,novaracc,noincfock,fulldiag) stable(crhf) geom
 =nocrowd test
 ----------------------------------------------------------------------

 hf stability analysis of h10 triangular lattice, y= 0.7732164846609803
 6
 ----------------------------------------------------------------------
 Symbolic Z-matrix:
 Charge =  0 Multiplicity = 1

                         Standard orientation:
 ---------------------------------------------------------------------
 Center     Atomic      Atomic             Coordinates (Angstroms)
 Number     Number       Type             X           Y           Z
 ---------------------------------------------------------------------
      1          1           0        0.000000    0.773216    1.493373
      2          1           0        0.000000   -0.000000    2.240059
      3          1           0        0.000000   -0.000000    0.746686
      4          1           0       -0.000000   -0.773216    1.493373
      5          1           0       -0.000000    0.773216    0.000000
      6          1           0       -0.000000   -0.773216   -0.000000
      7          1           0        0.000000    0.000000   -0.746686
      8          1           0        0.000000    0.773216   -1.493373
      9          1           0       -0.000000   -0.773216   -1.493373
     10          1           0        0.000000    0.000000   -2.240059
 ---------------------------------------------------------------------

 SCF Done:  E(RHF) =  -4.87531781911     A.U. after    8 cycles
 E2 =    -0.9706651100D-01 EUMP2 =    -0.49723843301081D+01

 The electronic state is 1-AG.
 Alpha  occ. eigenvalues --   -0.91570  -0.74795  -0.51342  -0.47398  -0.28268
 Alpha virt. eigenvalues --   -0.00846   0.15532   0.36515   0.49423   0.55099

 Mulliken charges:
               1
     1  H   -0.201054
     2  H    0.214560
     3  H    0.142301
     4  H   -0.201054
     5  H    0.045248
     6  H    0.045248
     7  H    0.142301
     8  H   -0.201054
     9  H   -0.201054
    10  H    0.214560
 Sum of Mulliken charges =  -0.00000

 Dipole moment (field-independent basis, Debye):
    X=              0.0000    Y=              0.0000    Z=             -0.0000  Tot=              0.0000
 Quadrupole moment (field-independent basis, Debye-Ang):
   XX=            -12.9945   YY=            -18.4047   ZZ=            -11.7024
   XY=             -0.0000   XZ=             -0.0000   YZ=              0.0000

 Normal termination of Gaussian 09 at Thu Feb  9 16:07:22 2017.
