 Gaussian 09, Revision E.01,
 Gaussian 09:  ES64L-G09RevE.01 30-Nov-2015

 ----------------------------------------------------------------------
 #rhf/gen scf(symm,tight,novaracc,noincfock,fulldiag) stable(crhf) geom
 =nocrowd test
 ----------------------------------------------------------------------

 ----------------------------------------------------------------------
 hf stability analysis of h10 triangular lattice, y= 2.1684423371644423
 ----------------------------------------------------------------------
 Symbolic Z-matrix:
 Charge =  0 Multiplicity = 1

                         Standard orientation:
 ---------------------------------------------------------------------
 Center     Atomic      Atomic             Coordinates (Angstroms)
 Number     Number       Type             X           Y           Z
 ---------------------------------------------------------------------
      1          1           0        0.000000    2.168442    0.532502
      2          1           0        0.000000   -0.000000    0.798754
      3          1           0        0.000000   -0.000000    0.266251
      4          1           0       -0.000000   -2.168442    0.532502
      5          1           0       -0.000000    2.168442    0.000000
      6          1           0       -0.000000   -2.168442   -0.000000
      7          1           0        0.000000    0.000000   -0.266251
      8          1           0        0.000000    2.168442   -0.532502
      9          1           0       -0.000000   -2.168442   -0.532502
     10          1           0        0.000000    0.000000   -0.798754
 ---------------------------------------------------------------------

 SCF Done:  E(RHF) =  -3.73530208806     A.U. after    7 cycles
 E2 =    -0.2023031106D+00 EUMP2 =    -0.39376051986321D+01

 The electronic state is 1-AG.
 Alpha  occ. eigenvalues --   -1.03263  -0.88746  -0.88311  -0.54465  -0.15341
 Alpha virt. eigenvalues --   -0.01696   0.49131   1.33195   1.35287   2.11767

 Mulliken charges:
               1
     1  H    0.236324
     2  H    0.252739
     3  H   -0.231826
     4  H    0.236324
     5  H   -0.493563
     6  H   -0.493563
     7  H   -0.231826
     8  H    0.236324
     9  H    0.236324
    10  H    0.252739
 Sum of Mulliken charges =  -0.00000

 Dipole moment (field-independent basis, Debye):
    X=              0.0000    Y=             -0.0000    Z=              0.0000  Tot=              0.0000
 Quadrupole moment (field-independent basis, Debye-Ang):
   XX=            -12.2664   YY=            -14.4736   ZZ=            -14.6106
   XY=              0.0000   XZ=              0.0000   YZ=              0.0000

 Normal termination of Gaussian 09 at Thu Feb  9 16:33:15 2017.
