 Gaussian 09, Revision E.01,
 Gaussian 09:  ES64L-G09RevE.01 30-Nov-2015

 ----------------------------------------------------------------------
 #rhf/gen scf(symm,tight,novaracc,noincfock,fulldiag) stable(crhf) geom
 =nocrowd test
 ----------------------------------------------------------------------

 hf stability analysis of h10 triangular lattice, y= 0.9063588615356296
 1
 ----------------------------------------------------------------------
 Symbolic Z-matrix:
 Charge =  0 Multiplicity = 1

                         Standard orientation:
 ---------------------------------------------------------------------
 Center     Atomic      Atomic             Coordinates (Angstroms)
 Number     Number       Type             X           Y           Z
 ---------------------------------------------------------------------
      1          1           0        0.000000    0.906359    1.273999
      2          1           0        0.000000   -0.000000    1.910999
      3          1           0        0.000000   -0.000000    0.637000
      4          1           0       -0.000000   -0.906359    1.273999
      5          1           0       -0.000000    0.906359    0.000000
      6          1           0       -0.000000   -0.906359   -0.000000
      7          1           0        0.000000    0.000000   -0.637000
      8          1           0        0.000000    0.906359   -1.273999
      9          1           0       -0.000000   -0.906359   -1.273999
     10          1           0        0.000000    0.000000   -1.910999
 ---------------------------------------------------------------------

 SCF Done:  E(RHF) =  -4.96889959109     A.U. after    8 cycles
 E2 =    -0.9726825707D-01 EUMP2 =    -0.50661678481640D+01

 The electronic state is 1-AG.
 Alpha  occ. eigenvalues --   -0.95341  -0.74291  -0.56266  -0.45056  -0.32584
 Alpha virt. eigenvalues --    0.11953   0.21288   0.24819   0.47480   0.53039

 Mulliken charges:
               1
     1  H   -0.134427
     2  H    0.087273
     3  H    0.099235
     4  H   -0.134427
     5  H    0.082346
     6  H    0.082346
     7  H    0.099235
     8  H   -0.134427
     9  H   -0.134427
    10  H    0.087273
 Sum of Mulliken charges =  -0.00000

 Dipole moment (field-independent basis, Debye):
    X=              0.0000    Y=             -0.0000    Z=              0.0000  Tot=              0.0000
 Quadrupole moment (field-independent basis, Debye-Ang):
   XX=            -12.9073   YY=            -16.6887   ZZ=            -16.5149
   XY=             -0.0000   XZ=              0.0000   YZ=             -0.0000

 Normal termination of Gaussian 09 at Thu Feb  9 16:13:38 2017.
