 Gaussian 09, Revision E.01,
 Gaussian 09:  ES64L-G09RevE.01 30-Nov-2015

 ----------------------------------------------------------------------
 #rhf/gen scf(symm,tight,novaracc,noincfock,fulldiag) stable(crhf) geom
 =nocrowd test
 ----------------------------------------------------------------------

 hf stability analysis of h10 triangular lattice, y= 0.8035739955143523
 8
 ----------------------------------------------------------------------
 Symbolic Z-matrix:
 Charge =  0 Multiplicity = 1

                         Standard orientation:
 ---------------------------------------------------------------------
 Center     Atomic      Atomic             Coordinates (Angstroms)
 Number     Number       Type             X           Y           Z
 ---------------------------------------------------------------------
      1          1           0        0.000000    0.803574    1.436956
      2          1           0        0.000000    0.000000    2.155434
      3          1           0        0.000000    0.000000    0.718478
      4          1           0       -0.000000   -0.803574    1.436956
      5          1           0       -0.000000    0.803574   -0.000000
      6          1           0       -0.000000   -0.803574    0.000000
      7          1           0        0.000000   -0.000000   -0.718478
      8          1           0        0.000000    0.803574   -1.436956
      9          1           0       -0.000000   -0.803574   -1.436956
     10          1           0        0.000000   -0.000000   -2.155434
 ---------------------------------------------------------------------

 SCF Done:  E(RHF) =  -4.91046640288     A.U. after    8 cycles
 E2 =    -0.9645483258D-01 EUMP2 =    -0.50069212354557D+01

 The electronic state is 1-AG.
 Alpha  occ. eigenvalues --   -0.92655  -0.74919  -0.50045  -0.49673  -0.29552
 Alpha virt. eigenvalues --    0.01774   0.16535   0.40130   0.44212   0.54315

 Mulliken charges:
               1
     1  H   -0.183977
     2  H    0.184580
     3  H    0.124858
     4  H   -0.183977
     5  H    0.058516
     6  H    0.058516
     7  H    0.124858
     8  H   -0.183977
     9  H   -0.183977
    10  H    0.184580
 Sum of Mulliken charges =  -0.00000

 Dipole moment (field-independent basis, Debye):
    X=              0.0000    Y=              0.0000    Z=             -0.0000  Tot=              0.0000
 Quadrupole moment (field-independent basis, Debye-Ang):
   XX=            -12.9750   YY=            -18.0275   ZZ=            -13.0145
   XY=             -0.0000   XZ=             -0.0000   YZ=              0.0000

 Normal termination of Gaussian 09 at Thu Feb  9 16:08:56 2017.
