 Gaussian 09, Revision E.01,
 Gaussian 09:  ES64L-G09RevE.01 30-Nov-2015

 ----------------------------------------------------------------------
 #rhf/gen scf(symm,tight,novaracc,noincfock,fulldiag) stable(crhf) geom
 =nocrowd test
 ----------------------------------------------------------------------

 ----------------------------------------------------------------------
 hf stability analysis of h10 triangular lattice, y= 1.0311871763068714
 ----------------------------------------------------------------------
 Symbolic Z-matrix:
 Charge =  0 Multiplicity = 1

                         Standard orientation:
 ---------------------------------------------------------------------
 Center     Atomic      Atomic             Coordinates (Angstroms)
 Number     Number       Type             X           Y           Z
 ---------------------------------------------------------------------
      1          1           0        0.000000    1.031187    1.119778
      2          1           0        0.000000   -0.000000    1.679667
      3          1           0        0.000000   -0.000000    0.559889
      4          1           0       -0.000000   -1.031187    1.119778
      5          1           0       -0.000000    1.031187    0.000000
      6          1           0       -0.000000   -1.031187   -0.000000
      7          1           0        0.000000    0.000000   -0.559889
      8          1           0        0.000000    1.031187   -1.119778
      9          1           0       -0.000000   -1.031187   -1.119778
     10          1           0        0.000000    0.000000   -1.679667
 ---------------------------------------------------------------------

 SCF Done:  E(RHF) =  -4.91806987004     A.U. after    9 cycles
 E2 =    -0.1040823809D+00 EUMP2 =    -0.50221522509250D+01

 The electronic state is 1-AG.
 Alpha  occ. eigenvalues --   -0.97044  -0.72032  -0.62540  -0.38147  -0.34196
 Alpha virt. eigenvalues --    0.06335   0.24205   0.29178   0.38807   0.62622

 Mulliken charges:
               1
     1  H   -0.080594
     2  H   -0.026753
     3  H    0.108498
     4  H   -0.080594
     5  H    0.079443
     6  H    0.079443
     7  H    0.108498
     8  H   -0.080594
     9  H   -0.080594
    10  H   -0.026753
 Sum of Mulliken charges =  -0.00000

 Dipole moment (field-independent basis, Debye):
    X=              0.0000    Y=              0.0000    Z=              0.0000  Tot=              0.0000
 Quadrupole moment (field-independent basis, Debye-Ang):
   XX=            -12.8196   YY=            -14.9559   ZZ=            -19.3680
   XY=             -0.0000   XZ=              0.0000   YZ=             -0.0000

 Normal termination of Gaussian 09 at Thu Feb  9 16:18:12 2017.
