 Gaussian 09, Revision E.01,
 Gaussian 09:  ES64L-G09RevE.01 30-Nov-2015

 ----------------------------------------------------------------------
 #rhf/gen scf(symm,tight,novaracc,noincfock,fulldiag) stable(crhf) geom
 =nocrowd test
 ----------------------------------------------------------------------

 hf stability analysis of h10 triangular lattice, y= 0.9182585968246566
 0
 ----------------------------------------------------------------------
 Symbolic Z-matrix:
 Charge =  0 Multiplicity = 1

                         Standard orientation:
 ---------------------------------------------------------------------
 Center     Atomic      Atomic             Coordinates (Angstroms)
 Number     Number       Type             X           Y           Z
 ---------------------------------------------------------------------
      1          1           0       -0.000000    0.918259    1.257490
      2          1           0       -0.000000   -0.000000    1.886234
      3          1           0       -0.000000   -0.000000    0.628745
      4          1           0       -0.000000   -0.918259    1.257490
      5          1           0       -0.000000    0.918259    0.000000
      6          1           0       -0.000000   -0.918259   -0.000000
      7          1           0        0.000000    0.000000   -0.628745
      8          1           0        0.000000    0.918259   -1.257490
      9          1           0       -0.000000   -0.918259   -1.257490
     10          1           0        0.000000    0.000000   -1.886234
 ---------------------------------------------------------------------

 SCF Done:  E(RHF) =  -4.96970005520     A.U. after    8 cycles
 E2 =    -0.9764023619D-01 EUMP2 =    -0.50673402913885D+01

 The electronic state is 1-AG.
 Alpha  occ. eigenvalues --   -0.95567  -0.74133  -0.56936  -0.44431  -0.32823
 Alpha virt. eigenvalues --    0.13219   0.21954   0.22869   0.46492   0.54182

 Mulliken charges:
               1
     1  H   -0.129275
     2  H    0.076374
     3  H    0.098688
     4  H   -0.129275
     5  H    0.083487
     6  H    0.083487
     7  H    0.098688
     8  H   -0.129275
     9  H   -0.129275
    10  H    0.076374
 Sum of Mulliken charges =  -0.00000

 Dipole moment (field-independent basis, Debye):
    X=              0.0000    Y=             -0.0000    Z=             -0.0000  Tot=              0.0000
 Quadrupole moment (field-independent basis, Debye-Ang):
   XX=            -12.8993   YY=            -16.5287   ZZ=            -16.8433
   XY=             -0.0000   XZ=              0.0000   YZ=              0.0000

 Normal termination of Gaussian 09 at Thu Feb  9 16:14:07 2017.
