 Gaussian 09, Revision E.01,
 Gaussian 09:  ES64L-G09RevE.01 30-Nov-2015

 ----------------------------------------------------------------------
 #rhf/gen scf(symm,tight,novaracc,noincfock,fulldiag) stable(crhf) geom
 =nocrowd test
 ----------------------------------------------------------------------

 ----------------------------------------------------------------------
 hf stability analysis of h10 triangular lattice, y= 1.0679350336702964
 ----------------------------------------------------------------------
 Symbolic Z-matrix:
 Charge =  0 Multiplicity = 1

                         Standard orientation:
 ---------------------------------------------------------------------
 Center     Atomic      Atomic             Coordinates (Angstroms)
 Number     Number       Type             X           Y           Z
 ---------------------------------------------------------------------
      1          1           0       -0.000000    1.067935    1.081246
      2          1           0       -0.000000    0.000000    1.621869
      3          1           0       -0.000000    0.000000    0.540623
      4          1           0       -0.000000   -1.067935    1.081246
      5          1           0       -0.000000    1.067935   -0.000000
      6          1           0       -0.000000   -1.067935    0.000000
      7          1           0        0.000000   -0.000000   -0.540623
      8          1           0        0.000000    1.067935   -1.081246
      9          1           0       -0.000000   -1.067935   -1.081246
     10          1           0        0.000000   -0.000000   -1.621869
 ---------------------------------------------------------------------

 SCF Done:  E(RHF) =  -4.87959597584     A.U. after   10 cycles
 E2 =    -0.1074118603D+00 EUMP2 =    -0.49870078361786D+01

 The electronic state is 1-AG.
 Alpha  occ. eigenvalues --   -0.97324  -0.71207  -0.64117  -0.35967  -0.34313
 Alpha virt. eigenvalues --    0.01648   0.25456   0.31840   0.39041   0.64607

 Mulliken charges:
               1
     1  H   -0.059860
     2  H   -0.064169
     3  H    0.117319
     4  H   -0.059860
     5  H    0.066571
     6  H    0.066571
     7  H    0.117319
     8  H   -0.059860
     9  H   -0.059860
    10  H   -0.064169
 Sum of Mulliken charges =   0.00000

 Dipole moment (field-independent basis, Debye):
    X=             -0.0000    Y=             -0.0000    Z=              0.0000  Tot=              0.0000
 Quadrupole moment (field-independent basis, Debye-Ang):
   XX=            -12.7900   YY=            -14.4185   ZZ=            -19.9831
   XY=             -0.0000   XZ=              0.0000   YZ=             -0.0000

 Normal termination of Gaussian 09 at Thu Feb  9 16:19:22 2017.
