 Gaussian 09, Revision E.01,
 Gaussian 09:  ES64L-G09RevE.01 30-Nov-2015

 ----------------------------------------------------------------------
 #rhf/gen scf(symm,tight,novaracc,noincfock,fulldiag) stable(crhf) geom
 =nocrowd test
 ----------------------------------------------------------------------

 ----------------------------------------------------------------------
 hf stability analysis of h10 triangular lattice, y= 1.2029713290986654
 ----------------------------------------------------------------------
 Symbolic Z-matrix:
 Charge =  0 Multiplicity = 1

                         Standard orientation:
 ---------------------------------------------------------------------
 Center     Atomic      Atomic             Coordinates (Angstroms)
 Number     Number       Type             X           Y           Z
 ---------------------------------------------------------------------
      1          1           0       -0.000000    1.202971    0.959874
      2          1           0        0.000000    0.000000    1.439811
      3          1           0        0.000000    0.000000    0.479937
      4          1           0       -0.000000   -1.202971    0.959874
      5          1           0       -0.000000    1.202971   -0.000000
      6          1           0       -0.000000   -1.202971    0.000000
      7          1           0        0.000000   -0.000000   -0.479937
      8          1           0        0.000000    1.202971   -0.959874
      9          1           0       -0.000000   -1.202971   -0.959874
     10          1           0        0.000000   -0.000000   -1.439811
 ---------------------------------------------------------------------

 SCF Done:  E(RHF) =  -4.88371567486     A.U. after    9 cycles
 E2 =    -0.9614197351D-01 EUMP2 =    -0.49798576483746D+01

 The electronic state is 1-AG.
 Alpha  occ. eigenvalues --   -0.94139  -0.67165  -0.67014  -0.39800  -0.30882
 Alpha virt. eigenvalues --   -0.01396   0.16097   0.51393   0.57093   0.74505

 Mulliken charges:
               1
     1  H   -0.080398
     2  H    0.273259
     3  H   -0.024617
     4  H   -0.080398
     5  H   -0.087846
     6  H   -0.087846
     7  H   -0.024617
     8  H   -0.080398
     9  H   -0.080398
    10  H    0.273259
 Sum of Mulliken charges =   0.00000

 Dipole moment (field-independent basis, Debye):
    X=              0.0000    Y=             -0.0000    Z=              0.0000  Tot=              0.0000
 Quadrupole moment (field-independent basis, Debye-Ang):
   XX=            -12.5946   YY=            -21.2602   ZZ=             -9.5765
   XY=             -0.0000   XZ=             -0.0000   YZ=              0.0000

 Normal termination of Gaussian 09 at Thu Feb  9 16:22:58 2017.
