 Gaussian 09, Revision E.01,
 Gaussian 09:  ES64L-G09RevE.01 30-Nov-2015

 ----------------------------------------------------------------------
 #rhf/gen scf(symm,tight,novaracc,noincfock,fulldiag) stable(crhf) geom
 =nocrowd test
 ----------------------------------------------------------------------

 hf stability analysis of h10 triangular lattice, y= 0.7752448449173694
 5
 ----------------------------------------------------------------------
 Symbolic Z-matrix:
 Charge =  0 Multiplicity = 1

                         Standard orientation:
 ---------------------------------------------------------------------
 Center     Atomic      Atomic             Coordinates (Angstroms)
 Number     Number       Type             X           Y           Z
 ---------------------------------------------------------------------
      1          1           0       -0.000000    0.775245    1.489466
      2          1           0       -0.000000   -0.000000    2.234198
      3          1           0       -0.000000   -0.000000    0.744733
      4          1           0       -0.000000   -0.775245    1.489466
      5          1           0       -0.000000    0.775245    0.000000
      6          1           0       -0.000000   -0.775245   -0.000000
      7          1           0        0.000000    0.000000   -0.744733
      8          1           0        0.000000    0.775245   -1.489466
      9          1           0       -0.000000   -0.775245   -1.489466
     10          1           0        0.000000    0.000000   -2.234198
 ---------------------------------------------------------------------

 SCF Done:  E(RHF) =  -4.87792468406     A.U. after    8 cycles
 E2 =    -0.9701273752D-01 EUMP2 =    -0.49749374215823D+01

 The electronic state is 1-AG.
 Alpha  occ. eigenvalues --   -0.91647  -0.74808  -0.51258  -0.47555  -0.28360
 Alpha virt. eigenvalues --   -0.00678   0.15592   0.36788   0.49053   0.55073

 Mulliken charges:
               1
     1  H   -0.199871
     2  H    0.212540
     3  H    0.140959
     4  H   -0.199871
     5  H    0.046244
     6  H    0.046244
     7  H    0.140959
     8  H   -0.199871
     9  H   -0.199871
    10  H    0.212540
 Sum of Mulliken charges =  -0.00000

 Dipole moment (field-independent basis, Debye):
    X=              0.0000    Y=              0.0000    Z=             -0.0000  Tot=              0.0000
 Quadrupole moment (field-independent basis, Debye-Ang):
   XX=            -12.9932   YY=            -18.3799   ZZ=            -11.7948
   XY=             -0.0000   XZ=             -0.0000   YZ=             -0.0000

 Normal termination of Gaussian 09 at Thu Feb  9 16:07:28 2017.
