 Gaussian 09, Revision E.01,
 Gaussian 09:  ES64L-G09RevE.01 30-Nov-2015

 ----------------------------------------------------------------------
 #rhf/gen scf(symm,tight,novaracc,noincfock,fulldiag) stable(crhf) geom
 =nocrowd test
 ----------------------------------------------------------------------

 ----------------------------------------------------------------------
 hf stability analysis of h10 triangular lattice, y= 1.1924103273918456
 ----------------------------------------------------------------------
 Symbolic Z-matrix:
 Charge =  0 Multiplicity = 1

                         Standard orientation:
 ---------------------------------------------------------------------
 Center     Atomic      Atomic             Coordinates (Angstroms)
 Number     Number       Type             X           Y           Z
 ---------------------------------------------------------------------
      1          1           0       -0.000000    1.192410    0.968375
      2          1           0        0.000000   -0.000000    1.452563
      3          1           0        0.000000   -0.000000    0.484188
      4          1           0       -0.000000   -1.192410    0.968375
      5          1           0       -0.000000    1.192410    0.000000
      6          1           0       -0.000000   -1.192410   -0.000000
      7          1           0        0.000000    0.000000   -0.484188
      8          1           0        0.000000    1.192410   -0.968375
      9          1           0       -0.000000   -1.192410   -0.968375
     10          1           0        0.000000    0.000000   -1.452563
 ---------------------------------------------------------------------

 SCF Done:  E(RHF) =  -4.87337654145     A.U. after    9 cycles
 E2 =    -0.9756728216D-01 EUMP2 =    -0.49709438236106D+01

 The electronic state is 1-AG.
 Alpha  occ. eigenvalues --   -0.94120  -0.67415  -0.66710  -0.38830  -0.30982
 Alpha virt. eigenvalues --   -0.01865   0.16631   0.50395   0.55606   0.73965

 Mulliken charges:
               1
     1  H   -0.075631
     2  H    0.263267
     3  H   -0.018001
     4  H   -0.075631
     5  H   -0.094005
     6  H   -0.094005
     7  H   -0.018001
     8  H   -0.075631
     9  H   -0.075631
    10  H    0.263267
 Sum of Mulliken charges =   0.00000

 Dipole moment (field-independent basis, Debye):
    X=              0.0000    Y=             -0.0000    Z=              0.0000  Tot=              0.0000
 Quadrupole moment (field-independent basis, Debye-Ang):
   XX=            -12.5917   YY=            -21.1721   ZZ=             -9.6042
   XY=             -0.0000   XZ=             -0.0000   YZ=             -0.0000

 Normal termination of Gaussian 09 at Thu Feb  9 16:22:43 2017.
