 Gaussian 09, Revision E.01,
 Gaussian 09:  ES64L-G09RevE.01 30-Nov-2015

 ----------------------------------------------------------------------
 #rhf/gen scf(symm,tight,novaracc,noincfock,fulldiag) stable(crhf) geom
 =nocrowd test
 ----------------------------------------------------------------------

 hf stability analysis of h10 triangular lattice, y= 0.8156821057826055
 8
 ----------------------------------------------------------------------
 Symbolic Z-matrix:
 Charge =  0 Multiplicity = 1

                         Standard orientation:
 ---------------------------------------------------------------------
 Center     Atomic      Atomic             Coordinates (Angstroms)
 Number     Number       Type             X           Y           Z
 ---------------------------------------------------------------------
      1          1           0        0.000000    0.815682    1.415626
      2          1           0        0.000000   -0.000000    2.123439
      3          1           0        0.000000   -0.000000    0.707813
      4          1           0       -0.000000   -0.815682    1.415626
      5          1           0       -0.000000    0.815682    0.000000
      6          1           0       -0.000000   -0.815682   -0.000000
      7          1           0        0.000000    0.000000   -0.707813
      8          1           0        0.000000    0.815682   -1.415626
      9          1           0       -0.000000   -0.815682   -1.415626
     10          1           0        0.000000    0.000000   -2.123439
 ---------------------------------------------------------------------

 SCF Done:  E(RHF) =  -4.92218929351     A.U. after    8 cycles
 E2 =    -0.9632320492D-01 EUMP2 =    -0.50185124984331D+01

 The electronic state is 1-AG.
 Alpha  occ. eigenvalues --   -0.93047  -0.74924  -0.50533  -0.49502  -0.30010
 Alpha virt. eigenvalues --    0.02877   0.16991   0.40112   0.43530   0.53792

 Mulliken charges:
               1
     1  H   -0.177526
     2  H    0.172781
     3  H    0.119385
     4  H   -0.177526
     5  H    0.062885
     6  H    0.062885
     7  H    0.119385
     8  H   -0.177526
     9  H   -0.177526
    10  H    0.172781
 Sum of Mulliken charges =   0.00000

 Dipole moment (field-independent basis, Debye):
    X=              0.0000    Y=             -0.0000    Z=             -0.0000  Tot=              0.0000
 Quadrupole moment (field-independent basis, Debye-Ang):
   XX=            -12.9672   YY=            -17.8742   ZZ=            -13.4979
   XY=             -0.0000   XZ=             -0.0000   YZ=              0.0000

 Normal termination of Gaussian 09 at Thu Feb  9 16:09:32 2017.
