 Gaussian 09, Revision E.01,
 Gaussian 09:  ES64L-G09RevE.01 30-Nov-2015

 ----------------------------------------------------------------------
 #rhf/gen scf(symm,tight,novaracc,noincfock,fulldiag) stable(crhf) geom
 =nocrowd test
 ----------------------------------------------------------------------

 ----------------------------------------------------------------------
 hf stability analysis of h10 triangular lattice, y= 2.3840951758941467
 ----------------------------------------------------------------------
 Symbolic Z-matrix:
 Charge =  0 Multiplicity = 1

                         Standard orientation:
 ---------------------------------------------------------------------
 Center     Atomic      Atomic             Coordinates (Angstroms)
 Number     Number       Type             X           Y           Z
 ---------------------------------------------------------------------
      1          1           0        0.000000    2.384095    0.484335
      2          1           0        0.000000    0.000000    0.726503
      3          1           0        0.000000    0.000000    0.242167
      4          1           0       -0.000000   -2.384095    0.484335
      5          1           0       -0.000000    2.384095    0.000000
      6          1           0       -0.000000   -2.384095    0.000000
      7          1           0        0.000000   -0.000000   -0.242167
      8          1           0        0.000000    2.384095   -0.484335
      9          1           0       -0.000000   -2.384095   -0.484335
     10          1           0        0.000000   -0.000000   -0.726503
 ---------------------------------------------------------------------

 SCF Done:  E(RHF) =  -3.19262148802     A.U. after    7 cycles
 E2 =    -0.2499150456D+00 EUMP2 =    -0.34425365335776D+01

 The electronic state is 1-AG.
 Alpha  occ. eigenvalues --   -1.07392  -0.92389  -0.92386  -0.53582  -0.12343
 Alpha virt. eigenvalues --   -0.00639   0.58359   1.51077   1.52341   2.50625

 Mulliken charges:
               1
     1  H    0.313289
     2  H    0.308077
     3  H   -0.299436
     4  H    0.313289
     5  H   -0.635218
     6  H   -0.635218
     7  H   -0.299436
     8  H    0.313289
     9  H    0.313289
    10  H    0.308077
 Sum of Mulliken charges =  -0.00000

 Dipole moment (field-independent basis, Debye):
    X=              0.0000    Y=              0.0000    Z=             -0.0000  Tot=              0.0000
 Quadrupole moment (field-independent basis, Debye-Ang):
   XX=            -12.1426   YY=            -13.4932   ZZ=            -14.8522
   XY=              0.0000   XZ=              0.0000   YZ=              0.0000

 Normal termination of Gaussian 09 at Thu Feb  9 16:34:05 2017.
