 Gaussian 09, Revision E.01,
 Gaussian 09:  ES64L-G09RevE.01 30-Nov-2015

 ----------------------------------------------------------------------
 #rhf/gen scf(symm,tight,novaracc,noincfock,fulldiag) stable(crhf) geom
 =nocrowd test
 ----------------------------------------------------------------------

 ----------------------------------------------------------------------
 hf stability analysis of h10 triangular lattice, y= 1.1014370258989608
 ----------------------------------------------------------------------
 Symbolic Z-matrix:
 Charge =  0 Multiplicity = 1

                         Standard orientation:
 ---------------------------------------------------------------------
 Center     Atomic      Atomic             Coordinates (Angstroms)
 Number     Number       Type             X           Y           Z
 ---------------------------------------------------------------------
      1          1           0        0.000000    1.101437    1.048358
      2          1           0        0.000000   -0.000000    1.572537
      3          1           0        0.000000   -0.000000    0.524179
      4          1           0       -0.000000   -1.101437    1.048358
      5          1           0       -0.000000    1.101437    0.000000
      6          1           0       -0.000000   -1.101437   -0.000000
      7          1           0        0.000000    0.000000   -0.524179
      8          1           0        0.000000    1.101437   -1.048358
      9          1           0       -0.000000   -1.101437   -1.048358
     10          1           0        0.000000    0.000000   -1.572537
 ---------------------------------------------------------------------

 SCF Done:  E(RHF) =  -4.83709274089     A.U. after   11 cycles
 E2 =    -0.1110265220D+00 EUMP2 =    -0.49481192629228D+01

 The electronic state is 1-AG.
 Alpha  occ. eigenvalues --   -0.97511  -0.70513  -0.65451  -0.34121  -0.33815
 Alpha virt. eigenvalues --   -0.02312   0.24565   0.34580   0.41266   0.66309

 Mulliken charges:
               1
     1  H   -0.021416
     2  H   -0.110243
     3  H    0.131041
     4  H   -0.021416
     5  H    0.022035
     6  H    0.022035
     7  H    0.131041
     8  H   -0.021416
     9  H   -0.021416
    10  H   -0.110243
 Sum of Mulliken charges =  -0.00000

 Dipole moment (field-independent basis, Debye):
    X=             -0.0000    Y=             -0.0000    Z=             -0.0000  Tot=              0.0000
 Quadrupole moment (field-independent basis, Debye-Ang):
   XX=            -12.7517   YY=            -13.9856   ZZ=            -20.2560
   XY=             -0.0000   XZ=              0.0000   YZ=              0.0000

 Normal termination of Gaussian 09 at Thu Feb  9 16:20:22 2017.
