 Gaussian 09, Revision E.01,
 Gaussian 09:  ES64L-G09RevE.01 30-Nov-2015

 ----------------------------------------------------------------------
 #rhf/gen scf(symm,tight,novaracc,noincfock,fulldiag) stable(crhf) geom
 =nocrowd test
 ----------------------------------------------------------------------

 ----------------------------------------------------------------------
 hf stability analysis of h10 triangular lattice, y= 1.6005954006963241
 ----------------------------------------------------------------------
 Symbolic Z-matrix:
 Charge =  0 Multiplicity = 1

                         Standard orientation:
 ---------------------------------------------------------------------
 Center     Atomic      Atomic             Coordinates (Angstroms)
 Number     Number       Type             X           Y           Z
 ---------------------------------------------------------------------
      1          1           0        0.000000    1.600595    0.721419
      2          1           0        0.000000   -0.000000    1.082129
      3          1           0        0.000000   -0.000000    0.360710
      4          1           0       -0.000000   -1.600595    0.721419
      5          1           0       -0.000000    1.600595    0.000000
      6          1           0       -0.000000   -1.600595   -0.000000
      7          1           0        0.000000    0.000000   -0.360710
      8          1           0        0.000000    1.600595   -0.721419
      9          1           0       -0.000000   -1.600595   -0.721419
     10          1           0        0.000000    0.000000   -1.082129
 ---------------------------------------------------------------------

 SCF Done:  E(RHF) =  -4.79604470008     A.U. after    7 cycles
 E2 =    -0.9977239081D-01 EUMP2 =    -0.48958170908881D+01

 The electronic state is 1-AG.
 Alpha  occ. eigenvalues --   -0.96849  -0.77480  -0.68547  -0.59935  -0.24611
 Alpha virt. eigenvalues --    0.01820   0.20480   0.85868   0.95121   1.16147

 Mulliken charges:
               1
     1  H    0.025013
     2  H    0.234595
     3  H   -0.097917
     4  H    0.025013
     5  H   -0.186704
     6  H   -0.186704
     7  H   -0.097917
     8  H    0.025013
     9  H    0.025013
    10  H    0.234595
 Sum of Mulliken charges =   0.00000

 Dipole moment (field-independent basis, Debye):
    X=              0.0000    Y=             -0.0000    Z=              0.0000  Tot=              0.0000
 Quadrupole moment (field-independent basis, Debye-Ang):
   XX=            -12.5687   YY=            -18.9282   ZZ=            -12.8833
   XY=             -0.0000   XZ=             -0.0000   YZ=              0.0000

 Normal termination of Gaussian 09 at Thu Feb  9 16:29:17 2017.
