 Gaussian 09, Revision E.01,
 Gaussian 09:  ES64L-G09RevE.01 30-Nov-2015

 ----------------------------------------------------------------------
 #rhf/gen scf(symm,tight,novaracc,noincfock,fulldiag) stable(crhf) geom
 =nocrowd test
 ----------------------------------------------------------------------

 hf stability analysis of h10 triangular lattice, y= 0.7827319151780829
 4
 ----------------------------------------------------------------------
 Symbolic Z-matrix:
 Charge =  0 Multiplicity = 1

                         Standard orientation:
 ---------------------------------------------------------------------
 Center     Atomic      Atomic             Coordinates (Angstroms)
 Number     Number       Type             X           Y           Z
 ---------------------------------------------------------------------
      1          1           0        0.000000    0.782732    1.475218
      2          1           0        0.000000   -0.000000    2.212828
      3          1           0        0.000000   -0.000000    0.737609
      4          1           0       -0.000000   -0.782732    1.475218
      5          1           0       -0.000000    0.782732    0.000000
      6          1           0       -0.000000   -0.782732   -0.000000
      7          1           0        0.000000    0.000000   -0.737609
      8          1           0        0.000000    0.782732   -1.475218
      9          1           0       -0.000000   -0.782732   -1.475218
     10          1           0        0.000000    0.000000   -2.212828
 ---------------------------------------------------------------------

 SCF Done:  E(RHF) =  -4.88722540154     A.U. after    8 cycles
 E2 =    -0.9683050354D-01 EUMP2 =    -0.49840559050824D+01

 The electronic state is 1-AG.
 Alpha  occ. eigenvalues --   -0.91926  -0.74851  -0.50945  -0.48129  -0.28692
 Alpha virt. eigenvalues --   -0.00048   0.15824   0.37779   0.47690   0.54942

 Mulliken charges:
               1
     1  H   -0.195557
     2  H    0.205104
     3  H    0.136230
     4  H   -0.195557
     5  H    0.049781
     6  H    0.049781
     7  H    0.136230
     8  H   -0.195557
     9  H   -0.195557
    10  H    0.205104
 Sum of Mulliken charges =   0.00000

 Dipole moment (field-independent basis, Debye):
    X=              0.0000    Y=             -0.0000    Z=              0.0000  Tot=              0.0000
 Quadrupole moment (field-independent basis, Debye-Ang):
   XX=            -12.9884   YY=            -18.2877   ZZ=            -12.1298
   XY=             -0.0000   XZ=             -0.0000   YZ=              0.0000

 Normal termination of Gaussian 09 at Thu Feb  9 16:07:52 2017.
