 Gaussian 09, Revision E.01,
 Gaussian 09:  ES64L-G09RevE.01 30-Nov-2015

 ----------------------------------------------------------------------
 #rhf/gen scf(symm,tight,novaracc,noincfock,fulldiag) stable(crhf) geom
 =nocrowd test
 ----------------------------------------------------------------------

 hf stability analysis of h10 triangular lattice, y= 0.8436216253694736
 0
 ----------------------------------------------------------------------
 Symbolic Z-matrix:
 Charge =  0 Multiplicity = 1

                         Standard orientation:
 ---------------------------------------------------------------------
 Center     Atomic      Atomic             Coordinates (Angstroms)
 Number     Number       Type             X           Y           Z
 ---------------------------------------------------------------------
      1          1           0       -0.000000    0.843622    1.368742
      2          1           0       -0.000000   -0.000000    2.053113
      3          1           0       -0.000000   -0.000000    0.684371
      4          1           0       -0.000000   -0.843622    1.368742
      5          1           0       -0.000000    0.843622    0.000000
      6          1           0       -0.000000   -0.843622   -0.000000
      7          1           0        0.000000    0.000000   -0.684371
      8          1           0        0.000000    0.843622   -1.368742
      9          1           0       -0.000000   -0.843622   -1.368742
     10          1           0        0.000000    0.000000   -2.053113
 ---------------------------------------------------------------------

 SCF Done:  E(RHF) =  -4.94428450030     A.U. after    8 cycles
 E2 =    -0.9625520264D-01 EUMP2 =    -0.50405397029444D+01

 The electronic state is 1-AG.
 Alpha  occ. eigenvalues --   -0.93870  -0.74849  -0.52428  -0.48199  -0.30956
 Alpha virt. eigenvalues --    0.05534   0.18157   0.35693   0.46248   0.52216

 Mulliken charges:
               1
     1  H   -0.163350
     2  H    0.145913
     3  H    0.109597
     4  H   -0.163350
     5  H    0.071190
     6  H    0.071190
     7  H    0.109597
     8  H   -0.163350
     9  H   -0.163350
    10  H    0.145913
 Sum of Mulliken charges =  -0.00000

 Dipole moment (field-independent basis, Debye):
    X=              0.0000    Y=             -0.0000    Z=              0.0000  Tot=              0.0000
 Quadrupole moment (field-independent basis, Debye-Ang):
   XX=            -12.9489   YY=            -17.5155   ZZ=            -14.5347
   XY=             -0.0000   XZ=             -0.0000   YZ=             -0.0000

 Normal termination of Gaussian 09 at Thu Feb  9 16:10:52 2017.
