 Gaussian 09, Revision E.01,
 Gaussian 09:  ES64L-G09RevE.01 30-Nov-2015

 ----------------------------------------------------------------------
 #rhf/gen scf(symm,tight,novaracc,noincfock,fulldiag) stable(crhf) geom
 =nocrowd test
 ----------------------------------------------------------------------

 hf stability analysis of h10 triangular lattice, y= 0.8922525308088171
 7
 ----------------------------------------------------------------------
 Symbolic Z-matrix:
 Charge =  0 Multiplicity = 1

                         Standard orientation:
 ---------------------------------------------------------------------
 Center     Atomic      Atomic             Coordinates (Angstroms)
 Number     Number       Type             X           Y           Z
 ---------------------------------------------------------------------
      1          1           0        0.000000    0.892253    1.294141
      2          1           0       -0.000000   -0.000000    1.941211
      3          1           0       -0.000000   -0.000000    0.647070
      4          1           0       -0.000000   -0.892253    1.294141
      5          1           0       -0.000000    0.892253    0.000000
      6          1           0       -0.000000   -0.892253   -0.000000
      7          1           0        0.000000    0.000000   -0.647070
      8          1           0        0.000000    0.892253   -1.294141
      9          1           0       -0.000000   -0.892253   -1.294141
     10          1           0        0.000000    0.000000   -1.941211
 ---------------------------------------------------------------------

 SCF Done:  E(RHF) =  -4.96636131681     A.U. after    8 cycles
 E2 =    -0.9690145644D-01 EUMP2 =    -0.50632627732554D+01

 The electronic state is 1-AG.
 Alpha  occ. eigenvalues --   -0.95052  -0.74459  -0.55449  -0.45786  -0.32272
 Alpha virt. eigenvalues --    0.10467   0.20527   0.27183   0.48633   0.51618

 Mulliken charges:
               1
     1  H   -0.140648
     2  H    0.100274
     3  H    0.100400
     4  H   -0.140648
     5  H    0.080621
     6  H    0.080621
     7  H    0.100400
     8  H   -0.140648
     9  H   -0.140648
    10  H    0.100274
 Sum of Mulliken charges =   0.00000

 Dipole moment (field-independent basis, Debye):
    X=              0.0000    Y=              0.0000    Z=             -0.0000  Tot=              0.0000
 Quadrupole moment (field-independent basis, Debye-Ang):
   XX=            -12.9168   YY=            -16.8769   ZZ=            -16.1074
   XY=             -0.0000   XZ=             -0.0000   YZ=              0.0000

 Normal termination of Gaussian 09 at Thu Feb  9 16:13:02 2017.
