 Gaussian 09, Revision E.01,
 Gaussian 09:  ES64L-G09RevE.01 30-Nov-2015

 ----------------------------------------------------------------------
 #rhf/gen scf(symm,tight,novaracc,noincfock,fulldiag) stable(crhf) geom
 =nocrowd test
 ----------------------------------------------------------------------

 hf stability analysis of h10 triangular lattice, y= 0.9156863109693733
 6
 ----------------------------------------------------------------------
 Symbolic Z-matrix:
 Charge =  0 Multiplicity = 1

                         Standard orientation:
 ---------------------------------------------------------------------
 Center     Atomic      Atomic             Coordinates (Angstroms)
 Number     Number       Type             X           Y           Z
 ---------------------------------------------------------------------
      1          1           0        0.000000    0.915686    1.261022
      2          1           0        0.000000    0.000000    1.891533
      3          1           0        0.000000    0.000000    0.630511
      4          1           0       -0.000000   -0.915686    1.261022
      5          1           0       -0.000000    0.915686    0.000000
      6          1           0       -0.000000   -0.915686    0.000000
      7          1           0        0.000000   -0.000000   -0.630511
      8          1           0        0.000000    0.915686   -1.261022
      9          1           0       -0.000000   -0.915686   -1.261022
     10          1           0        0.000000   -0.000000   -1.891533
 ---------------------------------------------------------------------

 SCF Done:  E(RHF) =  -4.96963062680     A.U. after    8 cycles
 E2 =    -0.9755497443D-01 EUMP2 =    -0.50671856012257D+01

 The electronic state is 1-AG.
 Alpha  occ. eigenvalues --   -0.95519  -0.74168  -0.56793  -0.44567  -0.32773
 Alpha virt. eigenvalues --    0.12945   0.21808   0.23287   0.46706   0.53939

 Mulliken charges:
               1
     1  H   -0.130382
     2  H    0.078725
     3  H    0.098775
     4  H   -0.130382
     5  H    0.083264
     6  H    0.083264
     7  H    0.098775
     8  H   -0.130382
     9  H   -0.130382
    10  H    0.078725
 Sum of Mulliken charges =  -0.00000

 Dipole moment (field-independent basis, Debye):
    X=              0.0000    Y=             -0.0000    Z=              0.0000  Tot=              0.0000
 Quadrupole moment (field-independent basis, Debye-Ang):
   XX=            -12.9011   YY=            -16.5634   ZZ=            -16.7734
   XY=             -0.0000   XZ=              0.0000   YZ=              0.0000

 Normal termination of Gaussian 09 at Thu Feb  9 16:14:01 2017.
