 Gaussian 09, Revision E.01,
 Gaussian 09:  ES64L-G09RevE.01 30-Nov-2015

 ----------------------------------------------------------------------
 #rhf/gen scf(symm,tight,novaracc,noincfock,fulldiag) stable(crhf) geom
 =nocrowd test
 ----------------------------------------------------------------------

 ----------------------------------------------------------------------
 hf stability analysis of h10 triangular lattice, y= 1.0725825255210610
 ----------------------------------------------------------------------
 Symbolic Z-matrix:
 Charge =  0 Multiplicity = 1

                         Standard orientation:
 ---------------------------------------------------------------------
 Center     Atomic      Atomic             Coordinates (Angstroms)
 Number     Number       Type             X           Y           Z
 ---------------------------------------------------------------------
      1          1           0       -0.000000    1.072583    1.076561
      2          1           0       -0.000000    0.000000    1.614842
      3          1           0       -0.000000    0.000000    0.538280
      4          1           0       -0.000000   -1.072583    1.076561
      5          1           0       -0.000000    1.072583    0.000000
      6          1           0       -0.000000   -1.072583    0.000000
      7          1           0        0.000000   -0.000000   -0.538280
      8          1           0        0.000000    1.072583   -1.076561
      9          1           0       -0.000000   -1.072583   -1.076561
     10          1           0        0.000000   -0.000000   -1.614842
 ---------------------------------------------------------------------

 SCF Done:  E(RHF) =  -4.87405873168     A.U. after   10 cycles
 E2 =    -0.1078840244D+00 EUMP2 =    -0.49819427561001D+01

 The electronic state is 1-AG.
 Alpha  occ. eigenvalues --   -0.97355  -0.71103  -0.64310  -0.35683  -0.34313
 Alpha virt. eigenvalues --    0.01077   0.25446   0.32191   0.39248   0.64842

 Mulliken charges:
               1
     1  H   -0.056479
     2  H   -0.069476
     3  H    0.118771
     4  H   -0.056479
     5  H    0.063663
     6  H    0.063663
     7  H    0.118771
     8  H   -0.056479
     9  H   -0.056479
    10  H   -0.069476
 Sum of Mulliken charges =  -0.00000

 Dipole moment (field-independent basis, Debye):
    X=             -0.0000    Y=              0.0000    Z=             -0.0000  Tot=              0.0000
 Quadrupole moment (field-independent basis, Debye-Ang):
   XX=            -12.7859   YY=            -14.3502   ZZ=            -20.0507
   XY=             -0.0000   XZ=              0.0000   YZ=              0.0000

 Normal termination of Gaussian 09 at Thu Feb  9 16:19:30 2017.
