 Gaussian 09, Revision E.01,
 Gaussian 09:  ES64L-G09RevE.01 30-Nov-2015

 ----------------------------------------------------------------------
 #rhf/gen scf(symm,tight,novaracc,noincfock,fulldiag) stable(crhf) geom
 =nocrowd test
 ----------------------------------------------------------------------

 ----------------------------------------------------------------------
 hf stability analysis of h10 triangular lattice, y= 1.1347541156816874
 ----------------------------------------------------------------------
 Symbolic Z-matrix:
 Charge =  0 Multiplicity = 1

                         Standard orientation:
 ---------------------------------------------------------------------
 Center     Atomic      Atomic             Coordinates (Angstroms)
 Number     Number       Type             X           Y           Z
 ---------------------------------------------------------------------
      1          1           0       -0.000000    1.134754    1.017578
      2          1           0       -0.000000   -0.000000    1.526367
      3          1           0       -0.000000   -0.000000    0.508789
      4          1           0       -0.000000   -1.134754    1.017578
      5          1           0       -0.000000    1.134754    0.000000
      6          1           0       -0.000000   -1.134754   -0.000000
      7          1           0        0.000000    0.000000   -0.508789
      8          1           0        0.000000    1.134754   -1.017578
      9          1           0       -0.000000   -1.134754   -1.017578
     10          1           0        0.000000    0.000000   -1.526367
 ---------------------------------------------------------------------

 SCF Done:  E(RHF) =  -4.81870165478     A.U. after   12 cycles
 E2 =    -0.1079043351D+00 EUMP2 =    -0.49266059899075D+01

 The electronic state is 1-AG.
 Alpha  occ. eigenvalues --   -0.95119  -0.69200  -0.65496  -0.33688  -0.31809
 Alpha virt. eigenvalues --   -0.03444   0.20177   0.42959   0.46901   0.70140

 Mulliken charges:
               1
     1  H    0.016097
     2  H    0.062936
     3  H    0.063611
     4  H    0.016097
     5  H   -0.158741
     6  H   -0.158741
     7  H    0.063611
     8  H    0.016097
     9  H    0.016097
    10  H    0.062936
 Sum of Mulliken charges =  -0.00000

 Dipole moment (field-independent basis, Debye):
    X=              0.0000    Y=             -0.0000    Z=             -0.0000  Tot=              0.0000
 Quadrupole moment (field-independent basis, Debye-Ang):
   XX=            -12.6010   YY=            -18.3633   ZZ=            -12.8901
   XY=             -0.0000   XZ=              0.0000   YZ=              0.0000

 Normal termination of Gaussian 09 at Thu Feb  9 16:21:17 2017.
