 Gaussian 09, Revision E.01,
 Gaussian 09:  ES64L-G09RevE.01 30-Nov-2015

 ----------------------------------------------------------------------
 #rhf/gen scf(symm,tight,novaracc,noincfock,fulldiag) stable(crhf) geom
 =nocrowd test
 ----------------------------------------------------------------------

 ----------------------------------------------------------------------
 hf stability analysis of h10 triangular lattice, y= 1.2044987754401906
 ----------------------------------------------------------------------
 Symbolic Z-matrix:
 Charge =  0 Multiplicity = 1

                         Standard orientation:
 ---------------------------------------------------------------------
 Center     Atomic      Atomic             Coordinates (Angstroms)
 Number     Number       Type             X           Y           Z
 ---------------------------------------------------------------------
      1          1           0       -0.000000    1.204499    0.958656
      2          1           0        0.000000    0.000000    1.437985
      3          1           0        0.000000    0.000000    0.479328
      4          1           0       -0.000000   -1.204499    0.958656
      5          1           0       -0.000000    1.204499   -0.000000
      6          1           0       -0.000000   -1.204499   -0.000000
      7          1           0        0.000000    0.000000   -0.479328
      8          1           0        0.000000    1.204499   -0.958656
      9          1           0       -0.000000   -1.204499   -0.958656
     10          1           0        0.000000    0.000000   -1.437985
 ---------------------------------------------------------------------

 SCF Done:  E(RHF) =  -4.88516479024     A.U. after    9 cycles
 E2 =    -0.9595079429D-01 EUMP2 =    -0.49811155845265D+01

 The electronic state is 1-AG.
 Alpha  occ. eigenvalues --   -0.94143  -0.67130  -0.67058  -0.39940  -0.30868
 Alpha virt. eigenvalues --   -0.01326   0.16020   0.51534   0.57308   0.74582

 Mulliken charges:
               1
     1  H   -0.080928
     2  H    0.274431
     3  H   -0.025468
     4  H   -0.080928
     5  H   -0.087106
     6  H   -0.087106
     7  H   -0.025468
     8  H   -0.080928
     9  H   -0.080928
    10  H    0.274431
 Sum of Mulliken charges =  -0.00000

 Dipole moment (field-independent basis, Debye):
    X=              0.0000    Y=             -0.0000    Z=             -0.0000  Tot=              0.0000
 Quadrupole moment (field-independent basis, Debye-Ang):
   XX=            -12.5951   YY=            -21.2694   ZZ=             -9.5768
   XY=             -0.0000   XZ=             -0.0000   YZ=             -0.0000

 Normal termination of Gaussian 09 at Thu Feb  9 16:23:00 2017.
