 Gaussian 09, Revision E.01,
 Gaussian 09:  ES64L-G09RevE.01 30-Nov-2015

 ----------------------------------------------------------------------
 #rhf/gen scf(symm,tight,novaracc,noincfock,fulldiag) stable(crhf) geom
 =nocrowd test
 ----------------------------------------------------------------------

 hf stability analysis of h10 triangular lattice, y= 0.9131263472141285
 5
 ----------------------------------------------------------------------
 Symbolic Z-matrix:
 Charge =  0 Multiplicity = 1

                         Standard orientation:
 ---------------------------------------------------------------------
 Center     Atomic      Atomic             Coordinates (Angstroms)
 Number     Number       Type             X           Y           Z
 ---------------------------------------------------------------------
      1          1           0        0.000000    0.913126    1.264557
      2          1           0        0.000000    0.000000    1.896836
      3          1           0        0.000000    0.000000    0.632279
      4          1           0       -0.000000   -0.913126    1.264557
      5          1           0       -0.000000    0.913126   -0.000000
      6          1           0       -0.000000   -0.913126    0.000000
      7          1           0        0.000000   -0.000000   -0.632279
      8          1           0        0.000000    0.913126   -1.264557
      9          1           0       -0.000000   -0.913126   -1.264557
     10          1           0        0.000000   -0.000000   -1.896836
 ---------------------------------------------------------------------

 SCF Done:  E(RHF) =  -4.96950485794     A.U. after    8 cycles
 E2 =    -0.9747277976D-01 EUMP2 =    -0.50669776376978D+01

 The electronic state is 1-AG.
 Alpha  occ. eigenvalues --   -0.95471  -0.74203  -0.56649  -0.44702  -0.32722
 Alpha virt. eigenvalues --    0.12672   0.21664   0.23704   0.46919   0.53695

 Mulliken charges:
               1
     1  H   -0.131487
     2  H    0.081067
     3  H    0.098878
     4  H   -0.131487
     5  H    0.083029
     6  H    0.083029
     7  H    0.098878
     8  H   -0.131487
     9  H   -0.131487
    10  H    0.081067
 Sum of Mulliken charges =  -0.00000

 Dipole moment (field-independent basis, Debye):
    X=              0.0000    Y=              0.0000    Z=             -0.0000  Tot=              0.0000
 Quadrupole moment (field-independent basis, Debye-Ang):
   XX=            -12.9028   YY=            -16.5978   ZZ=            -16.7033
   XY=             -0.0000   XZ=              0.0000   YZ=             -0.0000

 Normal termination of Gaussian 09 at Thu Feb  9 16:13:54 2017.
