 Gaussian 09, Revision E.01,
 Gaussian 09:  ES64L-G09RevE.01 30-Nov-2015

 ----------------------------------------------------------------------
 #rhf/gen scf(symm,tight,novaracc,noincfock,fulldiag) stable(crhf) geom
 =nocrowd test
 ----------------------------------------------------------------------

 ----------------------------------------------------------------------
 hf stability analysis of h10 triangular lattice, y= 1.6038611261814530
 ----------------------------------------------------------------------
 Symbolic Z-matrix:
 Charge =  0 Multiplicity = 1

                         Standard orientation:
 ---------------------------------------------------------------------
 Center     Atomic      Atomic             Coordinates (Angstroms)
 Number     Number       Type             X           Y           Z
 ---------------------------------------------------------------------
      1          1           0       -0.000000    1.603861    0.719950
      2          1           0        0.000000    0.000000    1.079926
      3          1           0        0.000000    0.000000    0.359975
      4          1           0       -0.000000   -1.603861    0.719950
      5          1           0       -0.000000    1.603861   -0.000000
      6          1           0       -0.000000   -1.603861    0.000000
      7          1           0        0.000000   -0.000000   -0.359975
      8          1           0        0.000000    1.603861   -0.719950
      9          1           0       -0.000000   -1.603861   -0.719950
     10          1           0        0.000000   -0.000000   -1.079926
 ---------------------------------------------------------------------

 SCF Done:  E(RHF) =  -4.79223456914     A.U. after    7 cycles
 E2 =    -0.1000964034D+00 EUMP2 =    -0.48923309725243D+01

 The electronic state is 1-AG.
 Alpha  occ. eigenvalues --   -0.96871  -0.77553  -0.68720  -0.59886  -0.24551
 Alpha virt. eigenvalues --    0.01754   0.20661   0.86146   0.95319   1.16665

 Mulliken charges:
               1
     1  H    0.026263
     2  H    0.234100
     3  H   -0.098479
     4  H    0.026263
     5  H   -0.188147
     6  H   -0.188147
     7  H   -0.098479
     8  H    0.026263
     9  H    0.026263
    10  H    0.234100
 Sum of Mulliken charges =  -0.00000

 Dipole moment (field-independent basis, Debye):
    X=              0.0000    Y=             -0.0000    Z=              0.0000  Tot=              0.0000
 Quadrupole moment (field-independent basis, Debye-Ang):
   XX=            -12.5675   YY=            -18.8998   ZZ=            -12.9024
   XY=             -0.0000   XZ=             -0.0000   YZ=              0.0000

 Normal termination of Gaussian 09 at Thu Feb  9 16:29:19 2017.
