 Gaussian 09, Revision E.01,
 Gaussian 09:  ES64L-G09RevE.01 30-Nov-2015

 ----------------------------------------------------------------------
 #rhf/gen scf(symm,tight,novaracc,noincfock,fulldiag) stable(crhf) geom
 =nocrowd test
 ----------------------------------------------------------------------

 ----------------------------------------------------------------------
 hf stability analysis of h10 triangular lattice, y= 1.5302699011377114
 ----------------------------------------------------------------------
 Symbolic Z-matrix:
 Charge =  0 Multiplicity = 1

                         Standard orientation:
 ---------------------------------------------------------------------
 Center     Atomic      Atomic             Coordinates (Angstroms)
 Number     Number       Type             X           Y           Z
 ---------------------------------------------------------------------
      1          1           0       -0.000000    1.530270    0.754573
      2          1           0       -0.000000    0.000000    1.131860
      3          1           0       -0.000000    0.000000    0.377287
      4          1           0       -0.000000   -1.530270    0.754573
      5          1           0       -0.000000    1.530270    0.000000
      6          1           0       -0.000000   -1.530270    0.000000
      7          1           0        0.000000   -0.000000   -0.377287
      8          1           0        0.000000    1.530270   -0.754573
      9          1           0       -0.000000   -1.530270   -0.754573
     10          1           0        0.000000   -0.000000   -1.131860
 ---------------------------------------------------------------------

 SCF Done:  E(RHF) =  -4.86859774829     A.U. after    8 cycles
 E2 =    -0.9382683506D-01 EUMP2 =    -0.49624245833505D+01

 The electronic state is 1-AG.
 Alpha  occ. eigenvalues --   -0.96399  -0.75866  -0.64607  -0.61032  -0.25885
 Alpha virt. eigenvalues --    0.03423   0.16563   0.79864   0.90982   1.05104

 Mulliken charges:
               1
     1  H   -0.001654
     2  H    0.246512
     3  H   -0.086465
     4  H   -0.001654
     5  H   -0.156739
     6  H   -0.156739
     7  H   -0.086465
     8  H   -0.001654
     9  H   -0.001654
    10  H    0.246512
 Sum of Mulliken charges =  -0.00000

 Dipole moment (field-independent basis, Debye):
    X=              0.0000    Y=              0.0000    Z=              0.0000  Tot=              0.0000
 Quadrupole moment (field-independent basis, Debye-Ang):
   XX=            -12.5910   YY=            -19.5244   ZZ=            -12.4296
   XY=             -0.0000   XZ=             -0.0000   YZ=              0.0000

 Normal termination of Gaussian 09 at Thu Feb  9 16:28:28 2017.
