 Gaussian 09, Revision E.01,
 Gaussian 09:  ES64L-G09RevE.01 30-Nov-2015

 ----------------------------------------------------------------------
 #rhf/gen scf(symm,tight,novaracc,noincfock,fulldiag) stable(crhf) geom
 =nocrowd test
 ----------------------------------------------------------------------

 hf stability analysis of h10 triangular lattice, y= 0.9668556302504148
 8
 ----------------------------------------------------------------------
 Symbolic Z-matrix:
 Charge =  0 Multiplicity = 1

                         Standard orientation:
 ---------------------------------------------------------------------
 Center     Atomic      Atomic             Coordinates (Angstroms)
 Number     Number       Type             X           Y           Z
 ---------------------------------------------------------------------
      1          1           0       -0.000000    0.966856    1.194284
      2          1           0       -0.000000    0.000000    1.791427
      3          1           0       -0.000000    0.000000    0.597142
      4          1           0       -0.000000   -0.966856    1.194284
      5          1           0       -0.000000    0.966856    0.000000
      6          1           0       -0.000000   -0.966856    0.000000
      7          1           0        0.000000   -0.000000   -0.597142
      8          1           0        0.000000    0.966856   -1.194284
      9          1           0       -0.000000   -0.966856   -1.194284
     10          1           0        0.000000   -0.000000   -1.791427
 ---------------------------------------------------------------------

 SCF Done:  E(RHF) =  -4.96039586820     A.U. after    8 cycles
 E2 =    -0.9975705002D-01 EUMP2 =    -0.50601529182193D+01

 The electronic state is 1-AG.
 Alpha  occ. eigenvalues --   -0.96339  -0.73345  -0.59505  -0.41800  -0.33603
 Alpha virt. eigenvalues --    0.15331   0.18397   0.24875   0.42527   0.58322

 Mulliken charges:
               1
     1  H   -0.108774
     2  H    0.032302
     3  H    0.099926
     4  H   -0.108774
     5  H    0.085320
     6  H    0.085320
     7  H    0.099926
     8  H   -0.108774
     9  H   -0.108774
    10  H    0.032302
 Sum of Mulliken charges =  -0.00000

 Dipole moment (field-independent basis, Debye):
    X=              0.0000    Y=             -0.0000    Z=              0.0000  Tot=              0.0000
 Quadrupole moment (field-independent basis, Debye-Ang):
   XX=            -12.8661   YY=            -15.8651   ZZ=            -18.0517
   XY=             -0.0000   XZ=              0.0000   YZ=              0.0000

 Normal termination of Gaussian 09 at Thu Feb  9 16:15:57 2017.
