 Gaussian 09, Revision E.01,
 Gaussian 09:  ES64L-G09RevE.01 30-Nov-2015

 ----------------------------------------------------------------------
 #rhf/gen scf(symm,tight,novaracc,noincfock,fulldiag) stable(crhf) geom
 =nocrowd test
 ----------------------------------------------------------------------

 ----------------------------------------------------------------------
 hf stability analysis of h10 triangular lattice, y= 1.8378354072926408
 ----------------------------------------------------------------------
 Symbolic Z-matrix:
 Charge =  0 Multiplicity = 1

                         Standard orientation:
 ---------------------------------------------------------------------
 Center     Atomic      Atomic             Coordinates (Angstroms)
 Number     Number       Type             X           Y           Z
 ---------------------------------------------------------------------
      1          1           0        0.000000    1.837835    0.628294
      2          1           0        0.000000    0.000000    0.942441
      3          1           0        0.000000    0.000000    0.314147
      4          1           0       -0.000000   -1.837835    0.628294
      5          1           0       -0.000000    1.837835   -0.000000
      6          1           0       -0.000000   -1.837835    0.000000
      7          1           0        0.000000   -0.000000   -0.314147
      8          1           0        0.000000    1.837835   -0.628294
      9          1           0       -0.000000   -1.837835   -0.628294
     10          1           0        0.000000   -0.000000   -0.942441
 ---------------------------------------------------------------------

 SCF Done:  E(RHF) =  -4.43671135599     A.U. after    7 cycles
 E2 =    -0.1334161394D+00 EUMP2 =    -0.45701274953392D+01

 The electronic state is 1-AG.
 Alpha  occ. eigenvalues --   -0.98694  -0.82504  -0.79027  -0.56921  -0.20451
 Alpha virt. eigenvalues --   -0.01296   0.33233   1.05803   1.10698   1.54902

 Mulliken charges:
               1
     1  H    0.115850
     2  H    0.215832
     3  H   -0.145479
     4  H    0.115850
     5  H   -0.302053
     6  H   -0.302053
     7  H   -0.145479
     8  H    0.115850
     9  H    0.115850
    10  H    0.215832
 Sum of Mulliken charges =  -0.00000

 Dipole moment (field-independent basis, Debye):
    X=              0.0000    Y=              0.0000    Z=              0.0000  Tot=              0.0000
 Quadrupole moment (field-independent basis, Debye-Ang):
   XX=            -12.4581   YY=            -16.8366   ZZ=            -13.9203
   XY=             -0.0000   XZ=              0.0000   YZ=              0.0000

 Normal termination of Gaussian 09 at Thu Feb  9 16:31:22 2017.
