 Gaussian 09, Revision E.01,
 Gaussian 09:  ES64L-G09RevE.01 30-Nov-2015

 ----------------------------------------------------------------------
 #rhf/gen scf(symm,tight,novaracc,noincfock,fulldiag) stable(crhf) geom
 =nocrowd test
 ----------------------------------------------------------------------

 hf stability analysis of h10 triangular lattice, y= 0.9792730262386045
 7
 ----------------------------------------------------------------------
 Symbolic Z-matrix:
 Charge =  0 Multiplicity = 1

                         Standard orientation:
 ---------------------------------------------------------------------
 Center     Atomic      Atomic             Coordinates (Angstroms)
 Number     Number       Type             X           Y           Z
 ---------------------------------------------------------------------
      1          1           0        0.000000    0.979273    1.179141
      2          1           0        0.000000    0.000000    1.768711
      3          1           0        0.000000    0.000000    0.589570
      4          1           0       -0.000000   -0.979273    1.179141
      5          1           0       -0.000000    0.979273    0.000000
      6          1           0       -0.000000   -0.979273    0.000000
      7          1           0        0.000000   -0.000000   -0.589570
      8          1           0        0.000000    0.979273   -1.179141
      9          1           0       -0.000000   -0.979273   -1.179141
     10          1           0        0.000000   -0.000000   -1.768711
 ---------------------------------------------------------------------

 SCF Done:  E(RHF) =  -4.95483321581     A.U. after    8 cycles
 E2 =    -0.1004537993D+00 EUMP2 =    -0.50552870150674D+01

 The electronic state is 1-AG.
 Alpha  occ. eigenvalues --   -0.96501  -0.73112  -0.60121  -0.41109  -0.33754
 Alpha virt. eigenvalues --    0.13511   0.19679   0.25669   0.41597   0.59250

 Mulliken charges:
               1
     1  H   -0.103563
     2  H    0.021076
     3  H    0.101007
     4  H   -0.103563
     5  H    0.085043
     6  H    0.085043
     7  H    0.101007
     8  H   -0.103563
     9  H   -0.103563
    10  H    0.021076
 Sum of Mulliken charges =  -0.00000

 Dipole moment (field-independent basis, Debye):
    X=              0.0000    Y=              0.0000    Z=              0.0000  Tot=              0.0000
 Quadrupole moment (field-independent basis, Debye-Ang):
   XX=            -12.8574   YY=            -15.6925   ZZ=            -18.3292
   XY=             -0.0000   XZ=              0.0000   YZ=             -0.0000

 Normal termination of Gaussian 09 at Thu Feb  9 16:16:25 2017.
