 Gaussian 09, Revision E.01,
 Gaussian 09:  ES64L-G09RevE.01 30-Nov-2015

 ----------------------------------------------------------------------
 #rhf/gen scf(symm,tight,novaracc,noincfock,fulldiag) stable(crhf) geom
 =nocrowd test
 ----------------------------------------------------------------------

 hf stability analysis of h10 triangular lattice, y= 0.8784987622381249
 5
 ----------------------------------------------------------------------
 Symbolic Z-matrix:
 Charge =  0 Multiplicity = 1

                         Standard orientation:
 ---------------------------------------------------------------------
 Center     Atomic      Atomic             Coordinates (Angstroms)
 Number     Number       Type             X           Y           Z
 ---------------------------------------------------------------------
      1          1           0       -0.000000    0.878499    1.314402
      2          1           0       -0.000000    0.000000    1.971603
      3          1           0       -0.000000    0.000000    0.657201
      4          1           0       -0.000000   -0.878499    1.314402
      5          1           0       -0.000000    0.878499    0.000000
      6          1           0       -0.000000   -0.878499    0.000000
      7          1           0        0.000000   -0.000000   -0.657201
      8          1           0        0.000000    0.878499   -1.314402
      9          1           0       -0.000000   -0.878499   -1.314402
     10          1           0        0.000000   -0.000000   -1.971603
 ---------------------------------------------------------------------

 SCF Done:  E(RHF) =  -4.96221820084     A.U. after    8 cycles
 E2 =    -0.9662128119D-01 EUMP2 =    -0.50588394820262D+01

 The electronic state is 1-AG.
 Alpha  occ. eigenvalues --   -0.94748  -0.74600  -0.54627  -0.46485  -0.31940
 Alpha virt. eigenvalues --    0.09038   0.19816   0.29541   0.49721   0.50166

 Mulliken charges:
               1
     1  H   -0.146852
     2  H    0.113046
     3  H    0.102131
     4  H   -0.146852
     5  H    0.078528
     6  H    0.078528
     7  H    0.102131
     8  H   -0.146852
     9  H   -0.146852
    10  H    0.113046
 Sum of Mulliken charges =  -0.00000

 Dipole moment (field-independent basis, Debye):
    X=              0.0000    Y=              0.0000    Z=              0.0000  Tot=              0.0000
 Quadrupole moment (field-independent basis, Debye-Ang):
   XX=            -12.9259   YY=            -17.0592   ZZ=            -15.6899
   XY=             -0.0000   XZ=             -0.0000   YZ=              0.0000

 Normal termination of Gaussian 09 at Thu Feb  9 16:12:26 2017.
