 Gaussian 09, Revision E.01,
 Gaussian 09:  ES64L-G09RevE.01 30-Nov-2015

 ----------------------------------------------------------------------
 #rhf/gen scf(symm,tight,novaracc,noincfock,fulldiag) stable(crhf) geom
 =nocrowd test
 ----------------------------------------------------------------------

 ----------------------------------------------------------------------
 hf stability analysis of h10 triangular lattice, y= 1.2680906370950717
 ----------------------------------------------------------------------
 Symbolic Z-matrix:
 Charge =  0 Multiplicity = 1

                         Standard orientation:
 ---------------------------------------------------------------------
 Center     Atomic      Atomic             Coordinates (Angstroms)
 Number     Number       Type             X           Y           Z
 ---------------------------------------------------------------------
      1          1           0        0.000000    1.268091    0.910582
      2          1           0       -0.000000    0.000000    1.365873
      3          1           0       -0.000000    0.000000    0.455291
      4          1           0       -0.000000   -1.268091    0.910582
      5          1           0       -0.000000    1.268091   -0.000000
      6          1           0       -0.000000   -1.268091    0.000000
      7          1           0        0.000000   -0.000000   -0.455291
      8          1           0        0.000000    1.268091   -0.910582
      9          1           0       -0.000000   -1.268091   -0.910582
     10          1           0        0.000000   -0.000000   -1.365873
 ---------------------------------------------------------------------

 SCF Done:  E(RHF) =  -4.93253083179     A.U. after    8 cycles
 E2 =    -0.9048682143D-01 EUMP2 =    -0.50230176532229D+01

 The electronic state is 1-AG.
 Alpha  occ. eigenvalues --   -0.94530  -0.68953  -0.65780  -0.45627  -0.30153
 Alpha virt. eigenvalues --    0.01912   0.12924   0.57188   0.66221   0.77625

 Mulliken charges:
               1
     1  H   -0.083300
     2  H    0.291699
     3  H   -0.047474
     4  H   -0.083300
     5  H   -0.077625
     6  H   -0.077625
     7  H   -0.047474
     8  H   -0.083300
     9  H   -0.083300
    10  H    0.291699
 Sum of Mulliken charges =   0.00000

 Dipole moment (field-independent basis, Debye):
    X=              0.0000    Y=             -0.0000    Z=             -0.0000  Tot=              0.0000
 Quadrupole moment (field-independent basis, Debye-Ang):
   XX=            -12.6095   YY=            -21.2561   ZZ=            -10.0221
   XY=             -0.0000   XZ=             -0.0000   YZ=              0.0000

 Normal termination of Gaussian 09 at Thu Feb  9 16:24:22 2017.
