 Gaussian 09, Revision E.01,
 Gaussian 09:  ES64L-G09RevE.01 30-Nov-2015

 ----------------------------------------------------------------------
 #rhf/gen scf(symm,tight,novaracc,noincfock,fulldiag) stable(crhf) geom
 =nocrowd test
 ----------------------------------------------------------------------

 ----------------------------------------------------------------------
 hf stability analysis of h10 triangular lattice, y= 1.5331502266984804
 ----------------------------------------------------------------------
 Symbolic Z-matrix:
 Charge =  0 Multiplicity = 1

                         Standard orientation:
 ---------------------------------------------------------------------
 Center     Atomic      Atomic             Coordinates (Angstroms)
 Number     Number       Type             X           Y           Z
 ---------------------------------------------------------------------
      1          1           0        0.000000    1.533150    0.753156
      2          1           0        0.000000    0.000000    1.129733
      3          1           0        0.000000    0.000000    0.376578
      4          1           0       -0.000000   -1.533150    0.753156
      5          1           0       -0.000000    1.533150   -0.000000
      6          1           0       -0.000000   -1.533150    0.000000
      7          1           0        0.000000   -0.000000   -0.376578
      8          1           0        0.000000    1.533150   -0.753156
      9          1           0       -0.000000   -1.533150   -0.753156
     10          1           0        0.000000   -0.000000   -1.129733
 ---------------------------------------------------------------------

 SCF Done:  E(RHF) =  -4.86600149672     A.U. after    8 cycles
 E2 =    -0.9403118324D-01 EUMP2 =    -0.49600326799601D+01

 The electronic state is 1-AG.
 Alpha  occ. eigenvalues --   -0.96417  -0.75934  -0.64777  -0.60985  -0.25833
 Alpha virt. eigenvalues --    0.03351   0.16724   0.80111   0.91147   1.05552

 Mulliken charges:
               1
     1  H   -0.000574
     2  H    0.245981
     3  H   -0.086910
     4  H   -0.000574
     5  H   -0.157923
     6  H   -0.157923
     7  H   -0.086910
     8  H   -0.000574
     9  H   -0.000574
    10  H    0.245981
 Sum of Mulliken charges =  -0.00000

 Dipole moment (field-independent basis, Debye):
    X=              0.0000    Y=             -0.0000    Z=              0.0000  Tot=              0.0000
 Quadrupole moment (field-independent basis, Debye-Ang):
   XX=            -12.5902   YY=            -19.5006   ZZ=            -12.4497
   XY=             -0.0000   XZ=             -0.0000   YZ=             -0.0000

 Normal termination of Gaussian 09 at Thu Feb  9 16:28:30 2017.
