 Gaussian 09, Revision E.01,
 Gaussian 09:  ES64L-G09RevE.01 30-Nov-2015

 ----------------------------------------------------------------------
 #rhf/gen scf(symm,tight,novaracc,noincfock,fulldiag) stable(crhf) geom
 =nocrowd test
 ----------------------------------------------------------------------

 hf stability analysis of h10 triangular lattice, y= 0.7923785269328730
 3
 ----------------------------------------------------------------------
 Symbolic Z-matrix:
 Charge =  0 Multiplicity = 1

                         Standard orientation:
 ---------------------------------------------------------------------
 Center     Atomic      Atomic             Coordinates (Angstroms)
 Number     Number       Type             X           Y           Z
 ---------------------------------------------------------------------
      1          1           0        0.000000    0.792379    1.457259
      2          1           0        0.000000    0.000000    2.185888
      3          1           0        0.000000    0.000000    0.728629
      4          1           0       -0.000000   -0.792379    1.457259
      5          1           0       -0.000000    0.792379    0.000000
      6          1           0       -0.000000   -0.792379    0.000000
      7          1           0        0.000000    0.000000   -0.728629
      8          1           0        0.000000    0.792379   -1.457259
      9          1           0       -0.000000   -0.792379   -1.457259
     10          1           0        0.000000    0.000000   -2.185888
 ---------------------------------------------------------------------

 SCF Done:  E(RHF) =  -4.89846549648     A.U. after    8 cycles
 E2 =    -0.9663284540D-01 EUMP2 =    -0.49950983418790D+01

 The electronic state is 1-AG.
 Alpha  occ. eigenvalues --   -0.92272  -0.74892  -0.50534  -0.48854  -0.29102
 Alpha virt. eigenvalues --    0.00783   0.16141   0.38987   0.45975   0.54698

 Mulliken charges:
               1
     1  H   -0.190120
     2  H    0.195571
     3  H    0.130647
     4  H   -0.190120
     5  H    0.054022
     6  H    0.054022
     7  H    0.130647
     8  H   -0.190120
     9  H   -0.190120
    10  H    0.195571
 Sum of Mulliken charges =  -0.00000

 Dipole moment (field-independent basis, Debye):
    X=              0.0000    Y=              0.0000    Z=              0.0000  Tot=              0.0000
 Quadrupole moment (field-independent basis, Debye-Ang):
   XX=            -12.9822   YY=            -18.1679   ZZ=            -12.5478
   XY=             -0.0000   XZ=             -0.0000   YZ=              0.0000

 Normal termination of Gaussian 09 at Thu Feb  9 16:08:22 2017.
