 Gaussian 09, Revision E.01,
 Gaussian 09:  ES64L-G09RevE.01 30-Nov-2015

 ----------------------------------------------------------------------
 #rhf/gen scf(symm,tight,novaracc,noincfock,fulldiag) stable(crhf) geom
 =nocrowd test
 ----------------------------------------------------------------------

 hf stability analysis of h10 triangular lattice, y= 0.7909921130102771
 6
 ----------------------------------------------------------------------
 Symbolic Z-matrix:
 Charge =  0 Multiplicity = 1

                         Standard orientation:
 ---------------------------------------------------------------------
 Center     Atomic      Atomic             Coordinates (Angstroms)
 Number     Number       Type             X           Y           Z
 ---------------------------------------------------------------------
      1          1           0       -0.000000    0.790992    1.459813
      2          1           0       -0.000000   -0.000000    2.189719
      3          1           0       -0.000000   -0.000000    0.729906
      4          1           0       -0.000000   -0.790992    1.459813
      5          1           0       -0.000000    0.790992    0.000000
      6          1           0       -0.000000   -0.790992   -0.000000
      7          1           0        0.000000    0.000000   -0.729906
      8          1           0        0.000000    0.790992   -1.459813
      9          1           0       -0.000000   -0.790992   -1.459813
     10          1           0        0.000000    0.000000   -2.189719
 ---------------------------------------------------------------------

 SCF Done:  E(RHF) =  -4.89690140797     A.U. after    8 cycles
 E2 =    -0.9665870979D-01 EUMP2 =    -0.49935601177649D+01

 The electronic state is 1-AG.
 Alpha  occ. eigenvalues --   -0.92223  -0.74887  -0.50594  -0.48751  -0.29044
 Alpha virt. eigenvalues --    0.00662   0.16094   0.38821   0.46216   0.54738

 Mulliken charges:
               1
     1  H   -0.190893
     2  H    0.196938
     3  H    0.131415
     4  H   -0.190893
     5  H    0.053434
     6  H    0.053434
     7  H    0.131415
     8  H   -0.190893
     9  H   -0.190893
    10  H    0.196938
 Sum of Mulliken charges =  -0.00000

 Dipole moment (field-independent basis, Debye):
    X=              0.0000    Y=             -0.0000    Z=              0.0000  Tot=              0.0000
 Quadrupole moment (field-independent basis, Debye-Ang):
   XX=            -12.9831   YY=            -18.1852   ZZ=            -12.4887
   XY=             -0.0000   XZ=             -0.0000   YZ=             -0.0000

 Normal termination of Gaussian 09 at Thu Feb  9 16:08:18 2017.
