 Gaussian 09, Revision E.01,
 Gaussian 09:  ES64L-G09RevE.01 30-Nov-2015

 ----------------------------------------------------------------------
 #rhf/gen scf(symm,tight,novaracc,noincfock,fulldiag) stable(crhf) geom
 =nocrowd test
 ----------------------------------------------------------------------

 ----------------------------------------------------------------------
 hf stability analysis of h10 triangular lattice, y= 1.0508897605200611
 ----------------------------------------------------------------------
 Symbolic Z-matrix:
 Charge =  0 Multiplicity = 1

                         Standard orientation:
 ---------------------------------------------------------------------
 Center     Atomic      Atomic             Coordinates (Angstroms)
 Number     Number       Type             X           Y           Z
 ---------------------------------------------------------------------
      1          1           0       -0.000000    1.050890    1.098784
      2          1           0       -0.000000    0.000000    1.648176
      3          1           0       -0.000000    0.000000    0.549392
      4          1           0       -0.000000   -1.050890    1.098784
      5          1           0       -0.000000    1.050890    0.000000
      6          1           0       -0.000000   -1.050890    0.000000
      7          1           0        0.000000   -0.000000   -0.549392
      8          1           0        0.000000    1.050890   -1.098784
      9          1           0       -0.000000   -1.050890   -1.098784
     10          1           0        0.000000   -0.000000   -1.648176
 ---------------------------------------------------------------------

 SCF Done:  E(RHF) =  -4.89865228120     A.U. after    9 cycles
 E2 =    -0.1057816661D+00 EUMP2 =    -0.50044339472587D+01

 The electronic state is 1-AG.
 Alpha  occ. eigenvalues --   -0.97202  -0.71592  -0.63399  -0.36990  -0.34282
 Alpha virt. eigenvalues --    0.03783   0.25164   0.30585   0.38623   0.63720

 Mulliken charges:
               1
     1  H   -0.070422
     2  H   -0.046074
     3  H    0.112739
     4  H   -0.070422
     5  H    0.074180
     6  H    0.074180
     7  H    0.112739
     8  H   -0.070422
     9  H   -0.070422
    10  H   -0.046074
 Sum of Mulliken charges =  -0.00000

 Dipole moment (field-independent basis, Debye):
    X=             -0.0000    Y=              0.0000    Z=              0.0000  Tot=              0.0000
 Quadrupole moment (field-independent basis, Debye-Ang):
   XX=            -12.8043   YY=            -14.6691   ZZ=            -19.7123
   XY=             -0.0000   XZ=              0.0000   YZ=             -0.0000

 Normal termination of Gaussian 09 at Thu Feb  9 16:18:50 2017.
