 Gaussian 09, Revision E.01,
 Gaussian 09:  ES64L-G09RevE.01 30-Nov-2015

 ----------------------------------------------------------------------
 #rhf/gen scf(symm,tight,novaracc,noincfock,fulldiag) stable(crhf) geom
 =nocrowd test
 ----------------------------------------------------------------------

 ----------------------------------------------------------------------
 hf stability analysis of h10 triangular lattice, y= 1.1762612865891637
 ----------------------------------------------------------------------
 Symbolic Z-matrix:
 Charge =  0 Multiplicity = 1

                         Standard orientation:
 ---------------------------------------------------------------------
 Center     Atomic      Atomic             Coordinates (Angstroms)
 Number     Number       Type             X           Y           Z
 ---------------------------------------------------------------------
      1          1           0       -0.000000    1.176261    0.981670
      2          1           0       -0.000000    0.000000    1.472505
      3          1           0       -0.000000    0.000000    0.490835
      4          1           0       -0.000000   -1.176261    0.981670
      5          1           0       -0.000000    1.176261    0.000000
      6          1           0       -0.000000   -1.176261    0.000000
      7          1           0        0.000000    0.000000   -0.490835
      8          1           0        0.000000    1.176261   -0.981670
      9          1           0       -0.000000   -1.176261   -0.981670
     10          1           0        0.000000    0.000000   -1.472505
 ---------------------------------------------------------------------

 SCF Done:  E(RHF) =  -4.85674932978     A.U. after    9 cycles
 E2 =    -0.1001273388D+00 EUMP2 =    -0.49568766685515D+01

 The electronic state is 1-AG.
 Alpha  occ. eigenvalues --   -0.94152  -0.67826  -0.66270  -0.37349  -0.31133
 Alpha virt. eigenvalues --   -0.02507   0.17466   0.48778   0.53304   0.73092

 Mulliken charges:
               1
     1  H   -0.063445
     2  H    0.239150
     3  H   -0.004682
     4  H   -0.063445
     5  H   -0.107578
     6  H   -0.107578
     7  H   -0.004682
     8  H   -0.063445
     9  H   -0.063445
    10  H    0.239150
 Sum of Mulliken charges =   0.00000

 Dipole moment (field-independent basis, Debye):
    X=              0.0000    Y=              0.0000    Z=             -0.0000  Tot=              0.0000
 Quadrupole moment (field-independent basis, Debye-Ang):
   XX=            -12.5875   YY=            -20.9145   ZZ=             -9.7997
   XY=             -0.0000   XZ=             -0.0000   YZ=             -0.0000

 Normal termination of Gaussian 09 at Thu Feb  9 16:22:20 2017.
