 Gaussian 09, Revision E.01,
 Gaussian 09:  ES64L-G09RevE.01 30-Nov-2015

 ----------------------------------------------------------------------
 #rhf/gen scf(symm,tight,novaracc,noincfock,fulldiag) stable(crhf) geom
 =nocrowd test
 ----------------------------------------------------------------------

 ----------------------------------------------------------------------
 hf stability analysis of h10 triangular lattice, y= 1.0453371861672238
 ----------------------------------------------------------------------
 Symbolic Z-matrix:
 Charge =  0 Multiplicity = 1

                         Standard orientation:
 ---------------------------------------------------------------------
 Center     Atomic      Atomic             Coordinates (Angstroms)
 Number     Number       Type             X           Y           Z
 ---------------------------------------------------------------------
      1          1           0        0.000000    1.045337    1.104620
      2          1           0        0.000000   -0.000000    1.656930
      3          1           0        0.000000   -0.000000    0.552310
      4          1           0       -0.000000   -1.045337    1.104620
      5          1           0       -0.000000    1.045337    0.000000
      6          1           0       -0.000000   -1.045337   -0.000000
      7          1           0        0.000000    0.000000   -0.552310
      8          1           0        0.000000    1.045337   -1.104620
      9          1           0       -0.000000   -1.045337   -1.104620
     10          1           0        0.000000    0.000000   -1.656930
 ---------------------------------------------------------------------

 SCF Done:  E(RHF) =  -4.90441506776     A.U. after    9 cycles
 E2 =    -0.1052834566D+00 EUMP2 =    -0.50096985243963D+01

 The electronic state is 1-AG.
 Alpha  occ. eigenvalues --   -0.97160  -0.71717  -0.63160  -0.37318  -0.34262
 Alpha virt. eigenvalues --    0.04493   0.24957   0.30184   0.38606   0.63419

 Mulliken charges:
               1
     1  H   -0.073447
     2  H   -0.040502
     3  H    0.111446
     4  H   -0.073447
     5  H    0.075949
     6  H    0.075949
     7  H    0.111446
     8  H   -0.073447
     9  H   -0.073447
    10  H   -0.040502
 Sum of Mulliken charges =  -0.00000

 Dipole moment (field-independent basis, Debye):
    X=             -0.0000    Y=              0.0000    Z=              0.0000  Tot=              0.0000
 Quadrupole moment (field-independent basis, Debye-Ang):
   XX=            -12.8087   YY=            -14.7504   ZZ=            -19.6182
   XY=             -0.0000   XZ=              0.0000   YZ=             -0.0000

 Normal termination of Gaussian 09 at Thu Feb  9 16:18:39 2017.
