 Gaussian 09, Revision E.01,
 Gaussian 09:  ES64L-G09RevE.01 30-Nov-2015

 ----------------------------------------------------------------------
 #rhf/gen scf(symm,tight,novaracc,noincfock,fulldiag) stable(crhf) geom
 =nocrowd test
 ----------------------------------------------------------------------

 ----------------------------------------------------------------------
 hf stability analysis of h10 triangular lattice, y= 2.1529622373511956
 ----------------------------------------------------------------------
 Symbolic Z-matrix:
 Charge =  0 Multiplicity = 1

                         Standard orientation:
 ---------------------------------------------------------------------
 Center     Atomic      Atomic             Coordinates (Angstroms)
 Number     Number       Type             X           Y           Z
 ---------------------------------------------------------------------
      1          1           0        0.000000    2.152962    0.536331
      2          1           0        0.000000   -0.000000    0.804497
      3          1           0        0.000000   -0.000000    0.268166
      4          1           0       -0.000000   -2.152962    0.536331
      5          1           0       -0.000000    2.152962    0.000000
      6          1           0       -0.000000   -2.152962   -0.000000
      7          1           0        0.000000    0.000000   -0.268166
      8          1           0        0.000000    2.152962   -0.536331
      9          1           0       -0.000000   -2.152962   -0.536331
     10          1           0        0.000000    0.000000   -0.804497
 ---------------------------------------------------------------------

 SCF Done:  E(RHF) =  -3.77200487261     A.U. after    7 cycles
 E2 =    -0.1988670842D+00 EUMP2 =    -0.39708719567923D+01

 The electronic state is 1-AG.
 Alpha  occ. eigenvalues --   -1.02992  -0.88472  -0.87975  -0.54544  -0.15565
 Alpha virt. eigenvalues --   -0.01743   0.48439   1.31913   1.34086   2.09037

 Mulliken charges:
               1
     1  H    0.230816
     2  H    0.249554
     3  H   -0.227304
     4  H    0.230816
     5  H   -0.483880
     6  H   -0.483880
     7  H   -0.227304
     8  H    0.230816
     9  H    0.230816
    10  H    0.249554
 Sum of Mulliken charges =   0.00000

 Dipole moment (field-independent basis, Debye):
    X=              0.0000    Y=             -0.0000    Z=              0.0000  Tot=              0.0000
 Quadrupole moment (field-independent basis, Debye-Ang):
   XX=            -12.2755   YY=            -14.5604   ZZ=            -14.5890
   XY=              0.0000   XZ=              0.0000   YZ=              0.0000

 Normal termination of Gaussian 09 at Thu Feb  9 16:33:11 2017.
