 Gaussian 09, Revision E.01,
 Gaussian 09:  ES64L-G09RevE.01 30-Nov-2015

 ----------------------------------------------------------------------
 #rhf/gen scf(symm,tight,novaracc,noincfock,fulldiag) stable(crhf) geom
 =nocrowd test
 ----------------------------------------------------------------------

 hf stability analysis of h10 triangular lattice, y= 0.8635150515934925
 1
 ----------------------------------------------------------------------
 Symbolic Z-matrix:
 Charge =  0 Multiplicity = 1

                         Standard orientation:
 ---------------------------------------------------------------------
 Center     Atomic      Atomic             Coordinates (Angstroms)
 Number     Number       Type             X           Y           Z
 ---------------------------------------------------------------------
      1          1           0        0.000000    0.863515    1.337210
      2          1           0        0.000000    0.000000    2.005814
      3          1           0        0.000000    0.000000    0.668605
      4          1           0       -0.000000   -0.863515    1.337210
      5          1           0       -0.000000    0.863515   -0.000000
      6          1           0       -0.000000   -0.863515    0.000000
      7          1           0        0.000000   -0.000000   -0.668605
      8          1           0        0.000000    0.863515   -1.337210
      9          1           0       -0.000000   -0.863515   -1.337210
     10          1           0        0.000000   -0.000000   -2.005814
 ---------------------------------------------------------------------

 SCF Done:  E(RHF) =  -4.95582191804     A.U. after    8 cycles
 E2 =    -0.9640328161D-01 EUMP2 =    -0.50522251996530D+01

 The electronic state is 1-AG.
 Alpha  occ. eigenvalues --   -0.94390  -0.74727  -0.53704  -0.47233  -0.31542
 Alpha virt. eigenvalues --    0.07510   0.19077   0.32162   0.48517   0.50849

 Mulliken charges:
               1
     1  H   -0.153794
     2  H    0.127078
     3  H    0.104760
     4  H   -0.153794
     5  H    0.075751
     6  H    0.075751
     7  H    0.104760
     8  H   -0.153794
     9  H   -0.153794
    10  H    0.127078
 Sum of Mulliken charges =  -0.00000

 Dipole moment (field-independent basis, Debye):
    X=              0.0000    Y=             -0.0000    Z=             -0.0000  Tot=              0.0000
 Quadrupole moment (field-independent basis, Debye-Ang):
   XX=            -12.9358   YY=            -17.2563   ZZ=            -15.2113
   XY=             -0.0000   XZ=             -0.0000   YZ=             -0.0000

 Normal termination of Gaussian 09 at Thu Feb  9 16:11:46 2017.
