 Gaussian 09, Revision E.01,
 Gaussian 09:  ES64L-G09RevE.01 30-Nov-2015

 ----------------------------------------------------------------------
 #rhf/gen scf(symm,tight,novaracc,noincfock,fulldiag) stable(crhf) geom
 =nocrowd test
 ----------------------------------------------------------------------

 hf stability analysis of h10 triangular lattice, y= 0.9446944967191449
 6
 ----------------------------------------------------------------------
 Symbolic Z-matrix:
 Charge =  0 Multiplicity = 1

                         Standard orientation:
 ---------------------------------------------------------------------
 Center     Atomic      Atomic             Coordinates (Angstroms)
 Number     Number       Type             X           Y           Z
 ---------------------------------------------------------------------
      1          1           0        0.000000    0.944694    1.222301
      2          1           0        0.000000    0.000000    1.833451
      3          1           0        0.000000    0.000000    0.611150
      4          1           0       -0.000000   -0.944694    1.222301
      5          1           0       -0.000000    0.944694   -0.000000
      6          1           0       -0.000000   -0.944694    0.000000
      7          1           0        0.000000   -0.000000   -0.611150
      8          1           0        0.000000    0.944694   -1.222301
      9          1           0       -0.000000   -0.944694   -1.222301
     10          1           0        0.000000   -0.000000   -1.833451
 ---------------------------------------------------------------------

 SCF Done:  E(RHF) =  -4.96712422866     A.U. after    8 cycles
 E2 =    -0.9867207179D-01 EUMP2 =    -0.50657963004508D+01

 The electronic state is 1-AG.
 Alpha  occ. eigenvalues --   -0.96016  -0.73731  -0.58366  -0.43015  -0.33286
 Alpha virt. eigenvalues --    0.16049   0.18684   0.23504   0.44297   0.56538

 Mulliken charges:
               1
     1  H   -0.118056
     2  H    0.052339
     3  H    0.098729
     4  H   -0.118056
     5  H    0.085044
     6  H    0.085044
     7  H    0.098729
     8  H   -0.118056
     9  H   -0.118056
    10  H    0.052339
 Sum of Mulliken charges =  -0.00000

 Dipole moment (field-independent basis, Debye):
    X=              0.0000    Y=              0.0000    Z=             -0.0000  Tot=              0.0000
 Quadrupole moment (field-independent basis, Debye-Ang):
   XX=            -12.8814   YY=            -16.1699   ZZ=            -17.5258
   XY=             -0.0000   XZ=              0.0000   YZ=              0.0000

 Normal termination of Gaussian 09 at Thu Feb  9 16:15:11 2017.
