 Gaussian 09, Revision E.01,
 Gaussian 09:  ES64L-G09RevE.01 30-Nov-2015

 ----------------------------------------------------------------------
 #rhf/gen scf(symm,tight,novaracc,noincfock,fulldiag) stable(crhf) geom
 =nocrowd test
 ----------------------------------------------------------------------

 ----------------------------------------------------------------------
 hf stability analysis of h10 triangular lattice, y= 1.4995436567448153
 ----------------------------------------------------------------------
 Symbolic Z-matrix:
 Charge =  0 Multiplicity = 1

                         Standard orientation:
 ---------------------------------------------------------------------
 Center     Atomic      Atomic             Coordinates (Angstroms)
 Number     Number       Type             X           Y           Z
 ---------------------------------------------------------------------
      1          1           0        0.000000    1.499544    0.770035
      2          1           0       -0.000000    0.000000    1.155052
      3          1           0       -0.000000    0.000000    0.385017
      4          1           0       -0.000000   -1.499544    0.770035
      5          1           0       -0.000000    1.499544   -0.000000
      6          1           0       -0.000000   -1.499544   -0.000000
      7          1           0        0.000000    0.000000   -0.385017
      8          1           0        0.000000    1.499544   -0.770035
      9          1           0       -0.000000   -1.499544   -0.770035
     10          1           0        0.000000    0.000000   -1.155052
 ---------------------------------------------------------------------

 SCF Done:  E(RHF) =  -4.89414585739     A.U. after    8 cycles
 E2 =    -0.9185808706D-01 EUMP2 =    -0.49860039444531D+01

 The electronic state is 1-AG.
 Alpha  occ. eigenvalues --   -0.96201  -0.75136  -0.62746  -0.61537  -0.26438
 Alpha virt. eigenvalues --    0.04241   0.14840   0.77227   0.89252   1.00355

 Mulliken charges:
               1
     1  H   -0.013075
     2  H    0.252358
     3  H   -0.081839
     4  H   -0.013075
     5  H   -0.144370
     6  H   -0.144370
     7  H   -0.081839
     8  H   -0.013075
     9  H   -0.013075
    10  H    0.252358
 Sum of Mulliken charges =  -0.00000

 Dipole moment (field-independent basis, Debye):
    X=              0.0000    Y=             -0.0000    Z=              0.0000  Tot=              0.0000
 Quadrupole moment (field-independent basis, Debye-Ang):
   XX=            -12.5988   YY=            -19.7738   ZZ=            -12.2054
   XY=             -0.0000   XZ=             -0.0000   YZ=              0.0000

 Normal termination of Gaussian 09 at Thu Feb  9 16:28:06 2017.
