 Gaussian 09, Revision E.01,
 Gaussian 09:  ES64L-G09RevE.01 30-Nov-2015

 ----------------------------------------------------------------------
 #rhf/gen scf(symm,tight,novaracc,noincfock,fulldiag) stable(crhf) geom
 =nocrowd test
 ----------------------------------------------------------------------

 ----------------------------------------------------------------------
 hf stability analysis of h10 triangular lattice, y= 1.2263967642726714
 ----------------------------------------------------------------------
 Symbolic Z-matrix:
 Charge =  0 Multiplicity = 1

                         Standard orientation:
 ---------------------------------------------------------------------
 Center     Atomic      Atomic             Coordinates (Angstroms)
 Number     Number       Type             X           Y           Z
 ---------------------------------------------------------------------
      1          1           0       -0.000000    1.226397    0.941539
      2          1           0        0.000000    0.000000    1.412309
      3          1           0        0.000000    0.000000    0.470770
      4          1           0       -0.000000   -1.226397    0.941539
      5          1           0       -0.000000    1.226397    0.000000
      6          1           0       -0.000000   -1.226397   -0.000000
      7          1           0        0.000000    0.000000   -0.470770
      8          1           0        0.000000    1.226397   -0.941539
      9          1           0       -0.000000   -1.226397   -0.941539
     10          1           0        0.000000    0.000000   -1.412309
 ---------------------------------------------------------------------

 SCF Done:  E(RHF) =  -4.90444535992     A.U. after    9 cycles
 E2 =    -0.9357194415D-01 EUMP2 =    -0.49980173040712D+01

 The electronic state is 1-AG.
 Alpha  occ. eigenvalues --   -0.94244  -0.67707  -0.66643  -0.41935  -0.30644
 Alpha virt. eigenvalues --   -0.00267   0.14931   0.53520   0.60372   0.75654

 Mulliken charges:
               1
     1  H   -0.085263
     2  H    0.285837
     3  H   -0.035451
     4  H   -0.085263
     5  H   -0.079860
     6  H   -0.079860
     7  H   -0.035451
     8  H   -0.085263
     9  H   -0.085263
    10  H    0.285837
 Sum of Mulliken charges =  -0.00000

 Dipole moment (field-independent basis, Debye):
    X=              0.0000    Y=             -0.0000    Z=              0.0000  Tot=              0.0000
 Quadrupole moment (field-independent basis, Debye-Ang):
   XX=            -12.6009   YY=            -21.3316   ZZ=             -9.6615
   XY=             -0.0000   XZ=             -0.0000   YZ=             -0.0000

 Normal termination of Gaussian 09 at Thu Feb  9 16:23:29 2017.
