 Gaussian 09, Revision E.01,
 Gaussian 09:  ES64L-G09RevE.01 30-Nov-2015

 ----------------------------------------------------------------------
 #rhf/gen scf(symm,tight,novaracc,noincfock,fulldiag) stable(crhf) geom
 =nocrowd test
 ----------------------------------------------------------------------

 ----------------------------------------------------------------------
 hf stability analysis of h10 triangular lattice, y= 1.8776764422526515
 ----------------------------------------------------------------------
 Symbolic Z-matrix:
 Charge =  0 Multiplicity = 1

                         Standard orientation:
 ---------------------------------------------------------------------
 Center     Atomic      Atomic             Coordinates (Angstroms)
 Number     Number       Type             X           Y           Z
 ---------------------------------------------------------------------
      1          1           0        0.000000    1.877676    0.614963
      2          1           0        0.000000    0.000000    0.922444
      3          1           0        0.000000    0.000000    0.307481
      4          1           0       -0.000000   -1.877676    0.614963
      5          1           0       -0.000000    1.877676   -0.000000
      6          1           0       -0.000000   -1.877676    0.000000
      7          1           0        0.000000   -0.000000   -0.307481
      8          1           0        0.000000    1.877676   -0.614963
      9          1           0       -0.000000   -1.877676   -0.614963
     10          1           0        0.000000   -0.000000   -0.922444
 ---------------------------------------------------------------------

 SCF Done:  E(RHF) =  -4.36263554692     A.U. after    7 cycles
 E2 =    -0.1407923287D+00 EUMP2 =    -0.45034278755831D+01

 The electronic state is 1-AG.
 Alpha  occ. eigenvalues --   -0.99102  -0.83300  -0.80427  -0.56525  -0.19792
 Alpha virt. eigenvalues --   -0.01540   0.35277   1.09114   1.13516   1.61597

 Mulliken charges:
               1
     1  H    0.130808
     2  H    0.216449
     3  H   -0.154715
     4  H    0.130808
     5  H   -0.323351
     6  H   -0.323351
     7  H   -0.154715
     8  H    0.130808
     9  H    0.130808
    10  H    0.216449
 Sum of Mulliken charges =  -0.00000

 Dipole moment (field-independent basis, Debye):
    X=              0.0000    Y=              0.0000    Z=              0.0000  Tot=              0.0000
 Quadrupole moment (field-independent basis, Debye-Ang):
   XX=            -12.4361   YY=            -16.5013   ZZ=            -14.0378
   XY=             -0.0000   XZ=              0.0000   YZ=              0.0000

 Normal termination of Gaussian 09 at Thu Feb  9 16:31:39 2017.
