 Gaussian 09, Revision E.01,
 Gaussian 09:  ES64L-G09RevE.01 30-Nov-2015

 ----------------------------------------------------------------------
 #rhf/gen scf(symm,tight,novaracc,noincfock,fulldiag) stable(crhf) geom
 =nocrowd test
 ----------------------------------------------------------------------

 hf stability analysis of h10 triangular lattice, y= 0.7604990737608597
 9
 ----------------------------------------------------------------------
 Symbolic Z-matrix:
 Charge =  0 Multiplicity = 1

                         Standard orientation:
 ---------------------------------------------------------------------
 Center     Atomic      Atomic             Coordinates (Angstroms)
 Number     Number       Type             X           Y           Z
 ---------------------------------------------------------------------
      1          1           0        0.000000    0.760499    1.518346
      2          1           0        0.000000    0.000000    2.277519
      3          1           0        0.000000    0.000000    0.759173
      4          1           0       -0.000000   -0.760499    1.518346
      5          1           0       -0.000000    0.760499    0.000000
      6          1           0       -0.000000   -0.760499   -0.000000
      7          1           0        0.000000    0.000000   -0.759173
      8          1           0        0.000000    0.760499   -1.518346
      9          1           0       -0.000000   -0.760499   -1.518346
     10          1           0        0.000000    0.000000   -2.277519
 ---------------------------------------------------------------------

 SCF Done:  E(RHF) =  -4.85812150629     A.U. after    8 cycles
 E2 =    -0.9744730202D-01 EUMP2 =    -0.49555688083099D+01

 The electronic state is 1-AG.
 Alpha  occ. eigenvalues --   -0.91070  -0.74693  -0.51855  -0.46391  -0.27668
 Alpha virt. eigenvalues --   -0.01879   0.15176   0.34766   0.51737   0.55171

 Mulliken charges:
               1
     1  H   -0.208613
     2  H    0.227276
     3  H    0.151327
     4  H   -0.208613
     5  H    0.038623
     6  H    0.038623
     7  H    0.151327
     8  H   -0.208613
     9  H   -0.208613
    10  H    0.227276
 Sum of Mulliken charges =   0.00000

 Dipole moment (field-independent basis, Debye):
    X=              0.0000    Y=             -0.0000    Z=              0.0000  Tot=              0.0000
 Quadrupole moment (field-independent basis, Debye-Ang):
   XX=            -13.0024   YY=            -18.5591   ZZ=            -11.1067
   XY=             -0.0000   XZ=             -0.0000   YZ=              0.0000

 Normal termination of Gaussian 09 at Thu Feb  9 16:06:42 2017.
