 Gaussian 09, Revision E.01,
 Gaussian 09:  ES64L-G09RevE.01 30-Nov-2015

 ----------------------------------------------------------------------
 #rhf/gen scf(symm,tight,novaracc,noincfock,fulldiag) stable(crhf) geom
 =nocrowd test
 ----------------------------------------------------------------------

 ----------------------------------------------------------------------
 hf stability analysis of h10 triangular lattice, y= 1.0760973851886237
 ----------------------------------------------------------------------
 Symbolic Z-matrix:
 Charge =  0 Multiplicity = 1

                         Standard orientation:
 ---------------------------------------------------------------------
 Center     Atomic      Atomic             Coordinates (Angstroms)
 Number     Number       Type             X           Y           Z
 ---------------------------------------------------------------------
      1          1           0       -0.000000    1.076097    1.073045
      2          1           0       -0.000000    0.000000    1.609567
      3          1           0       -0.000000    0.000000    0.536522
      4          1           0       -0.000000   -1.076097    1.073045
      5          1           0       -0.000000    1.076097    0.000000
      6          1           0       -0.000000   -1.076097    0.000000
      7          1           0        0.000000    0.000000   -0.536522
      8          1           0        0.000000    1.076097   -1.073045
      9          1           0       -0.000000   -1.076097   -1.073045
     10          1           0        0.000000    0.000000   -1.609567
 ---------------------------------------------------------------------

 SCF Done:  E(RHF) =  -4.86977967361     A.U. after   10 cycles
 E2 =    -0.1082492628D+00 EUMP2 =    -0.49780289364183D+01

 The electronic state is 1-AG.
 Alpha  occ. eigenvalues --   -0.97378  -0.71026  -0.64454  -0.35467  -0.34310
 Alpha virt. eigenvalues --    0.00650   0.25413   0.32458   0.39430   0.65017

 Mulliken charges:
               1
     1  H   -0.053709
     2  H   -0.073638
     3  H    0.119942
     4  H   -0.053709
     5  H    0.061114
     6  H    0.061114
     7  H    0.119942
     8  H   -0.053709
     9  H   -0.053709
    10  H   -0.073638
 Sum of Mulliken charges =   0.00000

 Dipole moment (field-independent basis, Debye):
    X=             -0.0000    Y=              0.0000    Z=             -0.0000  Tot=              0.0000
 Quadrupole moment (field-independent basis, Debye-Ang):
   XX=            -12.7826   YY=            -14.2988   ZZ=            -20.0993
   XY=             -0.0000   XZ=              0.0000   YZ=             -0.0000

 Normal termination of Gaussian 09 at Thu Feb  9 16:19:37 2017.
