 Gaussian 09, Revision E.01,
 Gaussian 09:  ES64L-G09RevE.01 30-Nov-2015

 ----------------------------------------------------------------------
 #rhf/gen scf(symm,tight,novaracc,noincfock,fulldiag) stable(crhf) geom
 =nocrowd test
 ----------------------------------------------------------------------

 ----------------------------------------------------------------------
 hf stability analysis of h10 triangular lattice, y= 1.0279786700385047
 ----------------------------------------------------------------------
 Symbolic Z-matrix:
 Charge =  0 Multiplicity = 1

                         Standard orientation:
 ---------------------------------------------------------------------
 Center     Atomic      Atomic             Coordinates (Angstroms)
 Number     Number       Type             X           Y           Z
 ---------------------------------------------------------------------
      1          1           0       -0.000000    1.027979    1.123273
      2          1           0        0.000000    0.000000    1.684909
      3          1           0        0.000000    0.000000    0.561636
      4          1           0       -0.000000   -1.027979    1.123273
      5          1           0       -0.000000    1.027979    0.000000
      6          1           0       -0.000000   -1.027979    0.000000
      7          1           0        0.000000    0.000000   -0.561636
      8          1           0        0.000000    1.027979   -1.123273
      9          1           0       -0.000000   -1.027979   -1.123273
     10          1           0        0.000000    0.000000   -1.684909
 ---------------------------------------------------------------------

 SCF Done:  E(RHF) =  -4.92095606815     A.U. after    9 cycles
 E2 =    -0.1038232887D+00 EUMP2 =    -0.50247793568037D+01

 The electronic state is 1-AG.
 Alpha  occ. eigenvalues --   -0.97016  -0.72103  -0.62398  -0.38334  -0.34177
 Alpha virt. eigenvalues --    0.06760   0.23995   0.28953   0.38897   0.62435

 Mulliken charges:
               1
     1  H   -0.082130
     2  H   -0.023704
     3  H    0.107891
     4  H   -0.082130
     5  H    0.080073
     6  H    0.080073
     7  H    0.107891
     8  H   -0.082130
     9  H   -0.082130
    10  H   -0.023704
 Sum of Mulliken charges =  -0.00000

 Dipole moment (field-independent basis, Debye):
    X=              0.0000    Y=              0.0000    Z=             -0.0000  Tot=              0.0000
 Quadrupole moment (field-independent basis, Debye-Ang):
   XX=            -12.8221   YY=            -15.0022   ZZ=            -19.3092
   XY=             -0.0000   XZ=              0.0000   YZ=              0.0000

 Normal termination of Gaussian 09 at Thu Feb  9 16:18:06 2017.
