 Gaussian 09, Revision E.01,
 Gaussian 09:  ES64L-G09RevE.01 30-Nov-2015

 ----------------------------------------------------------------------
 #rhf/gen scf(symm,tight,novaracc,noincfock,fulldiag) stable(crhf) geom
 =nocrowd test
 ----------------------------------------------------------------------

 ----------------------------------------------------------------------
 hf stability analysis of h10 triangular lattice, y= 1.1307914106018655
 ----------------------------------------------------------------------
 Symbolic Z-matrix:
 Charge =  0 Multiplicity = 1

                         Standard orientation:
 ---------------------------------------------------------------------
 Center     Atomic      Atomic             Coordinates (Angstroms)
 Number     Number       Type             X           Y           Z
 ---------------------------------------------------------------------
      1          1           0       -0.000000    1.130791    1.021144
      2          1           0       -0.000000    0.000000    1.531716
      3          1           0       -0.000000    0.000000    0.510572
      4          1           0       -0.000000   -1.130791    1.021144
      5          1           0       -0.000000    1.130791    0.000000
      6          1           0       -0.000000   -1.130791    0.000000
      7          1           0        0.000000    0.000000   -0.510572
      8          1           0        0.000000    1.130791   -1.021144
      9          1           0       -0.000000   -1.130791   -1.021144
     10          1           0        0.000000    0.000000   -1.531716
 ---------------------------------------------------------------------

 SCF Done:  E(RHF) =  -4.81693230669     A.U. after   12 cycles
 E2 =    -0.1085013632D+00 EUMP2 =    -0.49254336698532D+01

 The electronic state is 1-AG.
 Alpha  occ. eigenvalues --   -0.95375  -0.69384  -0.65485  -0.33374  -0.31967
 Alpha virt. eigenvalues --   -0.03471   0.20587   0.42071   0.46189   0.69731

 Mulliken charges:
               1
     1  H    0.027363
     2  H    0.029717
     3  H    0.074838
     4  H    0.027363
     5  H   -0.159281
     6  H   -0.159281
     7  H    0.074838
     8  H    0.027363
     9  H    0.027363
    10  H    0.029717
 Sum of Mulliken charges =   0.00000

 Dipole moment (field-independent basis, Debye):
    X=              0.0000    Y=             -0.0000    Z=              0.0000  Tot=              0.0000
 Quadrupole moment (field-independent basis, Debye-Ang):
   XX=            -12.6096   YY=            -17.7974   ZZ=            -13.6733
   XY=             -0.0000   XZ=              0.0000   YZ=              0.0000

 Normal termination of Gaussian 09 at Thu Feb  9 16:21:11 2017.
