 Gaussian 09, Revision E.01,
 Gaussian 09:  ES64L-G09RevE.01 30-Nov-2015

 ----------------------------------------------------------------------
 #rhf/gen scf(symm,tight,novaracc,noincfock,fulldiag) stable(crhf) geom
 =nocrowd test
 ----------------------------------------------------------------------

 hf stability analysis of h10 triangular lattice, y= 0.9687463693836443
 3
 ----------------------------------------------------------------------
 Symbolic Z-matrix:
 Charge =  0 Multiplicity = 1

                         Standard orientation:
 ---------------------------------------------------------------------
 Center     Atomic      Atomic             Coordinates (Angstroms)
 Number     Number       Type             X           Y           Z
 ---------------------------------------------------------------------
      1          1           0       -0.000000    0.968746    1.191953
      2          1           0        0.000000    0.000000    1.787930
      3          1           0        0.000000    0.000000    0.595977
      4          1           0       -0.000000   -0.968746    1.191953
      5          1           0       -0.000000    0.968746    0.000000
      6          1           0       -0.000000   -0.968746    0.000000
      7          1           0        0.000000   -0.000000   -0.595977
      8          1           0        0.000000    0.968746   -1.191953
      9          1           0       -0.000000   -0.968746   -1.191953
     10          1           0        0.000000   -0.000000   -1.787930
 ---------------------------------------------------------------------

 SCF Done:  E(RHF) =  -4.95963135452     A.U. after    8 cycles
 E2 =    -0.9985899714D-01 EUMP2 =    -0.50594903516643D+01

 The electronic state is 1-AG.
 Alpha  occ. eigenvalues --   -0.96365  -0.73310  -0.59600  -0.41695  -0.33627
 Alpha virt. eigenvalues --    0.15051   0.18595   0.24995   0.42382   0.58467

 Mulliken charges:
               1
     1  H   -0.107982
     2  H    0.030594
     3  H    0.100072
     4  H   -0.107982
     5  H    0.085299
     6  H    0.085299
     7  H    0.100072
     8  H   -0.107982
     9  H   -0.107982
    10  H    0.030594
 Sum of Mulliken charges =  -0.00000

 Dipole moment (field-independent basis, Debye):
    X=              0.0000    Y=             -0.0000    Z=              0.0000  Tot=              0.0000
 Quadrupole moment (field-independent basis, Debye-Ang):
   XX=            -12.8648   YY=            -15.8389   ZZ=            -18.0947
   XY=             -0.0000   XZ=              0.0000   YZ=             -0.0000

 Normal termination of Gaussian 09 at Thu Feb  9 16:16:01 2017.
