 Gaussian 09, Revision E.01,
 Gaussian 09:  ES64L-G09RevE.01 30-Nov-2015

 ----------------------------------------------------------------------
 #rhf/gen scf(symm,tight,novaracc,noincfock,fulldiag) stable(crhf) geom
 =nocrowd test
 ----------------------------------------------------------------------

 ----------------------------------------------------------------------
 hf stability analysis of h10 triangular lattice, y= 1.5050035516311675
 ----------------------------------------------------------------------
 Symbolic Z-matrix:
 Charge =  0 Multiplicity = 1

                         Standard orientation:
 ---------------------------------------------------------------------
 Center     Atomic      Atomic             Coordinates (Angstroms)
 Number     Number       Type             X           Y           Z
 ---------------------------------------------------------------------
      1          1           0       -0.000000    1.505004    0.767241
      2          1           0        0.000000    0.000000    1.150862
      3          1           0        0.000000    0.000000    0.383621
      4          1           0       -0.000000   -1.505004    0.767241
      5          1           0       -0.000000    1.505004   -0.000000
      6          1           0       -0.000000   -1.505004    0.000000
      7          1           0        0.000000   -0.000000   -0.383621
      8          1           0        0.000000    1.505004   -0.767241
      9          1           0       -0.000000   -1.505004   -0.767241
     10          1           0        0.000000   -0.000000   -1.150862
 ---------------------------------------------------------------------

 SCF Done:  E(RHF) =  -4.88989903390     A.U. after    8 cycles
 E2 =    -0.9217960283D-01 EUMP2 =    -0.49820786367339D+01

 The electronic state is 1-AG.
 Alpha  occ. eigenvalues --   -0.96236  -0.75267  -0.63084  -0.61446  -0.26340
 Alpha virt. eigenvalues --    0.04090   0.15147   0.77696   0.89556   1.01195

 Mulliken charges:
               1
     1  H   -0.011059
     2  H    0.251296
     3  H   -0.082645
     4  H   -0.011059
     5  H   -0.146533
     6  H   -0.146533
     7  H   -0.082645
     8  H   -0.011059
     9  H   -0.011059
    10  H    0.251296
 Sum of Mulliken charges =  -0.00000

 Dipole moment (field-independent basis, Debye):
    X=              0.0000    Y=             -0.0000    Z=             -0.0000  Tot=              0.0000
 Quadrupole moment (field-independent basis, Debye-Ang):
   XX=            -12.5975   YY=            -19.7301   ZZ=            -12.2464
   XY=             -0.0000   XZ=             -0.0000   YZ=              0.0000

 Normal termination of Gaussian 09 at Thu Feb  9 16:28:10 2017.
