 Gaussian 09, Revision E.01,
 Gaussian 09:  ES64L-G09RevE.01 30-Nov-2015

 ----------------------------------------------------------------------
 #rhf/gen scf(symm,tight,novaracc,noincfock,fulldiag) stable(crhf) geom
 =nocrowd test
 ----------------------------------------------------------------------

 hf stability analysis of h10 triangular lattice, y= 0.7841017910157061
 0
 ----------------------------------------------------------------------
 Symbolic Z-matrix:
 Charge =  0 Multiplicity = 1

                         Standard orientation:
 ---------------------------------------------------------------------
 Center     Atomic      Atomic             Coordinates (Angstroms)
 Number     Number       Type             X           Y           Z
 ---------------------------------------------------------------------
      1          1           0       -0.000000    0.784102    1.472641
      2          1           0        0.000000    0.000000    2.208962
      3          1           0        0.000000    0.000000    0.736321
      4          1           0       -0.000000   -0.784102    1.472641
      5          1           0       -0.000000    0.784102    0.000000
      6          1           0       -0.000000   -0.784102   -0.000000
      7          1           0        0.000000    0.000000   -0.736321
      8          1           0        0.000000    0.784102   -1.472641
      9          1           0       -0.000000   -0.784102   -1.472641
     10          1           0        0.000000    0.000000   -2.208962
 ---------------------------------------------------------------------

 SCF Done:  E(RHF) =  -4.88887245723     A.U. after    8 cycles
 E2 =    -0.9679990455D-01 EUMP2 =    -0.49856723617801D+01

 The electronic state is 1-AG.
 Alpha  occ. eigenvalues --   -0.91976  -0.74858  -0.50888  -0.48233  -0.28752
 Alpha virt. eigenvalues --    0.00069   0.15868   0.37957   0.47442   0.54912

 Mulliken charges:
               1
     1  H   -0.194777
     2  H    0.203747
     3  H    0.135403
     4  H   -0.194777
     5  H    0.050405
     6  H    0.050405
     7  H    0.135403
     8  H   -0.194777
     9  H   -0.194777
    10  H    0.203747
 Sum of Mulliken charges =   0.00000

 Dipole moment (field-independent basis, Debye):
    X=              0.0000    Y=             -0.0000    Z=             -0.0000  Tot=              0.0000
 Quadrupole moment (field-independent basis, Debye-Ang):
   XX=            -12.9875   YY=            -18.2708   ZZ=            -12.1901
   XY=             -0.0000   XZ=             -0.0000   YZ=             -0.0000

 Normal termination of Gaussian 09 at Thu Feb  9 16:07:56 2017.
