 Gaussian 09, Revision E.01,
 Gaussian 09:  ES64L-G09RevE.01 30-Nov-2015

 ----------------------------------------------------------------------
 #rhf/gen scf(symm,tight,novaracc,noincfock,fulldiag) stable(crhf) geom
 =nocrowd test
 ----------------------------------------------------------------------

 hf stability analysis of h10 triangular lattice, y= 0.8705633810941086
 9
 ----------------------------------------------------------------------
 Symbolic Z-matrix:
 Charge =  0 Multiplicity = 1

                         Standard orientation:
 ---------------------------------------------------------------------
 Center     Atomic      Atomic             Coordinates (Angstroms)
 Number     Number       Type             X           Y           Z
 ---------------------------------------------------------------------
      1          1           0        0.000000    0.870563    1.326383
      2          1           0        0.000000   -0.000000    1.989575
      3          1           0        0.000000   -0.000000    0.663192
      4          1           0       -0.000000   -0.870563    1.326383
      5          1           0       -0.000000    0.870563    0.000000
      6          1           0       -0.000000   -0.870563   -0.000000
      7          1           0        0.000000    0.000000   -0.663192
      8          1           0        0.000000    0.870563   -1.326383
      9          1           0       -0.000000   -0.870563   -1.326383
     10          1           0        0.000000    0.000000   -1.989575
 ---------------------------------------------------------------------

 SCF Done:  E(RHF) =  -4.95907572633     A.U. after    8 cycles
 E2 =    -0.9649447678D-01 EUMP2 =    -0.50555702031132D+01

 The electronic state is 1-AG.
 Alpha  occ. eigenvalues --   -0.94562  -0.74671  -0.54142  -0.46883  -0.31734
 Alpha virt. eigenvalues --    0.08225   0.19420   0.30923   0.49301   0.50327

 Mulliken charges:
               1
     1  H   -0.150504
     2  H    0.120462
     3  H    0.103421
     4  H   -0.150504
     5  H    0.077124
     6  H    0.077124
     7  H    0.103421
     8  H   -0.150504
     9  H   -0.150504
    10  H    0.120462
 Sum of Mulliken charges =  -0.00000

 Dipole moment (field-independent basis, Debye):
    X=              0.0000    Y=             -0.0000    Z=              0.0000  Tot=              0.0000
 Quadrupole moment (field-independent basis, Debye-Ang):
   XX=            -12.9312   YY=            -17.1638   ZZ=            -15.4397
   XY=             -0.0000   XZ=             -0.0000   YZ=             -0.0000

 Normal termination of Gaussian 09 at Thu Feb  9 16:12:05 2017.
