 Gaussian 09, Revision E.01,
 Gaussian 09:  ES64L-G09RevE.01 30-Nov-2015

 ----------------------------------------------------------------------
 #rhf/gen scf(symm,tight,novaracc,noincfock,fulldiag) stable(crhf) geom
 =nocrowd test
 ----------------------------------------------------------------------

 ----------------------------------------------------------------------
 hf stability analysis of h10 triangular lattice, y= 1.1294776439460517
 ----------------------------------------------------------------------
 Symbolic Z-matrix:
 Charge =  0 Multiplicity = 1

                         Standard orientation:
 ---------------------------------------------------------------------
 Center     Atomic      Atomic             Coordinates (Angstroms)
 Number     Number       Type             X           Y           Z
 ---------------------------------------------------------------------
      1          1           0        0.000000    1.129478    1.022331
      2          1           0        0.000000    0.000000    1.533497
      3          1           0        0.000000    0.000000    0.511166
      4          1           0       -0.000000   -1.129478    1.022331
      5          1           0       -0.000000    1.129478    0.000000
      6          1           0       -0.000000   -1.129478    0.000000
      7          1           0        0.000000   -0.000000   -0.511166
      8          1           0        0.000000    1.129478   -1.022331
      9          1           0       -0.000000   -1.129478   -1.022331
     10          1           0        0.000000   -0.000000   -1.533497
 ---------------------------------------------------------------------

 SCF Done:  E(RHF) =  -4.81651148670     A.U. after   12 cycles
 E2 =    -0.1086893523D+00 EUMP2 =    -0.49252008390115D+01

 The electronic state is 1-AG.
 Alpha  occ. eigenvalues --   -0.95474  -0.69450  -0.65487  -0.33274  -0.32030
 Alpha virt. eigenvalues --   -0.03479   0.20738   0.41748   0.45943   0.69584

 Mulliken charges:
               1
     1  H    0.030993
     2  H    0.017746
     3  H    0.078883
     4  H    0.030993
     5  H   -0.158615
     6  H   -0.158615
     7  H    0.078883
     8  H    0.030993
     9  H    0.030993
    10  H    0.017746
 Sum of Mulliken charges =   0.00000

 Dipole moment (field-independent basis, Debye):
    X=              0.0000    Y=             -0.0000    Z=             -0.0000  Tot=              0.0000
 Quadrupole moment (field-independent basis, Debye-Ang):
   XX=            -12.6132   YY=            -17.5866   ZZ=            -13.9723
   XY=             -0.0000   XZ=              0.0000   YZ=              0.0000

 Normal termination of Gaussian 09 at Thu Feb  9 16:21:08 2017.
