 Gaussian 09, Revision E.01,
 Gaussian 09:  ES64L-G09RevE.01 30-Nov-2015

 ----------------------------------------------------------------------
 #rhf/gen scf(symm,tight,novaracc,noincfock,fulldiag) stable(crhf) geom
 =nocrowd test
 ----------------------------------------------------------------------

 hf stability analysis of h10 triangular lattice, y= 0.8346603539118364
 6
 ----------------------------------------------------------------------
 Symbolic Z-matrix:
 Charge =  0 Multiplicity = 1

                         Standard orientation:
 ---------------------------------------------------------------------
 Center     Atomic      Atomic             Coordinates (Angstroms)
 Number     Number       Type             X           Y           Z
 ---------------------------------------------------------------------
      1          1           0        0.000000    0.834660    1.383438
      2          1           0        0.000000   -0.000000    2.075156
      3          1           0        0.000000   -0.000000    0.691719
      4          1           0       -0.000000   -0.834660    1.383438
      5          1           0       -0.000000    0.834660    0.000000
      6          1           0       -0.000000   -0.834660    0.000000
      7          1           0        0.000000   -0.000000   -0.691719
      8          1           0        0.000000    0.834660   -1.383438
      9          1           0       -0.000000   -0.834660   -1.383438
     10          1           0        0.000000   -0.000000   -2.075156
 ---------------------------------------------------------------------

 SCF Done:  E(RHF) =  -4.93794895549     A.U. after    8 cycles
 E2 =    -0.9624161056D-01 EUMP2 =    -0.50341905660438D+01

 The electronic state is 1-AG.
 Alpha  occ. eigenvalues --   -0.93618  -0.74886  -0.51834  -0.48624  -0.30668
 Alpha virt. eigenvalues --    0.04665   0.17766   0.37269   0.45228   0.52771

 Mulliken charges:
               1
     1  H   -0.167794
     2  H    0.154477
     3  H    0.112331
     4  H   -0.167794
     5  H    0.068781
     6  H    0.068781
     7  H    0.112331
     8  H   -0.167794
     9  H   -0.167794
    10  H    0.154477
 Sum of Mulliken charges =  -0.00000

 Dipole moment (field-independent basis, Debye):
    X=              0.0000    Y=             -0.0000    Z=             -0.0000  Tot=              0.0000
 Quadrupole moment (field-independent basis, Debye-Ang):
   XX=            -12.9548   YY=            -17.6313   ZZ=            -14.2136
   XY=             -0.0000   XZ=             -0.0000   YZ=              0.0000

 Normal termination of Gaussian 09 at Thu Feb  9 16:10:27 2017.
