 Gaussian 09, Revision E.01,
 Gaussian 09:  ES64L-G09RevE.01 30-Nov-2015

 ----------------------------------------------------------------------
 #rhf/gen scf(symm,tight,novaracc,noincfock,fulldiag) stable(crhf) geom
 =nocrowd test
 ----------------------------------------------------------------------

 ----------------------------------------------------------------------
 hf stability analysis of h10 triangular lattice, y= 1.1321087319861824
 ----------------------------------------------------------------------
 Symbolic Z-matrix:
 Charge =  0 Multiplicity = 1

                         Standard orientation:
 ---------------------------------------------------------------------
 Center     Atomic      Atomic             Coordinates (Angstroms)
 Number     Number       Type             X           Y           Z
 ---------------------------------------------------------------------
      1          1           0        0.000000    1.132109    1.019956
      2          1           0        0.000000    0.000000    1.529933
      3          1           0        0.000000    0.000000    0.509978
      4          1           0       -0.000000   -1.132109    1.019956
      5          1           0       -0.000000    1.132109   -0.000000
      6          1           0       -0.000000   -1.132109    0.000000
      7          1           0        0.000000   -0.000000   -0.509978
      8          1           0        0.000000    1.132109   -1.019956
      9          1           0       -0.000000   -1.132109   -1.019956
     10          1           0        0.000000   -0.000000   -1.529933
 ---------------------------------------------------------------------

 SCF Done:  E(RHF) =  -4.81744184925     A.U. after   12 cycles
 E2 =    -0.1083085492D+00 EUMP2 =    -0.49257503984086D+01

 The electronic state is 1-AG.
 Alpha  occ. eigenvalues --   -0.95284  -0.69321  -0.65486  -0.33476  -0.31910
 Alpha virt. eigenvalues --   -0.03463   0.20444   0.42380   0.46430   0.69872

 Mulliken charges:
               1
     1  H    0.023645
     2  H    0.041233
     3  H    0.070951
     4  H    0.023645
     5  H   -0.159474
     6  H   -0.159474
     7  H    0.070951
     8  H    0.023645
     9  H    0.023645
    10  H    0.041233
 Sum of Mulliken charges =  -0.00000

 Dipole moment (field-independent basis, Debye):
    X=              0.0000    Y=              0.0000    Z=             -0.0000  Tot=              0.0000
 Quadrupole moment (field-independent basis, Debye-Ang):
   XX=            -12.6064   YY=            -17.9966   ZZ=            -13.3943
   XY=             -0.0000   XZ=              0.0000   YZ=              0.0000

 Normal termination of Gaussian 09 at Thu Feb  9 16:21:13 2017.
