 Gaussian 09, Revision E.01,
 Gaussian 09:  ES64L-G09RevE.01 30-Nov-2015

 ----------------------------------------------------------------------
 #rhf/gen scf(symm,tight,novaracc,noincfock,fulldiag) stable(crhf) geom
 =nocrowd test
 ----------------------------------------------------------------------

 ----------------------------------------------------------------------
 hf stability analysis of h10 triangular lattice, y= 1.0621871011024460
 ----------------------------------------------------------------------
 Symbolic Z-matrix:
 Charge =  0 Multiplicity = 1

                         Standard orientation:
 ---------------------------------------------------------------------
 Center     Atomic      Atomic             Coordinates (Angstroms)
 Number     Number       Type             X           Y           Z
 ---------------------------------------------------------------------
      1          1           0       -0.000000    1.062187    1.087097
      2          1           0       -0.000000    0.000000    1.630646
      3          1           0       -0.000000    0.000000    0.543549
      4          1           0       -0.000000   -1.062187    1.087097
      5          1           0       -0.000000    1.062187    0.000000
      6          1           0       -0.000000   -1.062187    0.000000
      7          1           0        0.000000   -0.000000   -0.543549
      8          1           0        0.000000    1.062187   -1.087097
      9          1           0       -0.000000   -1.062187   -1.087097
     10          1           0        0.000000   -0.000000   -1.630646
 ---------------------------------------------------------------------

 SCF Done:  E(RHF) =  -4.88624658816     A.U. after    9 cycles
 E2 =    -0.1068446140D+00 EUMP2 =    -0.49930912021185D+01

 The electronic state is 1-AG.
 Alpha  occ. eigenvalues --   -0.97284  -0.71336  -0.63877  -0.36315  -0.34308
 Alpha virt. eigenvalues --    0.02360   0.25416   0.31413   0.38839   0.64313

 Mulliken charges:
               1
     1  H   -0.063694
     2  H   -0.057861
     3  H    0.115657
     4  H   -0.063694
     5  H    0.069592
     6  H    0.069592
     7  H    0.115657
     8  H   -0.063694
     9  H   -0.063694
    10  H   -0.057861
 Sum of Mulliken charges =   0.00000

 Dipole moment (field-independent basis, Debye):
    X=             -0.0000    Y=             -0.0000    Z=             -0.0000  Tot=              0.0000
 Quadrupole moment (field-independent basis, Debye-Ang):
   XX=            -12.7950   YY=            -14.5031   ZZ=            -19.8953
   XY=             -0.0000   XZ=              0.0000   YZ=             -0.0000

 Normal termination of Gaussian 09 at Thu Feb  9 16:19:11 2017.
