 Gaussian 09, Revision E.01,
 Gaussian 09:  ES64L-G09RevE.01 30-Nov-2015

 ----------------------------------------------------------------------
 #rhf/gen scf(symm,tight,novaracc,noincfock,fulldiag) stable(crhf) geom
 =nocrowd test
 ----------------------------------------------------------------------

 ----------------------------------------------------------------------
 hf stability analysis of h10 triangular lattice, y= 2.2777318499949293
 ----------------------------------------------------------------------
 Symbolic Z-matrix:
 Charge =  0 Multiplicity = 1

                         Standard orientation:
 ---------------------------------------------------------------------
 Center     Atomic      Atomic             Coordinates (Angstroms)
 Number     Number       Type             X           Y           Z
 ---------------------------------------------------------------------
      1          1           0       -0.000000    2.277732    0.506952
      2          1           0        0.000000    0.000000    0.760428
      3          1           0        0.000000    0.000000    0.253476
      4          1           0       -0.000000   -2.277732    0.506952
      5          1           0       -0.000000    2.277732   -0.000000
      6          1           0       -0.000000   -2.277732    0.000000
      7          1           0        0.000000   -0.000000   -0.253476
      8          1           0        0.000000    2.277732   -0.506952
      9          1           0       -0.000000   -2.277732   -0.506952
     10          1           0        0.000000   -0.000000   -0.760428
 ---------------------------------------------------------------------

 SCF Done:  E(RHF) =  -3.46726700922     A.U. after    7 cycles
 E2 =    -0.2265562098D+00 EUMP2 =    -0.36938232190067D+01

 The electronic state is 1-AG.
 Alpha  occ. eigenvalues --   -1.05287  -0.90632  -0.90501  -0.53975  -0.13798
 Alpha virt. eigenvalues --   -0.01243   0.53897   1.42251   1.43864   2.31256

 Mulliken charges:
               1
     1  H    0.275193
     2  H    0.278437
     3  H   -0.265028
     4  H    0.275193
     5  H   -0.563796
     6  H   -0.563796
     7  H   -0.265028
     8  H    0.275193
     9  H    0.275193
    10  H    0.278437
 Sum of Mulliken charges =  -0.00000

 Dipole moment (field-independent basis, Debye):
    X=              0.0000    Y=              0.0000    Z=              0.0000  Tot=              0.0000
 Quadrupole moment (field-independent basis, Debye-Ang):
   XX=            -12.2029   YY=            -13.9264   ZZ=            -14.7451
   XY=              0.0000   XZ=              0.0000   YZ=             -0.0000

 Normal termination of Gaussian 09 at Thu Feb  9 16:33:42 2017.
