 Gaussian 09, Revision E.01,
 Gaussian 09:  ES64L-G09RevE.01 30-Nov-2015

 ----------------------------------------------------------------------
 #rhf/gen scf(symm,tight,novaracc,noincfock,fulldiag) stable(crhf) geom
 =nocrowd test
 ----------------------------------------------------------------------

 hf stability analysis of h10 triangular lattice, y= 0.9286741012772336
 0
 ----------------------------------------------------------------------
 Symbolic Z-matrix:
 Charge =  0 Multiplicity = 1

                         Standard orientation:
 ---------------------------------------------------------------------
 Center     Atomic      Atomic             Coordinates (Angstroms)
 Number     Number       Type             X           Y           Z
 ---------------------------------------------------------------------
      1          1           0        0.000000    0.928674    1.243386
      2          1           0        0.000000    0.000000    1.865079
      3          1           0        0.000000    0.000000    0.621693
      4          1           0       -0.000000   -0.928674    1.243386
      5          1           0       -0.000000    0.928674    0.000000
      6          1           0       -0.000000   -0.928674    0.000000
      7          1           0        0.000000    0.000000   -0.621693
      8          1           0        0.000000    0.928674   -1.243386
      9          1           0       -0.000000   -0.928674   -1.243386
     10          1           0        0.000000    0.000000   -1.865079
 ---------------------------------------------------------------------

 SCF Done:  E(RHF) =  -4.96939918551     A.U. after    8 cycles
 E2 =    -0.9801287452D-01 EUMP2 =    -0.50674120600254D+01

 The electronic state is 1-AG.
 Alpha  occ. eigenvalues --   -0.95752  -0.73982  -0.57509  -0.43878  -0.33017
 Alpha virt. eigenvalues --    0.14333   0.21196   0.22553   0.45624   0.55140

 Mulliken charges:
               1
     1  H   -0.124823
     2  H    0.066879
     3  H    0.098508
     4  H   -0.124823
     5  H    0.084259
     6  H    0.084259
     7  H    0.098508
     8  H   -0.124823
     9  H   -0.124823
    10  H    0.066879
 Sum of Mulliken charges =  -0.00000

 Dipole moment (field-independent basis, Debye):
    X=              0.0000    Y=              0.0000    Z=             -0.0000  Tot=              0.0000
 Quadrupole moment (field-independent basis, Debye-Ang):
   XX=            -12.8923   YY=            -16.3880   ZZ=            -17.1197
   XY=             -0.0000   XZ=              0.0000   YZ=              0.0000

 Normal termination of Gaussian 09 at Thu Feb  9 16:14:33 2017.
