 Gaussian 09, Revision E.01,
 Gaussian 09:  ES64L-G09RevE.01 30-Nov-2015

 ----------------------------------------------------------------------
 #rhf/gen scf(symm,tight,novaracc,noincfock,fulldiag) stable(crhf) geom
 =nocrowd test
 ----------------------------------------------------------------------

 hf stability analysis of h10 triangular lattice, y= 0.8458830111341257
 8
 ----------------------------------------------------------------------
 Symbolic Z-matrix:
 Charge =  0 Multiplicity = 1

                         Standard orientation:
 ---------------------------------------------------------------------
 Center     Atomic      Atomic             Coordinates (Angstroms)
 Number     Number       Type             X           Y           Z
 ---------------------------------------------------------------------
      1          1           0        0.000000    0.845883    1.365083
      2          1           0        0.000000    0.000000    2.047625
      3          1           0        0.000000    0.000000    0.682542
      4          1           0       -0.000000   -0.845883    1.365083
      5          1           0       -0.000000    0.845883   -0.000000
      6          1           0       -0.000000   -0.845883    0.000000
      7          1           0        0.000000   -0.000000   -0.682542
      8          1           0        0.000000    0.845883   -1.365083
      9          1           0       -0.000000   -0.845883   -1.365083
     10          1           0        0.000000   -0.000000   -2.047625
 ---------------------------------------------------------------------

 SCF Done:  E(RHF) =  -4.94577142138     A.U. after    8 cycles
 E2 =    -0.9626386682D-01 EUMP2 =    -0.50420352881931D+01

 The electronic state is 1-AG.
 Alpha  occ. eigenvalues --   -0.93932  -0.74838  -0.52576  -0.48091  -0.31026
 Alpha virt. eigenvalues --    0.05755   0.18258   0.35291   0.46508   0.52070

 Mulliken charges:
               1
     1  H   -0.162242
     2  H    0.143759
     3  H    0.108963
     4  H   -0.162242
     5  H    0.071762
     6  H    0.071762
     7  H    0.108963
     8  H   -0.162242
     9  H   -0.162242
    10  H    0.143759
 Sum of Mulliken charges =  -0.00000

 Dipole moment (field-independent basis, Debye):
    X=              0.0000    Y=              0.0000    Z=              0.0000  Tot=              0.0000
 Quadrupole moment (field-independent basis, Debye-Ang):
   XX=            -12.9474   YY=            -17.4862   ZZ=            -14.6141
   XY=             -0.0000   XZ=             -0.0000   YZ=              0.0000

 Normal termination of Gaussian 09 at Thu Feb  9 16:10:58 2017.
