 Gaussian 09, Revision E.01,
 Gaussian 09:  ES64L-G09RevE.01 30-Nov-2015

 ----------------------------------------------------------------------
 #rhf/gen scf(symm,tight,novaracc,noincfock,fulldiag) stable(crhf) geom
 =nocrowd test
 ----------------------------------------------------------------------

 ----------------------------------------------------------------------
 hf stability analysis of h10 triangular lattice, y= 1.1509354590573304
 ----------------------------------------------------------------------
 Symbolic Z-matrix:
 Charge =  0 Multiplicity = 1

                         Standard orientation:
 ---------------------------------------------------------------------
 Center     Atomic      Atomic             Coordinates (Angstroms)
 Number     Number       Type             X           Y           Z
 ---------------------------------------------------------------------
      1          1           0        0.000000    1.150935    1.003271
      2          1           0        0.000000    0.000000    1.504907
      3          1           0        0.000000    0.000000    0.501636
      4          1           0       -0.000000   -1.150935    1.003271
      5          1           0       -0.000000    1.150935    0.000000
      6          1           0       -0.000000   -1.150935    0.000000
      7          1           0        0.000000   -0.000000   -0.501636
      8          1           0        0.000000    1.150935   -1.003271
      9          1           0       -0.000000   -1.150935   -1.003271
     10          1           0        0.000000   -0.000000   -1.504907
 ---------------------------------------------------------------------

 SCF Done:  E(RHF) =  -4.83103150998     A.U. after   10 cycles
 E2 =    -0.1049578359D+00 EUMP2 =    -0.49359893458344D+01

 The electronic state is 1-AG.
 Alpha  occ. eigenvalues --   -0.94490  -0.68579  -0.65698  -0.35067  -0.31428
 Alpha virt. eigenvalues --   -0.03229   0.18918   0.45730   0.49541   0.71493

 Mulliken charges:
               1
     1  H   -0.025094
     2  H    0.161355
     3  H    0.028693
     4  H   -0.025094
     5  H   -0.139860
     6  H   -0.139860
     7  H    0.028693
     8  H   -0.025094
     9  H   -0.025094
    10  H    0.161355
 Sum of Mulliken charges =  -0.00000

 Dipole moment (field-independent basis, Debye):
    X=              0.0000    Y=              0.0000    Z=              0.0000  Tot=              0.0000
 Quadrupole moment (field-independent basis, Debye-Ang):
   XX=            -12.5866   YY=            -19.8911   ZZ=            -10.9229
   XY=             -0.0000   XZ=             -0.0000   YZ=             -0.0000

 Normal termination of Gaussian 09 at Thu Feb  9 16:21:42 2017.
