 Gaussian 09, Revision E.01,
 Gaussian 09:  ES64L-G09RevE.01 30-Nov-2015

 ----------------------------------------------------------------------
 #rhf/gen scf(symm,tight,novaracc,noincfock,fulldiag) stable(crhf) geom
 =nocrowd test
 ----------------------------------------------------------------------

 ----------------------------------------------------------------------
 hf stability analysis of h10 triangular lattice, y= 1.6204752664049629
 ----------------------------------------------------------------------
 Symbolic Z-matrix:
 Charge =  0 Multiplicity = 1

                         Standard orientation:
 ---------------------------------------------------------------------
 Center     Atomic      Atomic             Coordinates (Angstroms)
 Number     Number       Type             X           Y           Z
 ---------------------------------------------------------------------
      1          1           0       -0.000000    1.620475    0.712569
      2          1           0       -0.000000   -0.000000    1.068854
      3          1           0       -0.000000   -0.000000    0.356285
      4          1           0       -0.000000   -1.620475    0.712569
      5          1           0       -0.000000    1.620475    0.000000
      6          1           0       -0.000000   -1.620475   -0.000000
      7          1           0        0.000000    0.000000   -0.356285
      8          1           0        0.000000    1.620475   -0.712569
      9          1           0       -0.000000   -1.620475   -0.712569
     10          1           0        0.000000    0.000000   -1.068854
 ---------------------------------------------------------------------

 SCF Done:  E(RHF) =  -4.77228348251     A.U. after    7 cycles
 E2 =    -0.1018095741D+00 EUMP2 =    -0.48740930565644D+01

 The electronic state is 1-AG.
 Alpha  occ. eigenvalues --   -0.96979  -0.77923  -0.69585  -0.59641  -0.24251
 Alpha virt. eigenvalues --    0.01430   0.21579   0.87557   0.96335   1.19309

 Mulliken charges:
               1
     1  H    0.032634
     2  H    0.231671
     3  H   -0.101380
     4  H    0.032634
     5  H   -0.195557
     6  H   -0.195557
     7  H   -0.101380
     8  H    0.032634
     9  H    0.032634
    10  H    0.231671
 Sum of Mulliken charges =   0.00000

 Dipole moment (field-independent basis, Debye):
    X=              0.0000    Y=             -0.0000    Z=              0.0000  Tot=              0.0000
 Quadrupole moment (field-independent basis, Debye-Ang):
   XX=            -12.5613   YY=            -18.7548   ZZ=            -12.9975
   XY=             -0.0000   XZ=             -0.0000   YZ=             -0.0000

 Normal termination of Gaussian 09 at Thu Feb  9 16:29:29 2017.
