 Gaussian 09, Revision E.01,
 Gaussian 09:  ES64L-G09RevE.01 30-Nov-2015

 ----------------------------------------------------------------------
 #rhf/gen scf(symm,tight,novaracc,noincfock,fulldiag) stable(crhf) geom
 =nocrowd test
 ----------------------------------------------------------------------

 ----------------------------------------------------------------------
 hf stability analysis of h10 triangular lattice, y= 1.1690935096038124
 ----------------------------------------------------------------------
 Symbolic Z-matrix:
 Charge =  0 Multiplicity = 1

                         Standard orientation:
 ---------------------------------------------------------------------
 Center     Atomic      Atomic             Coordinates (Angstroms)
 Number     Number       Type             X           Y           Z
 ---------------------------------------------------------------------
      1          1           0        0.000000    1.169093    0.987689
      2          1           0        0.000000    0.000000    1.481533
      3          1           0        0.000000    0.000000    0.493844
      4          1           0       -0.000000   -1.169093    0.987689
      5          1           0       -0.000000    1.169093    0.000000
      6          1           0       -0.000000   -1.169093    0.000000
      7          1           0        0.000000   -0.000000   -0.493844
      8          1           0        0.000000    1.169093   -0.987689
      9          1           0       -0.000000   -1.169093   -0.987689
     10          1           0        0.000000   -0.000000   -1.481533
 ---------------------------------------------------------------------

 SCF Done:  E(RHF) =  -4.84923913159     A.U. after   10 cycles
 E2 =    -0.1014146758D+00 EUMP2 =    -0.49506538074187D+01

 The electronic state is 1-AG.
 Alpha  occ. eigenvalues --   -0.94201  -0.68022  -0.66089  -0.36695  -0.31203
 Alpha virt. eigenvalues --   -0.02753   0.17850   0.48002   0.52264   0.72677

 Mulliken charges:
               1
     1  H   -0.055442
     2  H    0.223435
     3  H    0.002896
     4  H   -0.055442
     5  H   -0.115448
     6  H   -0.115448
     7  H    0.002896
     8  H   -0.055442
     9  H   -0.055442
    10  H    0.223435
 Sum of Mulliken charges =   0.00000

 Dipole moment (field-independent basis, Debye):
    X=              0.0000    Y=             -0.0000    Z=              0.0000  Tot=              0.0000
 Quadrupole moment (field-independent basis, Debye-Ang):
   XX=            -12.5861   YY=            -20.7263   ZZ=             -9.9814
   XY=             -0.0000   XZ=             -0.0000   YZ=              0.0000

 Normal termination of Gaussian 09 at Thu Feb  9 16:22:09 2017.
