 Gaussian 09, Revision E.01,
 Gaussian 09:  ES64L-G09RevE.01 30-Nov-2015

 ----------------------------------------------------------------------
 #rhf/gen scf(symm,tight,novaracc,noincfock,fulldiag) stable(crhf) geom
 =nocrowd test
 ----------------------------------------------------------------------

 ----------------------------------------------------------------------
 hf stability analysis of h10 triangular lattice, y= 1.9311801631481520
 ----------------------------------------------------------------------
 Symbolic Z-matrix:
 Charge =  0 Multiplicity = 1

                         Standard orientation:
 ---------------------------------------------------------------------
 Center     Atomic      Atomic             Coordinates (Angstroms)
 Number     Number       Type             X           Y           Z
 ---------------------------------------------------------------------
      1          1           0       -0.000000    1.931180    0.597925
      2          1           0        0.000000    0.000000    0.896887
      3          1           0        0.000000    0.000000    0.298962
      4          1           0       -0.000000   -1.931180    0.597925
      5          1           0       -0.000000    1.931180   -0.000000
      6          1           0       -0.000000   -1.931180    0.000000
      7          1           0        0.000000   -0.000000   -0.298962
      8          1           0        0.000000    1.931180   -0.597925
      9          1           0       -0.000000   -1.931180   -0.597925
     10          1           0        0.000000   -0.000000   -0.896887
 ---------------------------------------------------------------------

 SCF Done:  E(RHF) =  -4.25810087810     A.U. after    7 cycles
 E2 =    -0.1512689842D+00 EUMP2 =    -0.44093698622827D+01

 The electronic state is 1-AG.
 Alpha  occ. eigenvalues --   -0.99710  -0.84349  -0.82168  -0.56039  -0.18927
 Alpha virt. eigenvalues --   -0.01767   0.37966   1.13553   1.17373   1.70658

 Mulliken charges:
               1
     1  H    0.150680
     2  H    0.219032
     3  H   -0.167638
     4  H    0.150680
     5  H   -0.352755
     6  H   -0.352755
     7  H   -0.167638
     8  H    0.150680
     9  H    0.150680
    10  H    0.219032
 Sum of Mulliken charges =   0.00000

 Dipole moment (field-independent basis, Debye):
    X=              0.0000    Y=              0.0000    Z=             -0.0000  Tot=              0.0000
 Quadrupole moment (field-independent basis, Debye-Ang):
   XX=            -12.4057   YY=            -16.0689   ZZ=            -14.1770
   XY=             -0.0000   XZ=              0.0000   YZ=              0.0000

 Normal termination of Gaussian 09 at Thu Feb  9 16:32:00 2017.
