 Gaussian 09, Revision E.01,
 Gaussian 09:  ES64L-G09RevE.01 30-Nov-2015

 ----------------------------------------------------------------------
 #rhf/gen scf(symm,tight,novaracc,noincfock,fulldiag) stable(crhf) geom
 =nocrowd test
 ----------------------------------------------------------------------

 hf stability analysis of h10 triangular lattice, y= 0.9959855166101204
 7
 ----------------------------------------------------------------------
 Symbolic Z-matrix:
 Charge =  0 Multiplicity = 1

                         Standard orientation:
 ---------------------------------------------------------------------
 Center     Atomic      Atomic             Coordinates (Angstroms)
 Number     Number       Type             X           Y           Z
 ---------------------------------------------------------------------
      1          1           0        0.000000    0.995985    1.159355
      2          1           0       -0.000000   -0.000000    1.739032
      3          1           0       -0.000000   -0.000000    0.579677
      4          1           0       -0.000000   -0.995985    1.159355
      5          1           0       -0.000000    0.995985    0.000000
      6          1           0       -0.000000   -0.995985   -0.000000
      7          1           0        0.000000    0.000000   -0.579677
      8          1           0        0.000000    0.995985   -1.159355
      9          1           0       -0.000000   -0.995985   -1.159355
     10          1           0        0.000000    0.000000   -1.739032
 ---------------------------------------------------------------------

 SCF Done:  E(RHF) =  -4.94534811950     A.U. after    9 cycles
 E2 =    -0.1014939134D+00 EUMP2 =    -0.50468420328843D+01

 The electronic state is 1-AG.
 Alpha  occ. eigenvalues --   -0.96698  -0.72781  -0.60927  -0.40169  -0.33930
 Alpha virt. eigenvalues --    0.11127   0.21328   0.26767   0.40458   0.60420

 Mulliken charges:
               1
     1  H   -0.096464
     2  H    0.005909
     3  H    0.102897
     4  H   -0.096464
     5  H    0.084122
     6  H    0.084122
     7  H    0.102897
     8  H   -0.096464
     9  H   -0.096464
    10  H    0.005909
 Sum of Mulliken charges =   0.00000

 Dipole moment (field-independent basis, Debye):
    X=              0.0000    Y=             -0.0000    Z=              0.0000  Tot=              0.0000
 Quadrupole moment (field-independent basis, Debye-Ang):
   XX=            -12.8455   YY=            -15.4582   ZZ=            -18.6845
   XY=             -0.0000   XZ=              0.0000   YZ=             -0.0000

 Normal termination of Gaussian 09 at Thu Feb  9 16:17:00 2017.
