 Gaussian 09, Revision E.01,
 Gaussian 09:  ES64L-G09RevE.01 30-Nov-2015

 ----------------------------------------------------------------------
 #rhf/gen scf(symm,tight,novaracc,noincfock,fulldiag) stable(crhf) geom
 =nocrowd test
 ----------------------------------------------------------------------

 hf stability analysis of h10 triangular lattice, y= 0.7930727965047464
 9
 ----------------------------------------------------------------------
 Symbolic Z-matrix:
 Charge =  0 Multiplicity = 1

                         Standard orientation:
 ---------------------------------------------------------------------
 Center     Atomic      Atomic             Coordinates (Angstroms)
 Number     Number       Type             X           Y           Z
 ---------------------------------------------------------------------
      1          1           0       -0.000000    0.793073    1.455983
      2          1           0        0.000000    0.000000    2.183975
      3          1           0        0.000000    0.000000    0.727992
      4          1           0       -0.000000   -0.793073    1.455983
      5          1           0       -0.000000    0.793073   -0.000000
      6          1           0       -0.000000   -0.793073    0.000000
      7          1           0        0.000000   -0.000000   -0.727992
      8          1           0        0.000000    0.793073   -1.455983
      9          1           0       -0.000000   -0.793073   -1.455983
     10          1           0        0.000000   -0.000000   -2.183975
 ---------------------------------------------------------------------

 SCF Done:  E(RHF) =  -4.89924227520     A.U. after    8 cycles
 E2 =    -0.9662021186D-01 EUMP2 =    -0.49958624870589D+01

 The electronic state is 1-AG.
 Alpha  occ. eigenvalues --   -0.92296  -0.74894  -0.50504  -0.48905  -0.29131
 Alpha virt. eigenvalues --    0.00844   0.16164   0.39069   0.45856   0.54677

 Mulliken charges:
               1
     1  H   -0.189734
     2  H    0.194887
     3  H    0.130267
     4  H   -0.189734
     5  H    0.054314
     6  H    0.054314
     7  H    0.130267
     8  H   -0.189734
     9  H   -0.189734
    10  H    0.194887
 Sum of Mulliken charges =   0.00000

 Dipole moment (field-independent basis, Debye):
    X=              0.0000    Y=             -0.0000    Z=              0.0000  Tot=              0.0000
 Quadrupole moment (field-independent basis, Debye-Ang):
   XX=            -12.9818   YY=            -18.1592   ZZ=            -12.5773
   XY=             -0.0000   XZ=             -0.0000   YZ=              0.0000

 Normal termination of Gaussian 09 at Thu Feb  9 16:08:25 2017.
