 Gaussian 09, Revision E.01,
 Gaussian 09:  ES64L-G09RevE.01 30-Nov-2015

 ----------------------------------------------------------------------
 #rhf/gen scf(symm,tight,novaracc,noincfock,fulldiag) stable(crhf) geom
 =nocrowd test
 ----------------------------------------------------------------------

 hf stability analysis of h10 triangular lattice, y= 0.9528935276469949
 8
 ----------------------------------------------------------------------
 Symbolic Z-matrix:
 Charge =  0 Multiplicity = 1

                         Standard orientation:
 ---------------------------------------------------------------------
 Center     Atomic      Atomic             Coordinates (Angstroms)
 Number     Number       Type             X           Y           Z
 ---------------------------------------------------------------------
      1          1           0        0.000000    0.952894    1.211783
      2          1           0       -0.000000    0.000000    1.817675
      3          1           0       -0.000000    0.000000    0.605892
      4          1           0       -0.000000   -0.952894    1.211783
      5          1           0       -0.000000    0.952894    0.000000
      6          1           0       -0.000000   -0.952894   -0.000000
      7          1           0        0.000000    0.000000   -0.605892
      8          1           0        0.000000    0.952894   -1.211783
      9          1           0       -0.000000   -0.952894   -1.211783
     10          1           0        0.000000    0.000000   -1.817675
 ---------------------------------------------------------------------

 SCF Done:  E(RHF) =  -4.96511651453     A.U. after    8 cycles
 E2 =    -0.9904996168D-01 EUMP2 =    -0.50641664762070D+01

 The electronic state is 1-AG.
 Alpha  occ. eigenvalues --   -0.96141  -0.73593  -0.58793  -0.42568  -0.33410
 Alpha virt. eigenvalues --    0.16923   0.17427   0.24004   0.43630   0.57218

 Mulliken charges:
               1
     1  H   -0.114617
     2  H    0.044920
     3  H    0.099057
     4  H   -0.114617
     5  H    0.085257
     6  H    0.085257
     7  H    0.099057
     8  H   -0.114617
     9  H   -0.114617
    10  H    0.044920
 Sum of Mulliken charges =   0.00000

 Dipole moment (field-independent basis, Debye):
    X=              0.0000    Y=              0.0000    Z=              0.0000  Tot=              0.0000
 Quadrupole moment (field-independent basis, Debye-Ang):
   XX=            -12.8758   YY=            -16.0576   ZZ=            -17.7251
   XY=             -0.0000   XZ=              0.0000   YZ=             -0.0000

 Normal termination of Gaussian 09 at Thu Feb  9 16:15:31 2017.
