 Gaussian 09, Revision E.01,
 Gaussian 09:  ES64L-G09RevE.01 30-Nov-2015

 ----------------------------------------------------------------------
 #rhf/gen scf(symm,tight,novaracc,noincfock,fulldiag) stable(crhf) geom
 =nocrowd test
 ----------------------------------------------------------------------

 ----------------------------------------------------------------------
 hf stability analysis of h10 triangular lattice, y= 1.0071039844440590
 ----------------------------------------------------------------------
 Symbolic Z-matrix:
 Charge =  0 Multiplicity = 1

                         Standard orientation:
 ---------------------------------------------------------------------
 Center     Atomic      Atomic             Coordinates (Angstroms)
 Number     Number       Type             X           Y           Z
 ---------------------------------------------------------------------
      1          1           0        0.000000    1.007104    1.146555
      2          1           0       -0.000000    0.000000    1.719833
      3          1           0       -0.000000    0.000000    0.573278
      4          1           0       -0.000000   -1.007104    1.146555
      5          1           0       -0.000000    1.007104   -0.000000
      6          1           0       -0.000000   -1.007104    0.000000
      7          1           0        0.000000   -0.000000   -0.573278
      8          1           0        0.000000    1.007104   -1.146555
      9          1           0       -0.000000   -1.007104   -1.146555
     10          1           0        0.000000   -0.000000   -1.719833
 ---------------------------------------------------------------------

 SCF Done:  E(RHF) =  -4.93778765259     A.U. after    9 cycles
 E2 =    -0.1022521430D+00 EUMP2 =    -0.50400397956114D+01

 The electronic state is 1-AG.
 Alpha  occ. eigenvalues --   -0.96817  -0.72551  -0.61448  -0.39536  -0.34029
 Alpha virt. eigenvalues --    0.09580   0.22349   0.27514   0.39802   0.61152

 Mulliken charges:
               1
     1  H   -0.091633
     2  H   -0.004262
     3  H    0.104423
     4  H   -0.091633
     5  H    0.083106
     6  H    0.083106
     7  H    0.104423
     8  H   -0.091633
     9  H   -0.091633
    10  H   -0.004262
 Sum of Mulliken charges =  -0.00000

 Dipole moment (field-independent basis, Debye):
    X=              0.0000    Y=              0.0000    Z=              0.0000  Tot=              0.0000
 Quadrupole moment (field-independent basis, Debye-Ang):
   XX=            -12.8375   YY=            -15.3009   ZZ=            -18.9097
   XY=             -0.0000   XZ=              0.0000   YZ=             -0.0000

 Normal termination of Gaussian 09 at Thu Feb  9 16:17:23 2017.
