 Gaussian 09, Revision E.01,
 Gaussian 09:  ES64L-G09RevE.01 30-Nov-2015

 ----------------------------------------------------------------------
 #rhf/gen scf(symm,tight,novaracc,noincfock,fulldiag) stable(crhf) geom
 =nocrowd test
 ----------------------------------------------------------------------

 ----------------------------------------------------------------------
 hf stability analysis of h10 triangular lattice, y= 2.0016329418668652
 ----------------------------------------------------------------------
 Symbolic Z-matrix:
 Charge =  0 Multiplicity = 1

                         Standard orientation:
 ---------------------------------------------------------------------
 Center     Atomic      Atomic             Coordinates (Angstroms)
 Number     Number       Type             X           Y           Z
 ---------------------------------------------------------------------
      1          1           0        0.000000    2.001633    0.576879
      2          1           0        0.000000    0.000000    0.865319
      3          1           0        0.000000    0.000000    0.288440
      4          1           0       -0.000000   -2.001633    0.576879
      5          1           0       -0.000000    2.001633   -0.000000
      6          1           0       -0.000000   -2.001633    0.000000
      7          1           0        0.000000   -0.000000   -0.288440
      8          1           0        0.000000    2.001633   -0.576879
      9          1           0       -0.000000   -2.001633   -0.576879
     10          1           0        0.000000   -0.000000   -0.865319
 ---------------------------------------------------------------------

 SCF Done:  E(RHF) =  -4.11234983393     A.U. after    7 cycles
 E2 =    -0.1658474158D+00 EUMP2 =    -0.42781972497529D+01

 The electronic state is 1-AG.
 Alpha  occ. eigenvalues --   -1.00621  -0.85699  -0.84239  -0.55480  -0.17823
 Alpha virt. eigenvalues --   -0.01911   0.41411   1.19388   1.22568   1.82707

 Mulliken charges:
               1
     1  H    0.176479
     2  H    0.225414
     3  H   -0.185542
     4  H    0.176479
     5  H   -0.392831
     6  H   -0.392831
     7  H   -0.185542
     8  H    0.176479
     9  H    0.176479
    10  H    0.225414
 Sum of Mulliken charges =  -0.00000

 Dipole moment (field-independent basis, Debye):
    X=              0.0000    Y=             -0.0000    Z=             -0.0000  Tot=              0.0000
 Quadrupole moment (field-independent basis, Debye-Ang):
   XX=            -12.3647   YY=            -15.5370   ZZ=            -14.3329
   XY=             -0.0000   XZ=              0.0000   YZ=              0.0000

 Normal termination of Gaussian 09 at Thu Feb  9 16:32:25 2017.
