 Gaussian 09, Revision E.01,
 Gaussian 09:  ES64L-G09RevE.01 30-Nov-2015

 ----------------------------------------------------------------------
 #rhf/gen scf(symm,tight,novaracc,noincfock,fulldiag) stable(crhf) geom
 =nocrowd test
 ----------------------------------------------------------------------

 hf stability analysis of h10 triangular lattice, y= 0.7678350797278717
 9
 ----------------------------------------------------------------------
 Symbolic Z-matrix:
 Charge =  0 Multiplicity = 1

                         Standard orientation:
 ---------------------------------------------------------------------
 Center     Atomic      Atomic             Coordinates (Angstroms)
 Number     Number       Type             X           Y           Z
 ---------------------------------------------------------------------
      1          1           0       -0.000000    0.767835    1.503839
      2          1           0       -0.000000    0.000000    2.255759
      3          1           0       -0.000000    0.000000    0.751920
      4          1           0       -0.000000   -0.767835    1.503839
      5          1           0       -0.000000    0.767835    0.000000
      6          1           0       -0.000000   -0.767835   -0.000000
      7          1           0        0.000000    0.000000   -0.751920
      8          1           0        0.000000    0.767835   -1.503839
      9          1           0       -0.000000   -0.767835   -1.503839
     10          1           0        0.000000    0.000000   -2.255759
 ---------------------------------------------------------------------

 SCF Done:  E(RHF) =  -4.86822084954     A.U. after    8 cycles
 E2 =    -0.9721839247D-01 EUMP2 =    -0.49654392420095D+01

 The electronic state is 1-AG.
 Alpha  occ. eigenvalues --   -0.91362  -0.74756  -0.51561  -0.46976  -0.28019
 Alpha virt. eigenvalues --   -0.01288   0.15377   0.35781   0.50405   0.55149

 Mulliken charges:
               1
     1  H   -0.204223
     2  H    0.219930
     3  H    0.145990
     4  H   -0.204223
     5  H    0.042525
     6  H    0.042525
     7  H    0.145990
     8  H   -0.204223
     9  H   -0.204223
    10  H    0.219930
 Sum of Mulliken charges =   0.00000

 Dipole moment (field-independent basis, Debye):
    X=              0.0000    Y=              0.0000    Z=              0.0000  Tot=              0.0000
 Quadrupole moment (field-independent basis, Debye-Ang):
   XX=            -12.9978   YY=            -18.4704   ZZ=            -11.4538
   XY=             -0.0000   XZ=             -0.0000   YZ=             -0.0000

 Normal termination of Gaussian 09 at Thu Feb  9 16:07:05 2017.
