 Gaussian 09, Revision E.01,
 Gaussian 09:  ES64L-G09RevE.01 30-Nov-2015

 ----------------------------------------------------------------------
 #rhf/gen scf(symm,tight,novaracc,noincfock,fulldiag) stable(crhf) geom
 =nocrowd test
 ----------------------------------------------------------------------

 ----------------------------------------------------------------------
 hf stability analysis of h10 triangular lattice, y= 1.2526740377218175
 ----------------------------------------------------------------------
 Symbolic Z-matrix:
 Charge =  0 Multiplicity = 1

                         Standard orientation:
 ---------------------------------------------------------------------
 Center     Atomic      Atomic             Coordinates (Angstroms)
 Number     Number       Type             X           Y           Z
 ---------------------------------------------------------------------
      1          1           0        0.000000    1.252674    0.921789
      2          1           0       -0.000000   -0.000000    1.382683
      3          1           0       -0.000000   -0.000000    0.460894
      4          1           0       -0.000000   -1.252674    0.921789
      5          1           0       -0.000000    1.252674    0.000000
      6          1           0       -0.000000   -1.252674   -0.000000
      7          1           0        0.000000    0.000000   -0.460894
      8          1           0        0.000000    1.252674   -0.921789
      9          1           0       -0.000000   -1.252674   -0.921789
     10          1           0        0.000000    0.000000   -1.382683
 ---------------------------------------------------------------------

 SCF Done:  E(RHF) =  -4.92351280553     A.U. after    8 cycles
 E2 =    -0.9144540473D-01 EUMP2 =    -0.50149582102615D+01

 The electronic state is 1-AG.
 Alpha  occ. eigenvalues --   -0.94416  -0.68494  -0.66092  -0.44281  -0.30345
 Alpha virt. eigenvalues --    0.01090   0.13654   0.55840   0.64052   0.76901

 Mulliken charges:
               1
     1  H   -0.085069
     2  H    0.291060
     3  H   -0.043737
     4  H   -0.085069
     5  H   -0.077184
     6  H   -0.077184
     7  H   -0.043737
     8  H   -0.085069
     9  H   -0.085069
    10  H    0.291060
 Sum of Mulliken charges =   0.00000

 Dipole moment (field-independent basis, Debye):
    X=              0.0000    Y=             -0.0000    Z=              0.0000  Tot=              0.0000
 Quadrupole moment (field-independent basis, Debye-Ang):
   XX=            -12.6067   YY=            -21.3023   ZZ=             -9.8731
   XY=             -0.0000   XZ=             -0.0000   YZ=             -0.0000

 Normal termination of Gaussian 09 at Thu Feb  9 16:24:03 2017.
