 Gaussian 09, Revision E.01,
 Gaussian 09:  ES64L-G09RevE.01 30-Nov-2015

 ----------------------------------------------------------------------
 #rhf/gen scf(symm,tight,novaracc,noincfock,fulldiag) stable(crhf) geom
 =nocrowd test
 ----------------------------------------------------------------------

 hf stability analysis of h10 triangular lattice, y= 0.8466387197876653
 6
 ----------------------------------------------------------------------
 Symbolic Z-matrix:
 Charge =  0 Multiplicity = 1

                         Standard orientation:
 ---------------------------------------------------------------------
 Center     Atomic      Atomic             Coordinates (Angstroms)
 Number     Number       Type             X           Y           Z
 ---------------------------------------------------------------------
      1          1           0        0.000000    0.846639    1.363865
      2          1           0        0.000000    0.000000    2.045797
      3          1           0        0.000000    0.000000    0.681932
      4          1           0       -0.000000   -0.846639    1.363865
      5          1           0       -0.000000    0.846639    0.000000
      6          1           0       -0.000000   -0.846639    0.000000
      7          1           0        0.000000   -0.000000   -0.681932
      8          1           0        0.000000    0.846639   -1.363865
      9          1           0       -0.000000   -0.846639   -1.363865
     10          1           0        0.000000   -0.000000   -2.045797
 ---------------------------------------------------------------------

 SCF Done:  E(RHF) =  -4.94625827837     A.U. after    8 cycles
 E2 =    -0.9626723100D-01 EUMP2 =    -0.50425255093757D+01

 The electronic state is 1-AG.
 Alpha  occ. eigenvalues --   -0.93952  -0.74834  -0.52625  -0.48054  -0.31049
 Alpha virt. eigenvalues --    0.05829   0.18292   0.35157   0.46595   0.52020

 Mulliken charges:
               1
     1  H   -0.161874
     2  H    0.143041
     3  H    0.108757
     4  H   -0.161874
     5  H    0.071950
     6  H    0.071950
     7  H    0.108757
     8  H   -0.161874
     9  H   -0.161874
    10  H    0.143041
 Sum of Mulliken charges =  -0.00000

 Dipole moment (field-independent basis, Debye):
    X=              0.0000    Y=             -0.0000    Z=             -0.0000  Tot=              0.0000
 Quadrupole moment (field-independent basis, Debye-Ang):
   XX=            -12.9469   YY=            -17.4764   ZZ=            -14.6405
   XY=             -0.0000   XZ=             -0.0000   YZ=              0.0000

 Normal termination of Gaussian 09 at Thu Feb  9 16:11:00 2017.
