 Gaussian 09, Revision E.01,
 Gaussian 09:  ES64L-G09RevE.01 30-Nov-2015

 ----------------------------------------------------------------------
 #rhf/gen scf(symm,tight,novaracc,noincfock,fulldiag) stable(crhf) geom
 =nocrowd test
 ----------------------------------------------------------------------

 ----------------------------------------------------------------------
 hf stability analysis of h10 triangular lattice, y= 2.3636635337217689
 ----------------------------------------------------------------------
 Symbolic Z-matrix:
 Charge =  0 Multiplicity = 1

                         Standard orientation:
 ---------------------------------------------------------------------
 Center     Atomic      Atomic             Coordinates (Angstroms)
 Number     Number       Type             X           Y           Z
 ---------------------------------------------------------------------
      1          1           0        0.000000    2.363664    0.488522
      2          1           0        0.000000    0.000000    0.732782
      3          1           0        0.000000    0.000000    0.244261
      4          1           0       -0.000000   -2.363664    0.488522
      5          1           0       -0.000000    2.363664   -0.000000
      6          1           0       -0.000000   -2.363664    0.000000
      7          1           0        0.000000   -0.000000   -0.244261
      8          1           0        0.000000    2.363664   -0.488522
      9          1           0       -0.000000   -2.363664   -0.488522
     10          1           0        0.000000   -0.000000   -0.732782
 ---------------------------------------------------------------------

 SCF Done:  E(RHF) =  -3.24636401967     A.U. after    7 cycles
 E2 =    -0.2454559809D+00 EUMP2 =    -0.34918200005896D+01

 The electronic state is 1-AG.
 Alpha  occ. eigenvalues --   -1.06981  -0.92055  -0.92041  -0.53653  -0.12619
 Alpha virt. eigenvalues --   -0.00765   0.57514   1.49380   1.50705   2.46871

 Mulliken charges:
               1
     1  H    0.305933
     2  H    0.302074
     3  H   -0.292671
     4  H    0.305933
     5  H   -0.621269
     6  H   -0.621269
     7  H   -0.292671
     8  H    0.305933
     9  H    0.305933
    10  H    0.302074
 Sum of Mulliken charges =  -0.00000

 Dipole moment (field-independent basis, Debye):
    X=              0.0000    Y=              0.0000    Z=              0.0000  Tot=              0.0000
 Quadrupole moment (field-independent basis, Debye-Ang):
   XX=            -12.1540   YY=            -13.5696   ZZ=            -14.8331
   XY=              0.0000   XZ=              0.0000   YZ=              0.0000

 Normal termination of Gaussian 09 at Thu Feb  9 16:34:01 2017.
