 Gaussian 09, Revision E.01,
 Gaussian 09:  ES64L-G09RevE.01 30-Nov-2015

 ----------------------------------------------------------------------
 #rhf/gen scf(symm,tight,novaracc,noincfock,fulldiag) stable(crhf) geom
 =nocrowd test
 ----------------------------------------------------------------------

 ----------------------------------------------------------------------
 hf stability analysis of h10 triangular lattice, y= 2.2868264616451803
 ----------------------------------------------------------------------
 Symbolic Z-matrix:
 Charge =  0 Multiplicity = 1

                         Standard orientation:
 ---------------------------------------------------------------------
 Center     Atomic      Atomic             Coordinates (Angstroms)
 Number     Number       Type             X           Y           Z
 ---------------------------------------------------------------------
      1          1           0        0.000000    2.286826    0.504936
      2          1           0        0.000000    0.000000    0.757404
      3          1           0        0.000000    0.000000    0.252468
      4          1           0       -0.000000   -2.286826    0.504936
      5          1           0       -0.000000    2.286826   -0.000000
      6          1           0       -0.000000   -2.286826    0.000000
      7          1           0        0.000000   -0.000000   -0.252468
      8          1           0        0.000000    2.286826   -0.504936
      9          1           0       -0.000000   -2.286826   -0.504936
     10          1           0        0.000000   -0.000000   -0.757404
 ---------------------------------------------------------------------

 SCF Done:  E(RHF) =  -3.44429286431     A.U. after    7 cycles
 E2 =    -0.2285663819D+00 EUMP2 =    -0.36728592462497D+01

 The electronic state is 1-AG.
 Alpha  occ. eigenvalues --   -1.05463  -0.90785  -0.90671  -0.53939  -0.13671
 Alpha virt. eigenvalues --   -0.01197   0.54285   1.43005   1.44584   2.32896

 Mulliken charges:
               1
     1  H    0.278435
     2  H    0.280807
     3  H   -0.267890
     4  H    0.278435
     5  H   -0.569786
     6  H   -0.569786
     7  H   -0.267890
     8  H    0.278435
     9  H    0.278435
    10  H    0.280807
 Sum of Mulliken charges =   0.00000

 Dipole moment (field-independent basis, Debye):
    X=              0.0000    Y=             -0.0000    Z=             -0.0000  Tot=              0.0000
 Quadrupole moment (field-independent basis, Debye-Ang):
   XX=            -12.1977   YY=            -13.8857   ZZ=            -14.7551
   XY=              0.0000   XZ=              0.0000   YZ=             -0.0000

 Normal termination of Gaussian 09 at Thu Feb  9 16:33:44 2017.
