 Gaussian 09, Revision E.01,
 Gaussian 09:  ES64L-G09RevE.01 30-Nov-2015

 ----------------------------------------------------------------------
 #rhf/gen scf(symm,tight,novaracc,noincfock,fulldiag) stable(crhf) geom
 =nocrowd test
 ----------------------------------------------------------------------

 hf stability analysis of h10 triangular lattice, y= 0.8988453699635604
 6
 ----------------------------------------------------------------------
 Symbolic Z-matrix:
 Charge =  0 Multiplicity = 1

                         Standard orientation:
 ---------------------------------------------------------------------
 Center     Atomic      Atomic             Coordinates (Angstroms)
 Number     Number       Type             X           Y           Z
 ---------------------------------------------------------------------
      1          1           0       -0.000000    0.898845    1.284649
      2          1           0        0.000000   -0.000000    1.926973
      3          1           0        0.000000   -0.000000    0.642324
      4          1           0       -0.000000   -0.898845    1.284649
      5          1           0       -0.000000    0.898845    0.000000
      6          1           0       -0.000000   -0.898845   -0.000000
      7          1           0        0.000000    0.000000   -0.642324
      8          1           0        0.000000    0.898845   -1.284649
      9          1           0       -0.000000   -0.898845   -1.284649
     10          1           0        0.000000    0.000000   -1.926973
 ---------------------------------------------------------------------

 SCF Done:  E(RHF) =  -4.96776279035     A.U. after    8 cycles
 E2 =    -0.9706287737D-01 EUMP2 =    -0.50648256677221D+01

 The electronic state is 1-AG.
 Alpha  occ. eigenvalues --   -0.95190  -0.74383  -0.55834  -0.45447  -0.32422
 Alpha virt. eigenvalues --    0.11159   0.20879   0.26071   0.48097   0.52291

 Mulliken charges:
               1
     1  H   -0.137724
     2  H    0.094186
     3  H    0.099783
     4  H   -0.137724
     5  H    0.081479
     6  H    0.081479
     7  H    0.099783
     8  H   -0.137724
     9  H   -0.137724
    10  H    0.094186
 Sum of Mulliken charges =  -0.00000

 Dipole moment (field-independent basis, Debye):
    X=              0.0000    Y=             -0.0000    Z=              0.0000  Tot=              0.0000
 Quadrupole moment (field-independent basis, Debye-Ang):
   XX=            -12.9124   YY=            -16.7891   ZZ=            -16.3003
   XY=             -0.0000   XZ=              0.0000   YZ=              0.0000

 Normal termination of Gaussian 09 at Thu Feb  9 16:13:19 2017.
