 Gaussian 09, Revision E.01,
 Gaussian 09:  ES64L-G09RevE.01 30-Nov-2015

 ----------------------------------------------------------------------
 #rhf/gen scf(symm,tight,novaracc,noincfock,fulldiag) stable(crhf) geom
 =nocrowd test
 ----------------------------------------------------------------------

 hf stability analysis of h10 triangular lattice, y= 0.8128126101135343
 4
 ----------------------------------------------------------------------
 Symbolic Z-matrix:
 Charge =  0 Multiplicity = 1

                         Standard orientation:
 ---------------------------------------------------------------------
 Center     Atomic      Atomic             Coordinates (Angstroms)
 Number     Number       Type             X           Y           Z
 ---------------------------------------------------------------------
      1          1           0       -0.000000    0.812813    1.420623
      2          1           0       -0.000000   -0.000000    2.130935
      3          1           0       -0.000000   -0.000000    0.710312
      4          1           0       -0.000000   -0.812813    1.420623
      5          1           0       -0.000000    0.812813    0.000000
      6          1           0       -0.000000   -0.812813   -0.000000
      7          1           0        0.000000    0.000000   -0.710312
      8          1           0        0.000000    0.812813   -1.420623
      9          1           0       -0.000000   -0.812813   -1.420623
     10          1           0        0.000000    0.000000   -2.130935
 ---------------------------------------------------------------------

 SCF Done:  E(RHF) =  -4.91952883448     A.U. after    8 cycles
 E2 =    -0.9634874045D-01 EUMP2 =    -0.50158775749375D+01

 The electronic state is 1-AG.
 Alpha  occ. eigenvalues --   -0.92956  -0.74925  -0.50332  -0.49631  -0.29904
 Alpha virt. eigenvalues --    0.02613   0.16880   0.40315   0.43496   0.53925

 Mulliken charges:
               1
     1  H   -0.179037
     2  H    0.175569
     3  H    0.120610
     4  H   -0.179037
     5  H    0.061894
     6  H    0.061894
     7  H    0.120610
     8  H   -0.179037
     9  H   -0.179037
    10  H    0.175569
 Sum of Mulliken charges =   0.00000

 Dipole moment (field-independent basis, Debye):
    X=              0.0000    Y=             -0.0000    Z=             -0.0000  Tot=              0.0000
 Quadrupole moment (field-independent basis, Debye-Ang):
   XX=            -12.9690   YY=            -17.9107   ZZ=            -13.3853
   XY=             -0.0000   XZ=             -0.0000   YZ=             -0.0000

 Normal termination of Gaussian 09 at Thu Feb  9 16:09:24 2017.
