 Gaussian 09, Revision E.01,
 Gaussian 09:  ES64L-G09RevE.01 30-Nov-2015

 ----------------------------------------------------------------------
 #rhf/gen scf(symm,tight,novaracc,noincfock,fulldiag) stable(crhf) geom
 =nocrowd test
 ----------------------------------------------------------------------

 ----------------------------------------------------------------------
 hf stability analysis of h10 triangular lattice, y= 1.0431336090657632
 ----------------------------------------------------------------------
 Symbolic Z-matrix:
 Charge =  0 Multiplicity = 1

                         Standard orientation:
 ---------------------------------------------------------------------
 Center     Atomic      Atomic             Coordinates (Angstroms)
 Number     Number       Type             X           Y           Z
 ---------------------------------------------------------------------
      1          1           0        0.000000    1.043134    1.106954
      2          1           0        0.000000    0.000000    1.660431
      3          1           0        0.000000    0.000000    0.553477
      4          1           0       -0.000000   -1.043134    1.106954
      5          1           0       -0.000000    1.043134   -0.000000
      6          1           0       -0.000000   -1.043134    0.000000
      7          1           0        0.000000   -0.000000   -0.553477
      8          1           0        0.000000    1.043134   -1.106954
      9          1           0       -0.000000   -1.043134   -1.106954
     10          1           0        0.000000   -0.000000   -1.660431
 ---------------------------------------------------------------------

 SCF Done:  E(RHF) =  -4.90663957547     A.U. after    9 cycles
 E2 =    -0.1050900185D+00 EUMP2 =    -0.50117295939230D+01

 The electronic state is 1-AG.
 Alpha  occ. eigenvalues --   -0.97143  -0.71766  -0.63064  -0.37448  -0.34254
 Alpha virt. eigenvalues --    0.04777   0.24861   0.30026   0.38615   0.63298

 Mulliken charges:
               1
     1  H   -0.074608
     2  H   -0.038322
     3  H    0.110956
     4  H   -0.074608
     5  H    0.076582
     6  H    0.076582
     7  H    0.110956
     8  H   -0.074608
     9  H   -0.074608
    10  H   -0.038322
 Sum of Mulliken charges =  -0.00000

 Dipole moment (field-independent basis, Debye):
    X=             -0.0000    Y=             -0.0000    Z=             -0.0000  Tot=              0.0000
 Quadrupole moment (field-independent basis, Debye-Ang):
   XX=            -12.8104   YY=            -14.7825   ZZ=            -19.5802
   XY=             -0.0000   XZ=              0.0000   YZ=             -0.0000

 Normal termination of Gaussian 09 at Thu Feb  9 16:18:35 2017.
