 Gaussian 09, Revision E.01,
 Gaussian 09:  ES64L-G09RevE.01 30-Nov-2015

 ----------------------------------------------------------------------
 #rhf/gen scf(symm,tight,novaracc,noincfock,fulldiag) stable(crhf) geom
 =nocrowd test
 ----------------------------------------------------------------------

 ----------------------------------------------------------------------
 hf stability analysis of h10 triangular lattice, y= 1.8624453168668675
 ----------------------------------------------------------------------
 Symbolic Z-matrix:
 Charge =  0 Multiplicity = 1

                         Standard orientation:
 ---------------------------------------------------------------------
 Center     Atomic      Atomic             Coordinates (Angstroms)
 Number     Number       Type             X           Y           Z
 ---------------------------------------------------------------------
      1          1           0       -0.000000    1.862445    0.619992
      2          1           0       -0.000000    0.000000    0.929988
      3          1           0       -0.000000    0.000000    0.309996
      4          1           0       -0.000000   -1.862445    0.619992
      5          1           0       -0.000000    1.862445    0.000000
      6          1           0       -0.000000   -1.862445   -0.000000
      7          1           0        0.000000    0.000000   -0.309996
      8          1           0        0.000000    1.862445   -0.619992
      9          1           0       -0.000000   -1.862445   -0.619992
     10          1           0        0.000000    0.000000   -0.929988
 ---------------------------------------------------------------------

 SCF Done:  E(RHF) =  -4.39134870268     A.U. after    7 cycles
 E2 =    -0.1379257662D+00 EUMP2 =    -0.45292744688722D+01

 The electronic state is 1-AG.
 Alpha  occ. eigenvalues --   -0.98941  -0.82997  -0.79903  -0.56673  -0.20042
 Alpha virt. eigenvalues --   -0.01455   0.34499   1.07849   1.12433   1.59032

 Mulliken charges:
               1
     1  H    0.125105
     2  H    0.216081
     3  H   -0.151145
     4  H    0.125105
     5  H   -0.315147
     6  H   -0.315147
     7  H   -0.151145
     8  H    0.125105
     9  H    0.125105
    10  H    0.216081
 Sum of Mulliken charges =   0.00000

 Dipole moment (field-independent basis, Debye):
    X=              0.0000    Y=             -0.0000    Z=              0.0000  Tot=              0.0000
 Quadrupole moment (field-independent basis, Debye-Ang):
   XX=            -12.4446   YY=            -16.6283   ZZ=            -13.9944
   XY=             -0.0000   XZ=              0.0000   YZ=              0.0000

 Normal termination of Gaussian 09 at Thu Feb  9 16:31:33 2017.
