 Gaussian 09, Revision E.01,
 Gaussian 09:  ES64L-G09RevE.01 30-Nov-2015

 ----------------------------------------------------------------------
 #rhf/gen scf(symm,tight,novaracc,noincfock,fulldiag) stable(crhf) geom
 =nocrowd test
 ----------------------------------------------------------------------

 ----------------------------------------------------------------------
 hf stability analysis of h10 triangular lattice, y= 1.6697064209227548
 ----------------------------------------------------------------------
 Symbolic Z-matrix:
 Charge =  0 Multiplicity = 1

                         Standard orientation:
 ---------------------------------------------------------------------
 Center     Atomic      Atomic             Coordinates (Angstroms)
 Number     Number       Type             X           Y           Z
 ---------------------------------------------------------------------
      1          1           0        0.000000    1.669706    0.691559
      2          1           0        0.000000   -0.000000    1.037339
      3          1           0        0.000000   -0.000000    0.345779
      4          1           0       -0.000000   -1.669706    0.691559
      5          1           0       -0.000000    1.669706    0.000000
      6          1           0       -0.000000   -1.669706   -0.000000
      7          1           0        0.000000    0.000000   -0.345779
      8          1           0        0.000000    1.669706   -0.691559
      9          1           0       -0.000000   -1.669706   -0.691559
     10          1           0        0.000000    0.000000   -1.037339
 ---------------------------------------------------------------------

 SCF Done:  E(RHF) =  -4.70786154630     A.U. after    7 cycles
 E2 =    -0.1075114088D+00 EUMP2 =    -0.48153729551016D+01

 The electronic state is 1-AG.
 Alpha  occ. eigenvalues --   -0.97313  -0.79001  -0.72019  -0.58944  -0.23365
 Alpha virt. eigenvalues --    0.00576   0.24282   0.91723   0.99419   1.27215

 Mulliken charges:
               1
     1  H    0.051573
     2  H    0.225397
     3  H   -0.110384
     4  H    0.051573
     5  H   -0.218159
     6  H   -0.218159
     7  H   -0.110384
     8  H    0.051573
     9  H    0.051573
    10  H    0.225397
 Sum of Mulliken charges =   0.00000

 Dipole moment (field-independent basis, Debye):
    X=              0.0000    Y=              0.0000    Z=             -0.0000  Tot=              0.0000
 Quadrupole moment (field-independent basis, Debye-Ang):
   XX=            -12.5413   YY=            -18.3196   ZZ=            -13.2561
   XY=             -0.0000   XZ=             -0.0000   YZ=              0.0000

 Normal termination of Gaussian 09 at Thu Feb  9 16:29:59 2017.
