 Gaussian 09, Revision E.01,
 Gaussian 09:  ES64L-G09RevE.01 30-Nov-2015

 ----------------------------------------------------------------------
 #rhf/gen scf(symm,tight,novaracc,noincfock,fulldiag) stable(crhf) geom
 =nocrowd test
 ----------------------------------------------------------------------

 hf stability analysis of h10 triangular lattice, y= 0.7745680896380032
 8
 ----------------------------------------------------------------------
 Symbolic Z-matrix:
 Charge =  0 Multiplicity = 1

                         Standard orientation:
 ---------------------------------------------------------------------
 Center     Atomic      Atomic             Coordinates (Angstroms)
 Number     Number       Type             X           Y           Z
 ---------------------------------------------------------------------
      1          1           0        0.000000    0.774568    1.490767
      2          1           0        0.000000    0.000000    2.236151
      3          1           0        0.000000    0.000000    0.745383
      4          1           0       -0.000000   -0.774568    1.490767
      5          1           0       -0.000000    0.774568   -0.000000
      6          1           0       -0.000000   -0.774568    0.000000
      7          1           0        0.000000   -0.000000   -0.745383
      8          1           0        0.000000    0.774568   -1.490767
      9          1           0       -0.000000   -0.774568   -1.490767
     10          1           0        0.000000   -0.000000   -2.236151
 ---------------------------------------------------------------------

 SCF Done:  E(RHF) =  -4.87705905158     A.U. after    8 cycles
 E2 =    -0.9703046871D-01 EUMP2 =    -0.49740895202912D+01

 The electronic state is 1-AG.
 Alpha  occ. eigenvalues --   -0.91621  -0.74804  -0.51286  -0.47503  -0.28329
 Alpha virt. eigenvalues --   -0.00734   0.15572   0.36697   0.49176   0.55082

 Mulliken charges:
               1
     1  H   -0.200265
     2  H    0.213213
     3  H    0.141403
     4  H   -0.200265
     5  H    0.045913
     6  H    0.045913
     7  H    0.141403
     8  H   -0.200265
     9  H   -0.200265
    10  H    0.213213
 Sum of Mulliken charges =   0.00000

 Dipole moment (field-independent basis, Debye):
    X=              0.0000    Y=             -0.0000    Z=              0.0000  Tot=              0.0000
 Quadrupole moment (field-independent basis, Debye-Ang):
   XX=            -12.9936   YY=            -18.3882   ZZ=            -11.7640
   XY=             -0.0000   XZ=             -0.0000   YZ=             -0.0000

 Normal termination of Gaussian 09 at Thu Feb  9 16:07:26 2017.
