 Gaussian 09, Revision E.01,
 Gaussian 09:  ES64L-G09RevE.01 30-Nov-2015

 ----------------------------------------------------------------------
 #rhf/gen scf(symm,tight,novaracc,noincfock,fulldiag) stable(crhf) geom
 =nocrowd test
 ----------------------------------------------------------------------

 ----------------------------------------------------------------------
 hf stability analysis of h10 triangular lattice, y= 1.2247999137372361
 ----------------------------------------------------------------------
 Symbolic Z-matrix:
 Charge =  0 Multiplicity = 1

                         Standard orientation:
 ---------------------------------------------------------------------
 Center     Atomic      Atomic             Coordinates (Angstroms)
 Number     Number       Type             X           Y           Z
 ---------------------------------------------------------------------
      1          1           0       -0.000000    1.224800    0.942767
      2          1           0       -0.000000    0.000000    1.414150
      3          1           0       -0.000000    0.000000    0.471383
      4          1           0       -0.000000   -1.224800    0.942767
      5          1           0       -0.000000    1.224800   -0.000000
      6          1           0       -0.000000   -1.224800    0.000000
      7          1           0        0.000000    0.000000   -0.471383
      8          1           0        0.000000    1.224800   -0.942767
      9          1           0       -0.000000   -1.224800   -0.942767
     10          1           0        0.000000    0.000000   -1.414150
 ---------------------------------------------------------------------

 SCF Done:  E(RHF) =  -4.90313956182     A.U. after    9 cycles
 E2 =    -0.9372459953D-01 EUMP2 =    -0.49968641613493D+01

 The electronic state is 1-AG.
 Alpha  occ. eigenvalues --   -0.94235  -0.67659  -0.66678  -0.41790  -0.30661
 Alpha virt. eigenvalues --   -0.00347   0.15010   0.53377   0.60149   0.75577

 Mulliken charges:
               1
     1  H   -0.085117
     2  H    0.285279
     3  H   -0.034840
     4  H   -0.085117
     5  H   -0.080206
     6  H   -0.080206
     7  H   -0.034840
     8  H   -0.085117
     9  H   -0.085117
    10  H    0.285279
 Sum of Mulliken charges =  -0.00000

 Dipole moment (field-independent basis, Debye):
    X=              0.0000    Y=             -0.0000    Z=              0.0000  Tot=              0.0000
 Quadrupole moment (field-independent basis, Debye-Ang):
   XX=            -12.6005   YY=            -21.3304   ZZ=             -9.6515
   XY=             -0.0000   XZ=             -0.0000   YZ=              0.0000

 Normal termination of Gaussian 09 at Thu Feb  9 16:23:27 2017.
