 Gaussian 09, Revision E.01,
 Gaussian 09:  ES64L-G09RevE.01 30-Nov-2015

 ----------------------------------------------------------------------
 #rhf/gen scf(symm,tight,novaracc,noincfock,fulldiag) stable(crhf) geom
 =nocrowd test
 ----------------------------------------------------------------------

 ----------------------------------------------------------------------
 hf stability analysis of h10 triangular lattice, y= 1.0832039369499773
 ----------------------------------------------------------------------
 Symbolic Z-matrix:
 Charge =  0 Multiplicity = 1

                         Standard orientation:
 ---------------------------------------------------------------------
 Center     Atomic      Atomic             Coordinates (Angstroms)
 Number     Number       Type             X           Y           Z
 ---------------------------------------------------------------------
      1          1           0       -0.000000    1.083204    1.066005
      2          1           0       -0.000000    0.000000    1.599007
      3          1           0       -0.000000    0.000000    0.533002
      4          1           0       -0.000000   -1.083204    1.066005
      5          1           0       -0.000000    1.083204   -0.000000
      6          1           0       -0.000000   -1.083204    0.000000
      7          1           0        0.000000   -0.000000   -0.533002
      8          1           0        0.000000    1.083204   -1.066005
      9          1           0       -0.000000   -1.083204   -1.066005
     10          1           0        0.000000   -0.000000   -1.599007
 ---------------------------------------------------------------------

 SCF Done:  E(RHF) =  -4.86090228659     A.U. after   11 cycles
 E2 =    -0.1090089338D+00 EUMP2 =    -0.49699112204222D+01

 The electronic state is 1-AG.
 Alpha  occ. eigenvalues --   -0.97423  -0.70871  -0.64743  -0.35024  -0.34293
 Alpha virt. eigenvalues --   -0.00205   0.25285   0.33010   0.39857   0.65370

 Mulliken charges:
               1
     1  H   -0.047358
     2  H   -0.082550
     3  H    0.122538
     4  H   -0.047358
     5  H    0.054728
     6  H    0.054728
     7  H    0.122538
     8  H   -0.047358
     9  H   -0.047358
    10  H   -0.082550
 Sum of Mulliken charges =  -0.00000

 Dipole moment (field-independent basis, Debye):
    X=             -0.0000    Y=              0.0000    Z=             -0.0000  Tot=              0.0000
 Quadrupole moment (field-independent basis, Debye-Ang):
   XX=            -12.7756   YY=            -14.1966   ZZ=            -20.1881
   XY=             -0.0000   XZ=              0.0000   YZ=             -0.0000

 Normal termination of Gaussian 09 at Thu Feb  9 16:19:50 2017.
