 Gaussian 09, Revision E.01,
 Gaussian 09:  ES64L-G09RevE.01 30-Nov-2015

 ----------------------------------------------------------------------
 #rhf/gen scf(symm,tight,novaracc,noincfock,fulldiag) stable(crhf) geom
 =nocrowd test
 ----------------------------------------------------------------------

 ----------------------------------------------------------------------
 hf stability analysis of h10 triangular lattice, y= 1.0587704668665670
 ----------------------------------------------------------------------
 Symbolic Z-matrix:
 Charge =  0 Multiplicity = 1

                         Standard orientation:
 ---------------------------------------------------------------------
 Center     Atomic      Atomic             Coordinates (Angstroms)
 Number     Number       Type             X           Y           Z
 ---------------------------------------------------------------------
      1          1           0        0.000000    1.058770    1.090605
      2          1           0        0.000000   -0.000000    1.635908
      3          1           0        0.000000   -0.000000    0.545303
      4          1           0       -0.000000   -1.058770    1.090605
      5          1           0       -0.000000    1.058770    0.000000
      6          1           0       -0.000000   -1.058770   -0.000000
      7          1           0        0.000000    0.000000   -0.545303
      8          1           0        0.000000    1.058770   -1.090605
      9          1           0       -0.000000   -1.058770   -1.090605
     10          1           0        0.000000    0.000000   -1.635908
 ---------------------------------------------------------------------

 SCF Done:  E(RHF) =  -4.89009296509     A.U. after   10 cycles
 E2 =    -0.1065160055D+00 EUMP2 =    -0.49966089706381D+01

 The electronic state is 1-AG.
 Alpha  occ. eigenvalues --   -0.97260  -0.71414  -0.63734  -0.36520  -0.34302
 Alpha virt. eigenvalues --    0.02787   0.25364   0.31161   0.38748   0.64136

 Mulliken charges:
               1
     1  H   -0.065826
     2  H   -0.054221
     3  H    0.114729
     4  H   -0.065826
     5  H    0.071144
     6  H    0.071144
     7  H    0.114729
     8  H   -0.065826
     9  H   -0.065826
    10  H   -0.054221
 Sum of Mulliken charges =  -0.00000

 Dipole moment (field-independent basis, Debye):
    X=             -0.0000    Y=              0.0000    Z=             -0.0000  Tot=              0.0000
 Quadrupole moment (field-independent basis, Debye-Ang):
   XX=            -12.7978   YY=            -14.5534   ZZ=            -19.8412
   XY=             -0.0000   XZ=              0.0000   YZ=              0.0000

 Normal termination of Gaussian 09 at Thu Feb  9 16:19:05 2017.
