 Gaussian 09, Revision E.01,
 Gaussian 09:  ES64L-G09RevE.01 30-Nov-2015

 ----------------------------------------------------------------------
 #rhf/gen scf(symm,tight,novaracc,noincfock,fulldiag) stable(crhf) geom
 =nocrowd test
 ----------------------------------------------------------------------

 hf stability analysis of h10 triangular lattice, y= 0.8914339662136427
 9
 ----------------------------------------------------------------------
 Symbolic Z-matrix:
 Charge =  0 Multiplicity = 1

                         Standard orientation:
 ---------------------------------------------------------------------
 Center     Atomic      Atomic             Coordinates (Angstroms)
 Number     Number       Type             X           Y           Z
 ---------------------------------------------------------------------
      1          1           0       -0.000000    0.891434    1.295329
      2          1           0       -0.000000    0.000000    1.942994
      3          1           0       -0.000000    0.000000    0.647665
      4          1           0       -0.000000   -0.891434    1.295329
      5          1           0       -0.000000    0.891434   -0.000000
      6          1           0       -0.000000   -0.891434    0.000000
      7          1           0        0.000000   -0.000000   -0.647665
      8          1           0        0.000000    0.891434   -1.295329
      9          1           0       -0.000000   -0.891434   -1.295329
     10          1           0        0.000000   -0.000000   -1.942994
 ---------------------------------------------------------------------

 SCF Done:  E(RHF) =  -4.96616091128     A.U. after    8 cycles
 E2 =    -0.9688264050D-01 EUMP2 =    -0.50630435517755D+01

 The electronic state is 1-AG.
 Alpha  occ. eigenvalues --   -0.95034  -0.74468  -0.55401  -0.45828  -0.32253
 Alpha virt. eigenvalues --    0.10382   0.20484   0.27322   0.48698   0.51533

 Mulliken charges:
               1
     1  H   -0.141013
     2  H    0.101032
     3  H    0.100486
     4  H   -0.141013
     5  H    0.080508
     6  H    0.080508
     7  H    0.100486
     8  H   -0.141013
     9  H   -0.141013
    10  H    0.101032
 Sum of Mulliken charges =  -0.00000

 Dipole moment (field-independent basis, Debye):
    X=              0.0000    Y=             -0.0000    Z=             -0.0000  Tot=              0.0000
 Quadrupole moment (field-independent basis, Debye-Ang):
   XX=            -12.9173   YY=            -16.8878   ZZ=            -16.0831
   XY=             -0.0000   XZ=             -0.0000   YZ=             -0.0000

 Normal termination of Gaussian 09 at Thu Feb  9 16:13:00 2017.
