 Gaussian 09, Revision E.01,
 Gaussian 09:  ES64L-G09RevE.01 30-Nov-2015

 ----------------------------------------------------------------------
 #rhf/gen scf(symm,tight,novaracc,noincfock,fulldiag) stable(crhf) geom
 =nocrowd test
 ----------------------------------------------------------------------

 hf stability analysis of h10 triangular lattice, y= 0.9105785525071997
 7
 ----------------------------------------------------------------------
 Symbolic Z-matrix:
 Charge =  0 Multiplicity = 1

                         Standard orientation:
 ---------------------------------------------------------------------
 Center     Atomic      Atomic             Coordinates (Angstroms)
 Number     Number       Type             X           Y           Z
 ---------------------------------------------------------------------
      1          1           0       -0.000000    0.910579    1.268095
      2          1           0       -0.000000    0.000000    1.902143
      3          1           0       -0.000000    0.000000    0.634048
      4          1           0       -0.000000   -0.910579    1.268095
      5          1           0       -0.000000    0.910579   -0.000000
      6          1           0       -0.000000   -0.910579    0.000000
      7          1           0        0.000000   -0.000000   -0.634048
      8          1           0        0.000000    0.910579   -1.268095
      9          1           0       -0.000000   -0.910579   -1.268095
     10          1           0        0.000000   -0.000000   -1.902143
 ---------------------------------------------------------------------

 SCF Done:  E(RHF) =  -4.96932348489     A.U. after    8 cycles
 E2 =    -0.9739360813D-01 EUMP2 =    -0.50667170930164D+01

 The electronic state is 1-AG.
 Alpha  occ. eigenvalues --   -0.95423  -0.74237  -0.56505  -0.44836  -0.32671
 Alpha virt. eigenvalues --    0.12401   0.21522   0.24122   0.47131   0.53450

 Mulliken charges:
               1
     1  H   -0.132591
     2  H    0.083401
     3  H    0.098998
     4  H   -0.132591
     5  H    0.082783
     6  H    0.082783
     7  H    0.098998
     8  H   -0.132591
     9  H   -0.132591
    10  H    0.083401
 Sum of Mulliken charges =  -0.00000

 Dipole moment (field-independent basis, Debye):
    X=              0.0000    Y=              0.0000    Z=              0.0000  Tot=              0.0000
 Quadrupole moment (field-independent basis, Debye-Ang):
   XX=            -12.9045   YY=            -16.6321   ZZ=            -16.6329
   XY=             -0.0000   XZ=              0.0000   YZ=             -0.0000

 Normal termination of Gaussian 09 at Thu Feb  9 16:13:48 2017.
