 Gaussian 09, Revision E.01,
 Gaussian 09:  ES64L-G09RevE.01 30-Nov-2015

 ----------------------------------------------------------------------
 #rhf/gen scf(symm,tight,novaracc,noincfock,fulldiag) stable(crhf) geom
 =nocrowd test
 ----------------------------------------------------------------------

 hf stability analysis of h10 triangular lattice, y= 0.8769027329637844
 0
 ----------------------------------------------------------------------
 Symbolic Z-matrix:
 Charge =  0 Multiplicity = 1

                         Standard orientation:
 ---------------------------------------------------------------------
 Center     Atomic      Atomic             Coordinates (Angstroms)
 Number     Number       Type             X           Y           Z
 ---------------------------------------------------------------------
      1          1           0        0.000000    0.876903    1.316794
      2          1           0       -0.000000   -0.000000    1.975192
      3          1           0       -0.000000   -0.000000    0.658397
      4          1           0       -0.000000   -0.876903    1.316794
      5          1           0       -0.000000    0.876903    0.000000
      6          1           0       -0.000000   -0.876903   -0.000000
      7          1           0        0.000000    0.000000   -0.658397
      8          1           0        0.000000    0.876903   -1.316794
      9          1           0       -0.000000   -0.876903   -1.316794
     10          1           0        0.000000    0.000000   -1.975192
 ---------------------------------------------------------------------

 SCF Done:  E(RHF) =  -4.96163043232     A.U. after    8 cycles
 E2 =    -0.9659372653D-01 EUMP2 =    -0.50582241588512D+01

 The electronic state is 1-AG.
 Alpha  occ. eigenvalues --   -0.94711  -0.74615  -0.54530  -0.46566  -0.31899
 Alpha virt. eigenvalues --    0.08874   0.19735   0.29818   0.49844   0.49994

 Mulliken charges:
               1
     1  H   -0.147582
     2  H    0.114535
     3  H    0.102372
     4  H   -0.147582
     5  H    0.078257
     6  H    0.078257
     7  H    0.102372
     8  H   -0.147582
     9  H   -0.147582
    10  H    0.114535
 Sum of Mulliken charges =  -0.00000

 Dipole moment (field-independent basis, Debye):
    X=              0.0000    Y=              0.0000    Z=             -0.0000  Tot=              0.0000
 Quadrupole moment (field-independent basis, Debye-Ang):
   XX=            -12.9270   YY=            -17.0803   ZZ=            -15.6402
   XY=             -0.0000   XZ=             -0.0000   YZ=              0.0000

 Normal termination of Gaussian 09 at Thu Feb  9 16:12:22 2017.
