 Gaussian 09, Revision E.01,
 Gaussian 09:  ES64L-G09RevE.01 30-Nov-2015

 ----------------------------------------------------------------------
 #rhf/gen scf(symm,tight,novaracc,noincfock,fulldiag) stable(crhf) geom
 =nocrowd test
 ----------------------------------------------------------------------

 ----------------------------------------------------------------------
 hf stability analysis of h10 triangular lattice, y= 1.3785077936273700
 ----------------------------------------------------------------------
 Symbolic Z-matrix:
 Charge =  0 Multiplicity = 1

                         Standard orientation:
 ---------------------------------------------------------------------
 Center     Atomic      Atomic             Coordinates (Angstroms)
 Number     Number       Type             X           Y           Z
 ---------------------------------------------------------------------
      1          1           0        0.000000    1.378508    0.837645
      2          1           0       -0.000000   -0.000000    1.256468
      3          1           0       -0.000000   -0.000000    0.418823
      4          1           0       -0.000000   -1.378508    0.837645
      5          1           0       -0.000000    1.378508    0.000000
      6          1           0       -0.000000   -1.378508   -0.000000
      7          1           0        0.000000    0.000000   -0.418823
      8          1           0        0.000000    1.378508   -0.837645
      9          1           0       -0.000000   -1.378508   -0.837645
     10          1           0        0.000000    0.000000   -1.256468
 ---------------------------------------------------------------------

 SCF Done:  E(RHF) =  -4.95186673231     A.U. after    8 cycles
 E2 =    -0.8796613152D-01 EUMP2 =    -0.50398328638245D+01

 The electronic state is 1-AG.
 Alpha  occ. eigenvalues --   -0.95373  -0.72071  -0.63665  -0.54511  -0.28527
 Alpha virt. eigenvalues --    0.08029   0.08215   0.66775   0.82131   0.82904

 Mulliken charges:
               1
     1  H   -0.055238
     2  H    0.276956
     3  H   -0.065202
     4  H   -0.055238
     5  H   -0.101279
     6  H   -0.101279
     7  H   -0.065202
     8  H   -0.055238
     9  H   -0.055238
    10  H    0.276956
 Sum of Mulliken charges =  -0.00000

 Dipole moment (field-independent basis, Debye):
    X=              0.0000    Y=              0.0000    Z=              0.0000  Tot=              0.0000
 Quadrupole moment (field-independent basis, Debye-Ang):
   XX=            -12.6159   YY=            -20.6631   ZZ=            -11.1567
   XY=             -0.0000   XZ=             -0.0000   YZ=             -0.0000

 Normal termination of Gaussian 09 at Thu Feb  9 16:26:22 2017.
