 Gaussian 09, Revision E.01,
 Gaussian 09:  ES64L-G09RevE.01 30-Nov-2015

 ----------------------------------------------------------------------
 #rhf/gen scf(symm,tight,novaracc,noincfock,fulldiag) stable(crhf) geom
 =nocrowd test
 ----------------------------------------------------------------------

 ----------------------------------------------------------------------
 hf stability analysis of h10 triangular lattice, y= 1.4577387694163313
 ----------------------------------------------------------------------
 Symbolic Z-matrix:
 Charge =  0 Multiplicity = 1

                         Standard orientation:
 ---------------------------------------------------------------------
 Center     Atomic      Atomic             Coordinates (Angstroms)
 Number     Number       Type             X           Y           Z
 ---------------------------------------------------------------------
      1          1           0       -0.000000    1.457739    0.792118
      2          1           0       -0.000000    0.000000    1.188176
      3          1           0       -0.000000    0.000000    0.396059
      4          1           0       -0.000000   -1.457739    0.792118
      5          1           0       -0.000000    1.457739   -0.000000
      6          1           0       -0.000000   -1.457739    0.000000
      7          1           0        0.000000   -0.000000   -0.396059
      8          1           0        0.000000    1.457739   -0.792118
      9          1           0       -0.000000   -1.457739   -0.792118
     10          1           0        0.000000   -0.000000   -1.188176
 ---------------------------------------------------------------------

 SCF Done:  E(RHF) =  -4.92223515180     A.U. after    8 cycles
 E2 =    -0.8980646366D-01 EUMP2 =    -0.50120416154629D+01

 The electronic state is 1-AG.
 Alpha  occ. eigenvalues --   -0.95926  -0.74114  -0.62249  -0.60070  -0.27180
 Alpha virt. eigenvalues --    0.05474   0.12489   0.73627   0.86977   0.93971

 Mulliken charges:
               1
     1  H   -0.028260
     2  H    0.260742
     3  H   -0.075871
     4  H   -0.028260
     5  H   -0.128352
     6  H   -0.128352
     7  H   -0.075871
     8  H   -0.028260
     9  H   -0.028260
    10  H    0.260742
 Sum of Mulliken charges =   0.00000

 Dipole moment (field-independent basis, Debye):
    X=              0.0000    Y=             -0.0000    Z=              0.0000  Tot=              0.0000
 Quadrupole moment (field-independent basis, Debye-Ang):
   XX=            -12.6073   YY=            -20.0996   ZZ=            -11.8734
   XY=             -0.0000   XZ=             -0.0000   YZ=              0.0000

 Normal termination of Gaussian 09 at Thu Feb  9 16:27:32 2017.
