 Gaussian 09, Revision E.01,
 Gaussian 09:  ES64L-G09RevE.01 30-Nov-2015

 ----------------------------------------------------------------------
 #rhf/gen scf(symm,tight,novaracc,noincfock,fulldiag) stable(crhf) geom
 =nocrowd test
 ----------------------------------------------------------------------

 ----------------------------------------------------------------------
 hf stability analysis of h10 triangular lattice, y= 1.4166328304064160
 ----------------------------------------------------------------------
 Symbolic Z-matrix:
 Charge =  0 Multiplicity = 1

                         Standard orientation:
 ---------------------------------------------------------------------
 Center     Atomic      Atomic             Coordinates (Angstroms)
 Number     Number       Type             X           Y           Z
 ---------------------------------------------------------------------
      1          1           0       -0.000000    1.416633    0.815102
      2          1           0       -0.000000    0.000000    1.222653
      3          1           0       -0.000000    0.000000    0.407551
      4          1           0       -0.000000   -1.416633    0.815102
      5          1           0       -0.000000    1.416633   -0.000000
      6          1           0       -0.000000   -1.416633    0.000000
      7          1           0        0.000000   -0.000000   -0.407551
      8          1           0        0.000000    1.416633   -0.815102
      9          1           0       -0.000000   -1.416633   -0.815102
     10          1           0        0.000000   -0.000000   -1.222653
 ---------------------------------------------------------------------

 SCF Done:  E(RHF) =  -4.94170177423     A.U. after    8 cycles
 E2 =    -0.8850892390D-01 EUMP2 =    -0.50302106981270D+01

 The electronic state is 1-AG.
 Alpha  occ. eigenvalues --   -0.95645  -0.73073  -0.62973  -0.57268  -0.27892
 Alpha virt. eigenvalues --    0.06829   0.10174   0.70076   0.84826   0.87785

 Mulliken charges:
               1
     1  H   -0.042630
     2  H    0.269223
     3  H   -0.070284
     4  H   -0.042630
     5  H   -0.113678
     6  H   -0.113678
     7  H   -0.070284
     8  H   -0.042630
     9  H   -0.042630
    10  H    0.269223
 Sum of Mulliken charges =   0.00000

 Dipole moment (field-independent basis, Debye):
    X=              0.0000    Y=             -0.0000    Z=             -0.0000  Tot=              0.0000
 Quadrupole moment (field-independent basis, Debye-Ang):
   XX=            -12.6130   YY=            -20.4018   ZZ=            -11.5157
   XY=             -0.0000   XZ=             -0.0000   YZ=              0.0000

 Normal termination of Gaussian 09 at Thu Feb  9 16:26:57 2017.
