 Gaussian 09, Revision E.01,
 Gaussian 09:  ES64L-G09RevE.01 30-Nov-2015

 ----------------------------------------------------------------------
 #rhf/gen scf(symm,tight,novaracc,noincfock,fulldiag) stable(crhf) geom
 =nocrowd test
 ----------------------------------------------------------------------

 ----------------------------------------------------------------------
 hf stability analysis of h10 triangular lattice, y= 1.2122080771015531
 ----------------------------------------------------------------------
 Symbolic Z-matrix:
 Charge =  0 Multiplicity = 1

                         Standard orientation:
 ---------------------------------------------------------------------
 Center     Atomic      Atomic             Coordinates (Angstroms)
 Number     Number       Type             X           Y           Z
 ---------------------------------------------------------------------
      1          1           0       -0.000000    1.212208    0.952560
      2          1           0        0.000000    0.000000    1.428840
      3          1           0        0.000000    0.000000    0.476280
      4          1           0       -0.000000   -1.212208    0.952560
      5          1           0       -0.000000    1.212208   -0.000000
      6          1           0       -0.000000   -1.212208    0.000000
      7          1           0        0.000000   -0.000000   -0.476280
      8          1           0        0.000000    1.212208   -0.952560
      9          1           0       -0.000000   -1.212208   -0.952560
     10          1           0        0.000000   -0.000000   -1.428840
 ---------------------------------------------------------------------

 SCF Done:  E(RHF) =  -4.89228076286     A.U. after    9 cycles
 E2 =    -0.9503917262D-01 EUMP2 =    -0.49873199354821D+01

 The electronic state is 1-AG.
 Alpha  occ. eigenvalues --   -0.94172  -0.67285  -0.66955  -0.40645  -0.30792
 Alpha virt. eigenvalues --   -0.00963   0.15634   0.52242   0.58388   0.74964

 Mulliken charges:
               1
     1  H   -0.083094
     2  H    0.279489
     3  H   -0.029418
     4  H   -0.083094
     5  H   -0.083883
     6  H   -0.083883
     7  H   -0.029418
     8  H   -0.083094
     9  H   -0.083094
    10  H    0.279489
 Sum of Mulliken charges =  -0.00000

 Dipole moment (field-independent basis, Debye):
    X=              0.0000    Y=             -0.0000    Z=              0.0000  Tot=              0.0000
 Quadrupole moment (field-independent basis, Debye-Ang):
   XX=            -12.5972   YY=            -21.3044   ZZ=             -9.5917
   XY=             -0.0000   XZ=             -0.0000   YZ=              0.0000

 Normal termination of Gaussian 09 at Thu Feb  9 16:23:10 2017.
