 Gaussian 09, Revision E.01,
 Gaussian 09:  ES64L-G09RevE.01 30-Nov-2015

 ----------------------------------------------------------------------
 #rhf/gen scf(symm,tight,novaracc,noincfock,fulldiag) stable(crhf) geom
 =nocrowd test
 ----------------------------------------------------------------------

 hf stability analysis of h10 triangular lattice, y= 0.7896085131794337
 0
 ----------------------------------------------------------------------
 Symbolic Z-matrix:
 Charge =  0 Multiplicity = 1

                         Standard orientation:
 ---------------------------------------------------------------------
 Center     Atomic      Atomic             Coordinates (Angstroms)
 Number     Number       Type             X           Y           Z
 ---------------------------------------------------------------------
      1          1           0       -0.000000    0.789608    1.462371
      2          1           0        0.000000    0.000000    2.193556
      3          1           0        0.000000    0.000000    0.731185
      4          1           0       -0.000000   -0.789608    1.462371
      5          1           0       -0.000000    0.789608   -0.000000
      6          1           0       -0.000000   -0.789608    0.000000
      7          1           0        0.000000   -0.000000   -0.731185
      8          1           0        0.000000    0.789608   -1.462371
      9          1           0       -0.000000   -0.789608   -1.462371
     10          1           0        0.000000   -0.000000   -2.193556
 ---------------------------------------------------------------------

 SCF Done:  E(RHF) =  -4.89532333345     A.U. after    8 cycles
 E2 =    -0.9668536862D-01 EUMP2 =    -0.49920087020749D+01

 The electronic state is 1-AG.
 Alpha  occ. eigenvalues --   -0.92174  -0.74882  -0.50653  -0.48647  -0.28986
 Alpha virt. eigenvalues --    0.00542   0.16048   0.38652   0.46459   0.54776

 Mulliken charges:
               1
     1  H   -0.191668
     2  H    0.198303
     3  H    0.132193
     4  H   -0.191668
     5  H    0.052840
     6  H    0.052840
     7  H    0.132193
     8  H   -0.191668
     9  H   -0.191668
    10  H    0.198303
 Sum of Mulliken charges =   0.00000

 Dipole moment (field-independent basis, Debye):
    X=              0.0000    Y=              0.0000    Z=              0.0000  Tot=              0.0000
 Quadrupole moment (field-independent basis, Debye-Ang):
   XX=            -12.9840   YY=            -18.2024   ZZ=            -12.4293
   XY=             -0.0000   XZ=             -0.0000   YZ=             -0.0000

 Normal termination of Gaussian 09 at Thu Feb  9 16:08:14 2017.
