 Gaussian 09, Revision E.01,
 Gaussian 09:  ES64L-G09RevE.01 30-Nov-2015

 ----------------------------------------------------------------------
 #rhf/gen scf(symm,tight,novaracc,noincfock,fulldiag) stable(crhf) geom
 =nocrowd test
 ----------------------------------------------------------------------

 hf stability analysis of h10 triangular lattice, y= 0.9821822982986273
 5
 ----------------------------------------------------------------------
 Symbolic Z-matrix:
 Charge =  0 Multiplicity = 1

                         Standard orientation:
 ---------------------------------------------------------------------
 Center     Atomic      Atomic             Coordinates (Angstroms)
 Number     Number       Type             X           Y           Z
 ---------------------------------------------------------------------
      1          1           0        0.000000    0.982182    1.175648
      2          1           0       -0.000000   -0.000000    1.763472
      3          1           0       -0.000000   -0.000000    0.587824
      4          1           0       -0.000000   -0.982182    1.175648
      5          1           0       -0.000000    0.982182    0.000000
      6          1           0       -0.000000   -0.982182   -0.000000
      7          1           0        0.000000    0.000000   -0.587824
      8          1           0        0.000000    0.982182   -1.175648
      9          1           0       -0.000000   -0.982182   -1.175648
     10          1           0        0.000000    0.000000   -1.763472
 ---------------------------------------------------------------------

 SCF Done:  E(RHF) =  -4.95334598637     A.U. after    8 cycles
 E2 =    -0.1006263656D+00 EUMP2 =    -0.50539723519459D+01

 The electronic state is 1-AG.
 Alpha  occ. eigenvalues --   -0.96537  -0.73056  -0.60263  -0.40946  -0.33787
 Alpha virt. eigenvalues --    0.13091   0.19974   0.25858   0.41388   0.59460

 Mulliken charges:
               1
     1  H   -0.102337
     2  H    0.018443
     3  H    0.101301
     4  H   -0.102337
     5  H    0.084930
     6  H    0.084930
     7  H    0.101301
     8  H   -0.102337
     9  H   -0.102337
    10  H    0.018443
 Sum of Mulliken charges =   0.00000

 Dipole moment (field-independent basis, Debye):
    X=              0.0000    Y=             -0.0000    Z=             -0.0000  Tot=              0.0000
 Quadrupole moment (field-independent basis, Debye-Ang):
   XX=            -12.8554   YY=            -15.6519   ZZ=            -18.3926
   XY=             -0.0000   XZ=              0.0000   YZ=              0.0000

 Normal termination of Gaussian 09 at Thu Feb  9 16:16:31 2017.
