 Gaussian 09, Revision E.01,
 Gaussian 09:  ES64L-G09RevE.01 30-Nov-2015

 ----------------------------------------------------------------------
 #rhf/gen scf(symm,tight,novaracc,noincfock,fulldiag) stable(crhf) geom
 =nocrowd test
 ----------------------------------------------------------------------

 hf stability analysis of h10 triangular lattice, y= 0.7958570277676497
 7
 ----------------------------------------------------------------------
 Symbolic Z-matrix:
 Charge =  0 Multiplicity = 1

                         Standard orientation:
 ---------------------------------------------------------------------
 Center     Atomic      Atomic             Coordinates (Angstroms)
 Number     Number       Type             X           Y           Z
 ---------------------------------------------------------------------
      1          1           0        0.000000    0.795857    1.450889
      2          1           0        0.000000    0.000000    2.176334
      3          1           0        0.000000    0.000000    0.725445
      4          1           0       -0.000000   -0.795857    1.450889
      5          1           0       -0.000000    0.795857   -0.000000
      6          1           0       -0.000000   -0.795857    0.000000
      7          1           0        0.000000    0.000000   -0.725445
      8          1           0        0.000000    0.795857   -1.450889
      9          1           0       -0.000000   -0.795857   -1.450889
     10          1           0        0.000000    0.000000   -2.176334
 ---------------------------------------------------------------------

 SCF Done:  E(RHF) =  -4.90231408798     A.U. after    8 cycles
 E2 =    -0.9657167580D-01 EUMP2 =    -0.49988857637799D+01

 The electronic state is 1-AG.
 Alpha  occ. eigenvalues --   -0.92393  -0.74902  -0.50383  -0.49111  -0.29245
 Alpha virt. eigenvalues --    0.01088   0.16260   0.39388   0.45385   0.54590

 Mulliken charges:
               1
     1  H   -0.188193
     2  H    0.192148
     3  H    0.128771
     4  H   -0.188193
     5  H    0.055466
     6  H    0.055466
     7  H    0.128771
     8  H   -0.188193
     9  H   -0.188193
    10  H    0.192148
 Sum of Mulliken charges =   0.00000

 Dipole moment (field-independent basis, Debye):
    X=              0.0000    Y=              0.0000    Z=             -0.0000  Tot=              0.0000
 Quadrupole moment (field-independent basis, Debye-Ang):
   XX=            -12.9800   YY=            -18.1244   ZZ=            -12.6949
   XY=             -0.0000   XZ=             -0.0000   YZ=              0.0000

 Normal termination of Gaussian 09 at Thu Feb  9 16:08:33 2017.
