 Gaussian 09, Revision E.01,
 Gaussian 09:  ES64L-G09RevE.01 30-Nov-2015

 ----------------------------------------------------------------------
 #rhf/gen scf(symm,tight,novaracc,noincfock,fulldiag) stable(crhf) geom
 =nocrowd test
 ----------------------------------------------------------------------

 hf stability analysis of h10 triangular lattice, y= 0.8021642104134582
 0
 ----------------------------------------------------------------------
 Symbolic Z-matrix:
 Charge =  0 Multiplicity = 1

                         Standard orientation:
 ---------------------------------------------------------------------
 Center     Atomic      Atomic             Coordinates (Angstroms)
 Number     Number       Type             X           Y           Z
 ---------------------------------------------------------------------
      1          1           0        0.000000    0.802164    1.439482
      2          1           0        0.000000   -0.000000    2.159222
      3          1           0        0.000000   -0.000000    0.719741
      4          1           0       -0.000000   -0.802164    1.439482
      5          1           0       -0.000000    0.802164    0.000000
      6          1           0       -0.000000   -0.802164   -0.000000
      7          1           0        0.000000    0.000000   -0.719741
      8          1           0        0.000000    0.802164   -1.439482
      9          1           0       -0.000000   -0.802164   -1.439482
     10          1           0        0.000000    0.000000   -2.159222
 ---------------------------------------------------------------------

 SCF Done:  E(RHF) =  -4.90901672498     A.U. after    8 cycles
 E2 =    -0.9647424873D-01 EUMP2 =    -0.50054909737105D+01

 The electronic state is 1-AG.
 Alpha  occ. eigenvalues --   -0.92608  -0.74916  -0.50107  -0.49571  -0.29497
 Alpha virt. eigenvalues --    0.01648   0.16484   0.40018   0.44404   0.54369

 Mulliken charges:
               1
     1  H   -0.184741
     2  H    0.185960
     3  H    0.125547
     4  H   -0.184741
     5  H    0.057974
     6  H    0.057974
     7  H    0.125547
     8  H   -0.184741
     9  H   -0.184741
    10  H    0.185960
 Sum of Mulliken charges =  -0.00000

 Dipole moment (field-independent basis, Debye):
    X=              0.0000    Y=              0.0000    Z=              0.0000  Tot=              0.0000
 Quadrupole moment (field-independent basis, Debye-Ang):
   XX=            -12.9759   YY=            -18.0453   ZZ=            -12.9568
   XY=             -0.0000   XZ=             -0.0000   YZ=             -0.0000

 Normal termination of Gaussian 09 at Thu Feb  9 16:08:52 2017.
