 Gaussian 09, Revision E.01,
 Gaussian 09:  ES64L-G09RevE.01 30-Nov-2015

 ----------------------------------------------------------------------
 #rhf/gen scf(symm,tight,novaracc,noincfock,fulldiag) stable(crhf) geom
 =nocrowd test
 ----------------------------------------------------------------------

 ----------------------------------------------------------------------
 hf stability analysis of h10 triangular lattice, y= 1.3699294202901398
 ----------------------------------------------------------------------
 Symbolic Z-matrix:
 Charge =  0 Multiplicity = 1

                         Standard orientation:
 ---------------------------------------------------------------------
 Center     Atomic      Atomic             Coordinates (Angstroms)
 Number     Number       Type             X           Y           Z
 ---------------------------------------------------------------------
      1          1           0       -0.000000    1.369929    0.842891
      2          1           0       -0.000000   -0.000000    1.264336
      3          1           0       -0.000000   -0.000000    0.421445
      4          1           0       -0.000000   -1.369929    0.842891
      5          1           0       -0.000000    1.369929    0.000000
      6          1           0       -0.000000   -1.369929   -0.000000
      7          1           0        0.000000    0.000000   -0.421445
      8          1           0        0.000000    1.369929   -0.842891
      9          1           0       -0.000000   -1.369929   -0.842891
     10          1           0        0.000000    0.000000   -1.264336
 ---------------------------------------------------------------------

 SCF Done:  E(RHF) =  -4.95304049181     A.U. after    8 cycles
 E2 =    -0.8793503650D-01 EUMP2 =    -0.50409755283109D+01

 The electronic state is 1-AG.
 Alpha  occ. eigenvalues --   -0.95309  -0.71841  -0.63823  -0.53869  -0.28666
 Alpha virt. eigenvalues --    0.07547   0.08544   0.66031   0.80870   0.82480

 Mulliken charges:
               1
     1  H   -0.057948
     2  H    0.278631
     3  H   -0.064048
     4  H   -0.057948
     5  H   -0.098688
     6  H   -0.098688
     7  H   -0.064048
     8  H   -0.057948
     9  H   -0.057948
    10  H    0.278631
 Sum of Mulliken charges =   0.00000

 Dipole moment (field-independent basis, Debye):
    X=              0.0000    Y=             -0.0000    Z=              0.0000  Tot=              0.0000
 Quadrupole moment (field-independent basis, Debye-Ang):
   XX=            -12.6162   YY=            -20.7189   ZZ=            -11.0725
   XY=             -0.0000   XZ=             -0.0000   YZ=              0.0000

 Normal termination of Gaussian 09 at Thu Feb  9 16:26:13 2017.
