 Gaussian 09, Revision E.01,
 Gaussian 09:  ES64L-G09RevE.01 30-Nov-2015

 ----------------------------------------------------------------------
 #rhf/gen scf(symm,tight,novaracc,noincfock,fulldiag) stable(crhf) geom
 =nocrowd test
 ----------------------------------------------------------------------

 hf stability analysis of h10 triangular lattice, y= 0.9357337738212570
 0
 ----------------------------------------------------------------------
 Symbolic Z-matrix:
 Charge =  0 Multiplicity = 1

                         Standard orientation:
 ---------------------------------------------------------------------
 Center     Atomic      Atomic             Coordinates (Angstroms)
 Number     Number       Type             X           Y           Z
 ---------------------------------------------------------------------
      1          1           0       -0.000000    0.935734    1.234005
      2          1           0        0.000000   -0.000000    1.851008
      3          1           0        0.000000   -0.000000    0.617003
      4          1           0       -0.000000   -0.935734    1.234005
      5          1           0       -0.000000    0.935734    0.000000
      6          1           0       -0.000000   -0.935734   -0.000000
      7          1           0        0.000000    0.000000   -0.617003
      8          1           0        0.000000    0.935734   -1.234005
      9          1           0       -0.000000   -0.935734   -1.234005
     10          1           0        0.000000    0.000000   -1.851008
 ---------------------------------------------------------------------

 SCF Done:  E(RHF) =  -4.96866641571     A.U. after    8 cycles
 E2 =    -0.9829048552D-01 EUMP2 =    -0.50669569012273D+01

 The electronic state is 1-AG.
 Alpha  occ. eigenvalues --   -0.95872  -0.73874  -0.57890  -0.43499  -0.33139
 Alpha virt. eigenvalues --    0.15089   0.20080   0.22968   0.45036   0.55767

 Mulliken charges:
               1
     1  H   -0.121831
     2  H    0.060463
     3  H    0.098534
     4  H   -0.121831
     5  H    0.084665
     6  H    0.084665
     7  H    0.098534
     8  H   -0.121831
     9  H   -0.121831
    10  H    0.060463
 Sum of Mulliken charges =  -0.00000

 Dipole moment (field-independent basis, Debye):
    X=              0.0000    Y=              0.0000    Z=              0.0000  Tot=              0.0000
 Quadrupole moment (field-independent basis, Debye-Ang):
   XX=            -12.8875   YY=            -16.2921   ZZ=            -17.3014
   XY=             -0.0000   XZ=              0.0000   YZ=              0.0000

 Normal termination of Gaussian 09 at Thu Feb  9 16:14:50 2017.
