 Gaussian 09, Revision E.01,
 Gaussian 09:  ES64L-G09RevE.01 30-Nov-2015

 ----------------------------------------------------------------------
 #rhf/gen scf(symm,tight,novaracc,noincfock,fulldiag) stable(crhf) geom
 =nocrowd test
 ----------------------------------------------------------------------

 hf stability analysis of h10 triangular lattice, y= 0.8192872786572217
 3
 ----------------------------------------------------------------------
 Symbolic Z-matrix:
 Charge =  0 Multiplicity = 1

                         Standard orientation:
 ---------------------------------------------------------------------
 Center     Atomic      Atomic             Coordinates (Angstroms)
 Number     Number       Type             X           Y           Z
 ---------------------------------------------------------------------
      1          1           0        0.000000    0.819287    1.409396
      2          1           0        0.000000    0.000000    2.114095
      3          1           0        0.000000    0.000000    0.704698
      4          1           0       -0.000000   -0.819287    1.409396
      5          1           0       -0.000000    0.819287   -0.000000
      6          1           0       -0.000000   -0.819287    0.000000
      7          1           0        0.000000   -0.000000   -0.704698
      8          1           0        0.000000    0.819287   -1.409396
      9          1           0       -0.000000   -0.819287   -1.409396
     10          1           0        0.000000   -0.000000   -2.114095
 ---------------------------------------------------------------------

 SCF Done:  E(RHF) =  -4.92542833246     A.U. after    8 cycles
 E2 =    -0.9629606805D-01 EUMP2 =    -0.50217244005157D+01

 The electronic state is 1-AG.
 Alpha  occ. eigenvalues --   -0.93160  -0.74921  -0.50785  -0.49337  -0.30140
 Alpha virt. eigenvalues --    0.03211   0.17133   0.39712   0.43716   0.53616

 Mulliken charges:
               1
     1  H   -0.175642
     2  H    0.169286
     3  H    0.117906
     4  H   -0.175642
     5  H    0.064092
     6  H    0.064092
     7  H    0.117906
     8  H   -0.175642
     9  H   -0.175642
    10  H    0.169286
 Sum of Mulliken charges =   0.00000

 Dipole moment (field-independent basis, Debye):
    X=              0.0000    Y=              0.0000    Z=              0.0000  Tot=              0.0000
 Quadrupole moment (field-independent basis, Debye-Ang):
   XX=            -12.9648   YY=            -17.8283   ZZ=            -13.6377
   XY=             -0.0000   XZ=             -0.0000   YZ=             -0.0000

 Normal termination of Gaussian 09 at Thu Feb  9 16:09:42 2017.
