 Gaussian 09, Revision E.01,
 Gaussian 09:  ES64L-G09RevE.01 30-Nov-2015

 ----------------------------------------------------------------------
 #rhf/gen scf(symm,tight,novaracc,noincfock,fulldiag) stable(crhf) geom
 =nocrowd test
 ----------------------------------------------------------------------

 hf stability analysis of h10 triangular lattice, y= 0.9277982681388944
 3
 ----------------------------------------------------------------------
 Symbolic Z-matrix:
 Charge =  0 Multiplicity = 1

                         Standard orientation:
 ---------------------------------------------------------------------
 Center     Atomic      Atomic             Coordinates (Angstroms)
 Number     Number       Type             X           Y           Z
 ---------------------------------------------------------------------
      1          1           0        0.000000    0.927798    1.244560
      2          1           0        0.000000    0.000000    1.866840
      3          1           0        0.000000    0.000000    0.622280
      4          1           0       -0.000000   -0.927798    1.244560
      5          1           0       -0.000000    0.927798    0.000000
      6          1           0       -0.000000   -0.927798    0.000000
      7          1           0        0.000000   -0.000000   -0.622280
      8          1           0        0.000000    0.927798   -1.244560
      9          1           0       -0.000000   -0.927798   -1.244560
     10          1           0        0.000000   -0.000000   -1.866840
 ---------------------------------------------------------------------

 SCF Done:  E(RHF) =  -4.96946035506     A.U. after    8 cycles
 E2 =    -0.9797984542D-01 EUMP2 =    -0.50674402004783D+01

 The electronic state is 1-AG.
 Alpha  occ. eigenvalues --   -0.95737  -0.73996  -0.57461  -0.43925  -0.33001
 Alpha virt. eigenvalues --    0.14239   0.21335   0.22502   0.45697   0.55061

 Mulliken charges:
               1
     1  H   -0.125196
     2  H    0.067676
     3  H    0.098513
     4  H   -0.125196
     5  H    0.084202
     6  H    0.084202
     7  H    0.098513
     8  H   -0.125196
     9  H   -0.125196
    10  H    0.067676
 Sum of Mulliken charges =  -0.00000

 Dipole moment (field-independent basis, Debye):
    X=              0.0000    Y=             -0.0000    Z=              0.0000  Tot=              0.0000
 Quadrupole moment (field-independent basis, Debye-Ang):
   XX=            -12.8929   YY=            -16.3998   ZZ=            -17.0968
   XY=             -0.0000   XZ=              0.0000   YZ=             -0.0000

 Normal termination of Gaussian 09 at Thu Feb  9 16:14:31 2017.
