 Gaussian 09, Revision E.01,
 Gaussian 09:  ES64L-G09RevE.01 30-Nov-2015

 ----------------------------------------------------------------------
 #rhf/gen scf(symm,tight,novaracc,noincfock,fulldiag) stable(crhf) geom
 =nocrowd test
 ----------------------------------------------------------------------

 ----------------------------------------------------------------------
 hf stability analysis of h10 triangular lattice, y= 1.0060829205774386
 ----------------------------------------------------------------------
 Symbolic Z-matrix:
 Charge =  0 Multiplicity = 1

                         Standard orientation:
 ---------------------------------------------------------------------
 Center     Atomic      Atomic             Coordinates (Angstroms)
 Number     Number       Type             X           Y           Z
 ---------------------------------------------------------------------
      1          1           0        0.000000    1.006083    1.147719
      2          1           0       -0.000000    0.000000    1.721579
      3          1           0       -0.000000    0.000000    0.573860
      4          1           0       -0.000000   -1.006083    1.147719
      5          1           0       -0.000000    1.006083   -0.000000
      6          1           0       -0.000000   -1.006083    0.000000
      7          1           0        0.000000   -0.000000   -0.573860
      8          1           0        0.000000    1.006083   -1.147719
      9          1           0       -0.000000   -1.006083   -1.147719
     10          1           0        0.000000   -0.000000   -1.721579
 ---------------------------------------------------------------------

 SCF Done:  E(RHF) =  -4.93852313444     A.U. after    9 cycles
 E2 =    -0.1021802697D+00 EUMP2 =    -0.50407034041474D+01

 The electronic state is 1-AG.
 Alpha  occ. eigenvalues --   -0.96806  -0.72573  -0.61401  -0.39594  -0.34020
 Alpha virt. eigenvalues --    0.09721   0.22258   0.27445   0.39858   0.61087

 Mulliken charges:
               1
     1  H   -0.092082
     2  H   -0.003324
     3  H    0.104274
     4  H   -0.092082
     5  H    0.083214
     6  H    0.083214
     7  H    0.104274
     8  H   -0.092082
     9  H   -0.092082
    10  H   -0.003324
 Sum of Mulliken charges =  -0.00000

 Dipole moment (field-independent basis, Debye):
    X=              0.0000    Y=              0.0000    Z=              0.0000  Tot=              0.0000
 Quadrupole moment (field-independent basis, Debye-Ang):
   XX=            -12.8382   YY=            -15.3154   ZZ=            -18.8894
   XY=             -0.0000   XZ=              0.0000   YZ=             -0.0000

 Normal termination of Gaussian 09 at Thu Feb  9 16:17:21 2017.
