 Gaussian 09, Revision E.01,
 Gaussian 09:  ES64L-G09RevE.01 30-Nov-2015

 ----------------------------------------------------------------------
 #rhf/gen scf(symm,tight,novaracc,noincfock,fulldiag) stable(crhf) geom
 =nocrowd test
 ----------------------------------------------------------------------

 ----------------------------------------------------------------------
 hf stability analysis of h10 triangular lattice, y= 1.3232044396011293
 ----------------------------------------------------------------------
 Symbolic Z-matrix:
 Charge =  0 Multiplicity = 1

                         Standard orientation:
 ---------------------------------------------------------------------
 Center     Atomic      Atomic             Coordinates (Angstroms)
 Number     Number       Type             X           Y           Z
 ---------------------------------------------------------------------
      1          1           0       -0.000000    1.323204    0.872655
      2          1           0        0.000000   -0.000000    1.308982
      3          1           0        0.000000   -0.000000    0.436327
      4          1           0       -0.000000   -1.323204    0.872655
      5          1           0       -0.000000    1.323204    0.000000
      6          1           0       -0.000000   -1.323204   -0.000000
      7          1           0        0.000000    0.000000   -0.436327
      8          1           0        0.000000    1.323204   -0.872655
      9          1           0       -0.000000   -1.323204   -0.872655
     10          1           0        0.000000    0.000000   -1.308982
 ---------------------------------------------------------------------

 SCF Done:  E(RHF) =  -4.95178211603     A.U. after    8 cycles
 E2 =    -0.8839226198D-01 EUMP2 =    -0.50401743780057D+01

 The electronic state is 1-AG.
 Alpha  occ. eigenvalues --   -0.94955  -0.70550  -0.64702  -0.50231  -0.29390
 Alpha virt. eigenvalues --    0.04934   0.10449   0.61979   0.74076   0.80220

 Mulliken charges:
               1
     1  H   -0.071543
     2  H    0.286808
     3  H   -0.057425
     4  H   -0.071543
     5  H   -0.086296
     6  H   -0.086296
     7  H   -0.057425
     8  H   -0.071543
     9  H   -0.071543
    10  H    0.286808
 Sum of Mulliken charges =  -0.00000

 Dipole moment (field-independent basis, Debye):
    X=              0.0000    Y=             -0.0000    Z=              0.0000  Tot=              0.0000
 Quadrupole moment (field-independent basis, Debye-Ang):
   XX=            -12.6155   YY=            -20.9999   ZZ=            -10.5958
   XY=             -0.0000   XZ=             -0.0000   YZ=             -0.0000

 Normal termination of Gaussian 09 at Thu Feb  9 16:25:25 2017.
