 Gaussian 09, Revision E.01,
 Gaussian 09:  ES64L-G09RevE.01 30-Nov-2015

 ----------------------------------------------------------------------
 #rhf/gen scf(symm,tight,novaracc,noincfock,fulldiag) stable(crhf) geom
 =nocrowd test
 ----------------------------------------------------------------------

 ----------------------------------------------------------------------
 hf stability analysis of h10 triangular lattice, y= 2.0801539182411148
 ----------------------------------------------------------------------
 Symbolic Z-matrix:
 Charge =  0 Multiplicity = 1

                         Standard orientation:
 ---------------------------------------------------------------------
 Center     Atomic      Atomic             Coordinates (Angstroms)
 Number     Number       Type             X           Y           Z
 ---------------------------------------------------------------------
      1          1           0       -0.000000    2.080154    0.555103
      2          1           0       -0.000000    0.000000    0.832655
      3          1           0       -0.000000    0.000000    0.277552
      4          1           0       -0.000000   -2.080154    0.555103
      5          1           0       -0.000000    2.080154   -0.000000
      6          1           0       -0.000000   -2.080154   -0.000000
      7          1           0        0.000000   -0.000000   -0.277552
      8          1           0        0.000000    2.080154   -0.555103
      9          1           0       -0.000000   -2.080154   -0.555103
     10          1           0        0.000000   -0.000000   -0.832655
 ---------------------------------------------------------------------

 SCF Done:  E(RHF) =  -3.94009017794     A.U. after    7 cycles
 E2 =    -0.1827985610D+00 EUMP2 =    -0.41228887389504D+01

 The electronic state is 1-AG.
 Alpha  occ. eigenvalues --   -1.01785  -0.87159  -0.86286  -0.54954  -0.16633
 Alpha virt. eigenvalues --   -0.01895   0.45119   1.25887   1.28490   1.96290

 Mulliken charges:
               1
     1  H    0.204813
     2  H    0.236278
     3  H   -0.206656
     4  H    0.204813
     5  H   -0.439249
     6  H   -0.439249
     7  H   -0.206656
     8  H    0.204813
     9  H    0.204813
    10  H    0.236278
 Sum of Mulliken charges =   0.00000

 Dipole moment (field-independent basis, Debye):
    X=              0.0000    Y=             -0.0000    Z=             -0.0000  Tot=              0.0000
 Quadrupole moment (field-independent basis, Debye-Ang):
   XX=            -12.3184   YY=            -15.0011   ZZ=            -14.4770
   XY=             -0.0000   XZ=              0.0000   YZ=              0.0000

 Normal termination of Gaussian 09 at Thu Feb  9 16:32:50 2017.
