 Gaussian 09, Revision E.01,
 Gaussian 09:  ES64L-G09RevE.01 30-Nov-2015

 ----------------------------------------------------------------------
 #rhf/gen scf(symm,tight,novaracc,noincfock,fulldiag) stable(crhf) geom
 =nocrowd test
 ----------------------------------------------------------------------

 ----------------------------------------------------------------------
 hf stability analysis of h10 triangular lattice, y= 1.7274580089665905
 ----------------------------------------------------------------------
 Symbolic Z-matrix:
 Charge =  0 Multiplicity = 1

                         Standard orientation:
 ---------------------------------------------------------------------
 Center     Atomic      Atomic             Coordinates (Angstroms)
 Number     Number       Type             X           Y           Z
 ---------------------------------------------------------------------
      1          1           0       -0.000000    1.727458    0.668439
      2          1           0       -0.000000   -0.000000    1.002659
      3          1           0       -0.000000   -0.000000    0.334220
      4          1           0       -0.000000   -1.727458    0.668439
      5          1           0       -0.000000    1.727458    0.000000
      6          1           0       -0.000000   -1.727458    0.000000
      7          1           0        0.000000   -0.000000   -0.334220
      8          1           0        0.000000    1.727458   -0.668439
      9          1           0       -0.000000   -1.727458   -0.668439
     10          1           0        0.000000   -0.000000   -1.002659
 ---------------------------------------------------------------------

 SCF Done:  E(RHF) =  -4.62301340557     A.U. after    7 cycles
 E2 =    -0.1153465455D+00 EUMP2 =    -0.47383599510694D+01

 The electronic state is 1-AG.
 Alpha  occ. eigenvalues --   -0.97736  -0.80233  -0.74642  -0.58186  -0.22342
 Alpha virt. eigenvalues --   -0.00237   0.27410   0.96582   1.03172   1.36613

 Mulliken charges:
               1
     1  H    0.073796
     2  H    0.219953
     3  H   -0.121703
     4  H    0.073796
     5  H   -0.245843
     6  H   -0.245843
     7  H   -0.121703
     8  H    0.073796
     9  H    0.073796
    10  H    0.219953
 Sum of Mulliken charges =   0.00000

 Dipole moment (field-independent basis, Debye):
    X=              0.0000    Y=             -0.0000    Z=             -0.0000  Tot=              0.0000
 Quadrupole moment (field-independent basis, Debye-Ang):
   XX=            -12.5150   YY=            -17.8045   ZZ=            -13.5192
   XY=             -0.0000   XZ=              0.0000   YZ=              0.0000

 Normal termination of Gaussian 09 at Thu Feb  9 16:30:30 2017.
