 Gaussian 09, Revision E.01,
 Gaussian 09:  ES64L-G09RevE.01 30-Nov-2015

 ----------------------------------------------------------------------
 #rhf/gen scf(symm,tight,novaracc,noincfock,fulldiag) stable(crhf) geom
 =nocrowd test
 ----------------------------------------------------------------------

 hf stability analysis of h10 triangular lattice, y= 0.8955390333684565
 3
 ----------------------------------------------------------------------
 Symbolic Z-matrix:
 Charge =  0 Multiplicity = 1

                         Standard orientation:
 ---------------------------------------------------------------------
 Center     Atomic      Atomic             Coordinates (Angstroms)
 Number     Number       Type             X           Y           Z
 ---------------------------------------------------------------------
      1          1           0        0.000000    0.895539    1.289392
      2          1           0        0.000000    0.000000    1.934087
      3          1           0        0.000000    0.000000    0.644696
      4          1           0       -0.000000   -0.895539    1.289392
      5          1           0       -0.000000    0.895539    0.000000
      6          1           0       -0.000000   -0.895539    0.000000
      7          1           0        0.000000   -0.000000   -0.644696
      8          1           0        0.000000    0.895539   -1.289392
      9          1           0       -0.000000   -0.895539   -1.289392
     10          1           0        0.000000   -0.000000   -1.934087
 ---------------------------------------------------------------------

 SCF Done:  E(RHF) =  -4.96710720753     A.U. after    8 cycles
 E2 =    -0.9697972826D-01 EUMP2 =    -0.50640869357933D+01

 The electronic state is 1-AG.
 Alpha  occ. eigenvalues --   -0.95121  -0.74422  -0.55641  -0.45617  -0.32348
 Alpha virt. eigenvalues --    0.10812   0.20702   0.26627   0.48367   0.51955

 Mulliken charges:
               1
     1  H   -0.139186
     2  H    0.097237
     3  H    0.100076
     4  H   -0.139186
     5  H    0.081060
     6  H    0.081060
     7  H    0.100076
     8  H   -0.139186
     9  H   -0.139186
    10  H    0.097237
 Sum of Mulliken charges =  -0.00000

 Dipole moment (field-independent basis, Debye):
    X=              0.0000    Y=             -0.0000    Z=             -0.0000  Tot=              0.0000
 Quadrupole moment (field-independent basis, Debye-Ang):
   XX=            -12.9146   YY=            -16.8332   ZZ=            -16.2041
   XY=             -0.0000   XZ=             -0.0000   YZ=             -0.0000

 Normal termination of Gaussian 09 at Thu Feb  9 16:13:10 2017.
