 Gaussian 09, Revision E.01,
 Gaussian 09:  ES64L-G09RevE.01 30-Nov-2015

 ----------------------------------------------------------------------
 #rhf/gen scf(symm,tight,novaracc,noincfock,fulldiag) stable(crhf) geom
 =nocrowd test
 ----------------------------------------------------------------------

 ----------------------------------------------------------------------
 hf stability analysis of h10 triangular lattice, y= 1.1634340914554704
 ----------------------------------------------------------------------
 Symbolic Z-matrix:
 Charge =  0 Multiplicity = 1

                         Standard orientation:
 ---------------------------------------------------------------------
 Center     Atomic      Atomic             Coordinates (Angstroms)
 Number     Number       Type             X           Y           Z
 ---------------------------------------------------------------------
      1          1           0        0.000000    1.163434    0.992493
      2          1           0        0.000000    0.000000    1.488740
      3          1           0        0.000000    0.000000    0.496247
      4          1           0       -0.000000   -1.163434    0.992493
      5          1           0       -0.000000    1.163434    0.000000
      6          1           0       -0.000000   -1.163434    0.000000
      7          1           0        0.000000    0.000000   -0.496247
      8          1           0        0.000000    1.163434   -0.992493
      9          1           0       -0.000000   -1.163434   -0.992493
     10          1           0        0.000000    0.000000   -1.488740
 ---------------------------------------------------------------------

 SCF Done:  E(RHF) =  -4.84336175417     A.U. after   10 cycles
 E2 =    -0.1024883133D+00 EUMP2 =    -0.49458500674712D+01

 The electronic state is 1-AG.
 Alpha  occ. eigenvalues --   -0.94261  -0.68185  -0.65955  -0.36183  -0.31264
 Alpha virt. eigenvalues --   -0.02926   0.18164   0.47350   0.51432   0.72332

 Mulliken charges:
               1
     1  H   -0.047677
     2  H    0.208018
     3  H    0.009807
     4  H   -0.047677
     5  H   -0.122472
     6  H   -0.122472
     7  H    0.009807
     8  H   -0.047677
     9  H   -0.047677
    10  H    0.208018
 Sum of Mulliken charges =  -0.00000

 Dipole moment (field-independent basis, Debye):
    X=              0.0000    Y=             -0.0000    Z=              0.0000  Tot=              0.0000
 Quadrupole moment (field-independent basis, Debye-Ang):
   XX=            -12.5854   YY=            -20.5310   ZZ=            -10.1866
   XY=             -0.0000   XZ=             -0.0000   YZ=              0.0000

 Normal termination of Gaussian 09 at Thu Feb  9 16:22:01 2017.
