 Gaussian 09, Revision E.01,
 Gaussian 09:  ES64L-G09RevE.01 30-Nov-2015

 ----------------------------------------------------------------------
 #rhf/gen scf(symm,tight,novaracc,noincfock,fulldiag) stable(crhf) geom
 =nocrowd test
 ----------------------------------------------------------------------

 hf stability analysis of h10 triangular lattice, y= 0.9080427759821990
 7
 ----------------------------------------------------------------------
 Symbolic Z-matrix:
 Charge =  0 Multiplicity = 1

                         Standard orientation:
 ---------------------------------------------------------------------
 Center     Atomic      Atomic             Coordinates (Angstroms)
 Number     Number       Type             X           Y           Z
 ---------------------------------------------------------------------
      1          1           0       -0.000000    0.908043    1.271637
      2          1           0       -0.000000    0.000000    1.907455
      3          1           0       -0.000000    0.000000    0.635818
      4          1           0       -0.000000   -0.908043    1.271637
      5          1           0       -0.000000    0.908043    0.000000
      6          1           0       -0.000000   -0.908043    0.000000
      7          1           0        0.000000    0.000000   -0.635818
      8          1           0        0.000000    0.908043   -1.271637
      9          1           0       -0.000000   -0.908043   -1.271637
     10          1           0        0.000000    0.000000   -1.907455
 ---------------------------------------------------------------------

 SCF Done:  E(RHF) =  -4.96908723119     A.U. after    8 cycles
 E2 =    -0.9731741658D-01 EUMP2 =    -0.50664046477656D+01

 The electronic state is 1-AG.
 Alpha  occ. eigenvalues --   -0.95373  -0.74270  -0.56362  -0.44968  -0.32619
 Alpha virt. eigenvalues --    0.12132   0.21381   0.24540   0.47341   0.53204

 Mulliken charges:
               1
     1  H   -0.133693
     2  H    0.085727
     3  H    0.099135
     4  H   -0.133693
     5  H    0.082525
     6  H    0.082525
     7  H    0.099135
     8  H   -0.133693
     9  H   -0.133693
    10  H    0.085727
 Sum of Mulliken charges =  -0.00000

 Dipole moment (field-independent basis, Debye):
    X=              0.0000    Y=              0.0000    Z=              0.0000  Tot=              0.0000
 Quadrupole moment (field-independent basis, Debye-Ang):
   XX=            -12.9062   YY=            -16.6661   ZZ=            -16.5622
   XY=             -0.0000   XZ=              0.0000   YZ=              0.0000

 Normal termination of Gaussian 09 at Thu Feb  9 16:13:42 2017.
