 Gaussian 09, Revision E.01,
 Gaussian 09:  ES64L-G09RevE.01 30-Nov-2015

 ----------------------------------------------------------------------
 #rhf/gen scf(symm,tight,novaracc,noincfock,fulldiag) stable(crhf) geom
 =nocrowd test
 ----------------------------------------------------------------------

 ----------------------------------------------------------------------
 hf stability analysis of h10 triangular lattice, y= 1.6445705118746621
 ----------------------------------------------------------------------
 Symbolic Z-matrix:
 Charge =  0 Multiplicity = 1

                         Standard orientation:
 ---------------------------------------------------------------------
 Center     Atomic      Atomic             Coordinates (Angstroms)
 Number     Number       Type             X           Y           Z
 ---------------------------------------------------------------------
      1          1           0        0.000000    1.644570    0.702129
      2          1           0       -0.000000   -0.000000    1.053193
      3          1           0       -0.000000   -0.000000    0.351064
      4          1           0       -0.000000   -1.644570    0.702129
      5          1           0       -0.000000    1.644570    0.000000
      6          1           0       -0.000000   -1.644570   -0.000000
      7          1           0        0.000000    0.000000   -0.351064
      8          1           0        0.000000    1.644570   -0.702129
      9          1           0       -0.000000   -1.644570   -0.702129
     10          1           0        0.000000    0.000000   -1.053193
 ---------------------------------------------------------------------

 SCF Done:  E(RHF) =  -4.74171579542     A.U. after    7 cycles
 E2 =    -0.1044846388D+00 EUMP2 =    -0.48462004342032D+01

 The electronic state is 1-AG.
 Alpha  occ. eigenvalues --   -0.97140  -0.78454  -0.70799  -0.59294  -0.23816
 Alpha virt. eigenvalues --    0.00993   0.22906   0.89599   0.97831   1.23166

 Mulliken charges:
               1
     1  H    0.041895
     2  H    0.228422
     3  H   -0.105711
     4  H    0.041895
     5  H   -0.206501
     6  H   -0.206501
     7  H   -0.105711
     8  H    0.041895
     9  H    0.041895
    10  H    0.228422
 Sum of Mulliken charges =  -0.00000

 Dipole moment (field-independent basis, Debye):
    X=              0.0000    Y=             -0.0000    Z=              0.0000  Tot=              0.0000
 Quadrupole moment (field-independent basis, Debye-Ang):
   XX=            -12.5518   YY=            -18.5426   ZZ=            -13.1283
   XY=             -0.0000   XZ=             -0.0000   YZ=              0.0000

 Normal termination of Gaussian 09 at Thu Feb  9 16:29:44 2017.
