 Gaussian 09, Revision E.01,
 Gaussian 09:  ES64L-G09RevE.01 30-Nov-2015

 ----------------------------------------------------------------------
 #rhf/gen scf(symm,tight,novaracc,noincfock,fulldiag) stable(crhf) geom
 =nocrowd test
 ----------------------------------------------------------------------

 ----------------------------------------------------------------------
 hf stability analysis of h10 triangular lattice, y= 1.6410663881694845
 ----------------------------------------------------------------------
 Symbolic Z-matrix:
 Charge =  0 Multiplicity = 1

                         Standard orientation:
 ---------------------------------------------------------------------
 Center     Atomic      Atomic             Coordinates (Angstroms)
 Number     Number       Type             X           Y           Z
 ---------------------------------------------------------------------
      1          1           0       -0.000000    1.641066    0.703628
      2          1           0       -0.000000   -0.000000    1.055442
      3          1           0       -0.000000   -0.000000    0.351814
      4          1           0       -0.000000   -1.641066    0.703628
      5          1           0       -0.000000    1.641066    0.000000
      6          1           0       -0.000000   -1.641066   -0.000000
      7          1           0        0.000000    0.000000   -0.351814
      8          1           0        0.000000    1.641066   -0.703628
      9          1           0       -0.000000   -1.641066   -0.703628
     10          1           0        0.000000    0.000000   -1.055442
 ---------------------------------------------------------------------

 SCF Done:  E(RHF) =  -4.74627816246     A.U. after    7 cycles
 E2 =    -0.1040817267D+00 EUMP2 =    -0.48503598891250D+01

 The electronic state is 1-AG.
 Alpha  occ. eigenvalues --   -0.97117  -0.78378  -0.70626  -0.59344  -0.23879
 Alpha virt. eigenvalues --    0.01054   0.22713   0.89302   0.97612   1.22604

 Mulliken charges:
               1
     1  H    0.040547
     2  H    0.228873
     3  H   -0.105073
     4  H    0.040547
     5  H   -0.204895
     6  H   -0.204895
     7  H   -0.105073
     8  H    0.040547
     9  H    0.040547
    10  H    0.228873
 Sum of Mulliken charges =  -0.00000

 Dipole moment (field-independent basis, Debye):
    X=              0.0000    Y=             -0.0000    Z=             -0.0000  Tot=              0.0000
 Quadrupole moment (field-independent basis, Debye-Ang):
   XX=            -12.5532   YY=            -18.5736   ZZ=            -13.1098
   XY=             -0.0000   XZ=             -0.0000   YZ=              0.0000

 Normal termination of Gaussian 09 at Thu Feb  9 16:29:42 2017.
