 Gaussian 09, Revision E.01,
 Gaussian 09:  ES64L-G09RevE.01 30-Nov-2015

 ----------------------------------------------------------------------
 #rhf/gen scf(symm,tight,novaracc,noincfock,fulldiag) stable(crhf) geom
 =nocrowd test
 ----------------------------------------------------------------------

 ----------------------------------------------------------------------
 hf stability analysis of h10 triangular lattice, y= 1.1999306234657463
 ----------------------------------------------------------------------
 Symbolic Z-matrix:
 Charge =  0 Multiplicity = 1

                         Standard orientation:
 ---------------------------------------------------------------------
 Center     Atomic      Atomic             Coordinates (Angstroms)
 Number     Number       Type             X           Y           Z
 ---------------------------------------------------------------------
      1          1           0       -0.000000    1.199931    0.962306
      2          1           0        0.000000   -0.000000    1.443459
      3          1           0        0.000000   -0.000000    0.481153
      4          1           0       -0.000000   -1.199931    0.962306
      5          1           0       -0.000000    1.199931    0.000000
      6          1           0       -0.000000   -1.199931   -0.000000
      7          1           0        0.000000    0.000000   -0.481153
      8          1           0        0.000000    1.199931   -0.962306
      9          1           0       -0.000000   -1.199931   -0.962306
     10          1           0        0.000000    0.000000   -1.443459
 ---------------------------------------------------------------------

 SCF Done:  E(RHF) =  -4.88079444651     A.U. after    9 cycles
 E2 =    -0.9653349051D-01 EUMP2 =    -0.49773279370183D+01

 The electronic state is 1-AG.
 Alpha  occ. eigenvalues --   -0.94131  -0.67236  -0.66925  -0.39521  -0.30912
 Alpha virt. eigenvalues --   -0.01534   0.16250   0.51109   0.56666   0.74351

 Mulliken charges:
               1
     1  H   -0.079231
     2  H    0.270738
     3  H   -0.022849
     4  H   -0.079231
     5  H   -0.089427
     6  H   -0.089427
     7  H   -0.022849
     8  H   -0.079231
     9  H   -0.079231
    10  H    0.270738
 Sum of Mulliken charges =   0.00000

 Dipole moment (field-independent basis, Debye):
    X=              0.0000    Y=             -0.0000    Z=              0.0000  Tot=              0.0000
 Quadrupole moment (field-independent basis, Debye-Ang):
   XX=            -12.5938   YY=            -21.2396   ZZ=             -9.5787
   XY=             -0.0000   XZ=             -0.0000   YZ=              0.0000

 Normal termination of Gaussian 09 at Thu Feb  9 16:22:53 2017.
