 Gaussian 09, Revision E.01,
 Gaussian 09:  ES64L-G09RevE.01 30-Nov-2015

 ----------------------------------------------------------------------
 #rhf/gen scf(symm,tight,novaracc,noincfock,fulldiag) stable(crhf) geom
 =nocrowd test
 ----------------------------------------------------------------------

 ----------------------------------------------------------------------
 hf stability analysis of h10 triangular lattice, y= 1.0226770173235920
 ----------------------------------------------------------------------
 Symbolic Z-matrix:
 Charge =  0 Multiplicity = 1

                         Standard orientation:
 ---------------------------------------------------------------------
 Center     Atomic      Atomic             Coordinates (Angstroms)
 Number     Number       Type             X           Y           Z
 ---------------------------------------------------------------------
      1          1           0       -0.000000    1.022677    1.129096
      2          1           0       -0.000000   -0.000000    1.693644
      3          1           0       -0.000000   -0.000000    0.564548
      4          1           0       -0.000000   -1.022677    1.129096
      5          1           0       -0.000000    1.022677    0.000000
      6          1           0       -0.000000   -1.022677   -0.000000
      7          1           0        0.000000    0.000000   -0.564548
      8          1           0        0.000000    1.022677   -1.129096
      9          1           0       -0.000000   -1.022677   -1.129096
     10          1           0        0.000000    0.000000   -1.693644
 ---------------------------------------------------------------------

 SCF Done:  E(RHF) =  -4.92555216843     A.U. after    9 cycles
 E2 =    -0.1034056089D+00 EUMP2 =    -0.50289577773195D+01

 The electronic state is 1-AG.
 Alpha  occ. eigenvalues --   -0.96968  -0.72219  -0.62160  -0.38641  -0.34144
 Alpha virt. eigenvalues --    0.07466   0.23619   0.28583   0.39078   0.62120

 Mulliken charges:
               1
     1  H   -0.084616
     2  H   -0.018708
     3  H    0.106932
     4  H   -0.084616
     5  H    0.081007
     6  H    0.081007
     7  H    0.106932
     8  H   -0.084616
     9  H   -0.084616
    10  H   -0.018708
 Sum of Mulliken charges =  -0.00000

 Dipole moment (field-independent basis, Debye):
    X=              0.0000    Y=              0.0000    Z=             -0.0000  Tot=              0.0000
 Quadrupole moment (field-independent basis, Debye-Ang):
   XX=            -12.8260   YY=            -15.0785   ZZ=            -19.2106
   XY=             -0.0000   XZ=              0.0000   YZ=             -0.0000

 Normal termination of Gaussian 09 at Thu Feb  9 16:17:55 2017.
