 Gaussian 09, Revision E.01,
 Gaussian 09:  ES64L-G09RevE.01 30-Nov-2015

 ----------------------------------------------------------------------
 #rhf/gen scf(symm,tight,novaracc,noincfock,fulldiag) stable(crhf) geom
 =nocrowd test
 ----------------------------------------------------------------------

 ----------------------------------------------------------------------
 hf stability analysis of h10 triangular lattice, y= 1.1255574828824770
 ----------------------------------------------------------------------
 Symbolic Z-matrix:
 Charge =  0 Multiplicity = 1

                         Standard orientation:
 ---------------------------------------------------------------------
 Center     Atomic      Atomic             Coordinates (Angstroms)
 Number     Number       Type             X           Y           Z
 ---------------------------------------------------------------------
      1          1           0       -0.000000    1.125557    1.025892
      2          1           0       -0.000000   -0.000000    1.538838
      3          1           0       -0.000000   -0.000000    0.512946
      4          1           0       -0.000000   -1.125557    1.025892
      5          1           0       -0.000000    1.125557    0.000000
      6          1           0       -0.000000   -1.125557   -0.000000
      7          1           0        0.000000    0.000000   -0.512946
      8          1           0        0.000000    1.125557   -1.025892
      9          1           0       -0.000000   -1.125557   -1.025892
     10          1           0        0.000000    0.000000   -1.538838
 ---------------------------------------------------------------------

 SCF Done:  E(RHF) =  -4.81585635621     A.U. after   13 cycles
 E2 =    -0.1092451224D+00 EUMP2 =    -0.49251014785847D+01

 The electronic state is 1-AG.
 Alpha  occ. eigenvalues --   -0.95820  -0.69659  -0.65511  -0.32998  -0.32259
 Alpha virt. eigenvalues --   -0.03503   0.21246   0.40677   0.45174   0.69108

 Mulliken charges:
               1
     1  H    0.040762
     2  H   -0.020903
     3  H    0.092077
     4  H    0.040762
     5  H   -0.152698
     6  H   -0.152698
     7  H    0.092077
     8  H    0.040762
     9  H    0.040762
    10  H   -0.020903
 Sum of Mulliken charges =  -0.00000

 Dipole moment (field-independent basis, Debye):
    X=              0.0000    Y=             -0.0000    Z=              0.0000  Tot=              0.0000
 Quadrupole moment (field-independent basis, Debye-Ang):
   XX=            -12.6270   YY=            -16.8766   ZZ=            -15.0094
   XY=             -0.0000   XZ=              0.0000   YZ=              0.0000

 Normal termination of Gaussian 09 at Thu Feb  9 16:21:02 2017.
