 Gaussian 09, Revision E.01,
 Gaussian 09:  ES64L-G09RevE.01 30-Nov-2015

 ----------------------------------------------------------------------
 #rhf/gen scf(symm,tight,novaracc,noincfock,fulldiag) stable(crhf) geom
 =nocrowd test
 ----------------------------------------------------------------------

 hf stability analysis of h10 triangular lattice, y= 0.7671651745213762
 3
 ----------------------------------------------------------------------
 Symbolic Z-matrix:
 Charge =  0 Multiplicity = 1

                         Standard orientation:
 ---------------------------------------------------------------------
 Center     Atomic      Atomic             Coordinates (Angstroms)
 Number     Number       Type             X           Y           Z
 ---------------------------------------------------------------------
      1          1           0        0.000000    0.767165    1.505152
      2          1           0        0.000000    0.000000    2.257729
      3          1           0        0.000000    0.000000    0.752576
      4          1           0       -0.000000   -0.767165    1.505152
      5          1           0       -0.000000    0.767165    0.000000
      6          1           0       -0.000000   -0.767165   -0.000000
      7          1           0        0.000000    0.000000   -0.752576
      8          1           0        0.000000    0.767165   -1.505152
      9          1           0       -0.000000   -0.767165   -1.505152
     10          1           0        0.000000    0.000000   -2.257729
 ---------------------------------------------------------------------

 SCF Done:  E(RHF) =  -4.86731896639     A.U. after    8 cycles
 E2 =    -0.9723824334D-01 EUMP2 =    -0.49645572097331D+01

 The electronic state is 1-AG.
 Alpha  occ. eigenvalues --   -0.91335  -0.74750  -0.51588  -0.46923  -0.27987
 Alpha virt. eigenvalues --   -0.01343   0.15358   0.35689   0.50528   0.55153

 Mulliken charges:
               1
     1  H   -0.204620
     2  H    0.220600
     3  H    0.146463
     4  H   -0.204620
     5  H    0.042178
     6  H    0.042178
     7  H    0.146463
     8  H   -0.204620
     9  H   -0.204620
    10  H    0.220600
 Sum of Mulliken charges =  -0.00000

 Dipole moment (field-independent basis, Debye):
    X=              0.0000    Y=             -0.0000    Z=              0.0000  Tot=              0.0000
 Quadrupole moment (field-independent basis, Debye-Ang):
   XX=            -12.9983   YY=            -18.4785   ZZ=            -11.4225
   XY=             -0.0000   XZ=             -0.0000   YZ=             -0.0000

 Normal termination of Gaussian 09 at Thu Feb  9 16:07:03 2017.
