 Gaussian 09, Revision E.01,
 Gaussian 09:  ES64L-G09RevE.01 30-Nov-2015

 ----------------------------------------------------------------------
 #rhf/gen scf(symm,tight,novaracc,noincfock,fulldiag) stable(crhf) geom
 =nocrowd test
 ----------------------------------------------------------------------

 hf stability analysis of h10 triangular lattice, y= 0.8511933354580156
 8
 ----------------------------------------------------------------------
 Symbolic Z-matrix:
 Charge =  0 Multiplicity = 1

                         Standard orientation:
 ---------------------------------------------------------------------
 Center     Atomic      Atomic             Coordinates (Angstroms)
 Number     Number       Type             X           Y           Z
 ---------------------------------------------------------------------
      1          1           0       -0.000000    0.851193    1.356567
      2          1           0       -0.000000    0.000000    2.034850
      3          1           0       -0.000000    0.000000    0.678283
      4          1           0       -0.000000   -0.851193    1.356567
      5          1           0       -0.000000    0.851193    0.000000
      6          1           0       -0.000000   -0.851193    0.000000
      7          1           0        0.000000    0.000000   -0.678283
      8          1           0        0.000000    0.851193   -1.356567
      9          1           0       -0.000000   -0.851193   -1.356567
     10          1           0        0.000000    0.000000   -2.034850
 ---------------------------------------------------------------------

 SCF Done:  E(RHF) =  -4.94908607413     A.U. after    7 cycles
 E2 =    -0.9629247272D-01 EUMP2 =    -0.50453785468419D+01

 The electronic state is 1-AG.
 Alpha  occ. eigenvalues --   -0.94074  -0.74809  -0.52920  -0.47835  -0.31187
 Alpha virt. eigenvalues --    0.06278   0.18498   0.34347   0.47118   0.51716

 Mulliken charges:
               1
     1  H   -0.159664
     2  H    0.138716
     3  H    0.107563
     4  H   -0.159664
     5  H    0.073050
     6  H    0.073050
     7  H    0.107563
     8  H   -0.159664
     9  H   -0.159664
    10  H    0.138716
 Sum of Mulliken charges =  -0.00000

 Dipole moment (field-independent basis, Debye):
    X=              0.0000    Y=              0.0000    Z=              0.0000  Tot=              0.0000
 Quadrupole moment (field-independent basis, Debye-Ang):
   XX=            -12.9439   YY=            -17.4172   ZZ=            -14.7980
   XY=             -0.0000   XZ=             -0.0000   YZ=              0.0000

 Normal termination of Gaussian 09 at Thu Feb  9 16:11:13 2017.
