 Gaussian 09, Revision E.01,
 Gaussian 09:  ES64L-G09RevE.01 30-Nov-2015

 ----------------------------------------------------------------------
 #rhf/gen scf(symm,tight,novaracc,noincfock,fulldiag) stable(crhf) geom
 =nocrowd test
 ----------------------------------------------------------------------

 ----------------------------------------------------------------------
 hf stability analysis of h10 triangular lattice, y= 1.3983442261313550
 ----------------------------------------------------------------------
 Symbolic Z-matrix:
 Charge =  0 Multiplicity = 1

                         Standard orientation:
 ---------------------------------------------------------------------
 Center     Atomic      Atomic             Coordinates (Angstroms)
 Number     Number       Type             X           Y           Z
 ---------------------------------------------------------------------
      1          1           0       -0.000000    1.398344    0.825763
      2          1           0        0.000000    0.000000    1.238644
      3          1           0        0.000000    0.000000    0.412881
      4          1           0       -0.000000   -1.398344    0.825763
      5          1           0       -0.000000    1.398344   -0.000000
      6          1           0       -0.000000   -1.398344    0.000000
      7          1           0        0.000000   -0.000000   -0.412881
      8          1           0        0.000000    1.398344   -0.825763
      9          1           0       -0.000000   -1.398344   -0.825763
     10          1           0        0.000000   -0.000000   -1.238644
 ---------------------------------------------------------------------

 SCF Done:  E(RHF) =  -4.94756616964     A.U. after    8 cycles
 E2 =    -0.8816733813D-01 EUMP2 =    -0.50357335077714D+01

 The electronic state is 1-AG.
 Alpha  occ. eigenvalues --   -0.95516  -0.72597  -0.63302  -0.55965  -0.28200
 Alpha virt. eigenvalues --    0.07478   0.09144   0.68493   0.83896   0.85062

 Mulliken charges:
               1
     1  H   -0.048782
     2  H    0.272975
     3  H   -0.067846
     4  H   -0.048782
     5  H   -0.107564
     6  H   -0.107564
     7  H   -0.067846
     8  H   -0.048782
     9  H   -0.048782
    10  H    0.272975
 Sum of Mulliken charges =  -0.00000

 Dipole moment (field-independent basis, Debye):
    X=              0.0000    Y=             -0.0000    Z=             -0.0000  Tot=              0.0000
 Quadrupole moment (field-independent basis, Debye-Ang):
   XX=            -12.6147   YY=            -20.5297   ZZ=            -11.3467
   XY=             -0.0000   XZ=             -0.0000   YZ=              0.0000

 Normal termination of Gaussian 09 at Thu Feb  9 16:26:41 2017.
