 Gaussian 09, Revision E.01,
 Gaussian 09:  ES64L-G09RevE.01 30-Nov-2015

 ----------------------------------------------------------------------
 #rhf/gen scf(symm,tight,novaracc,noincfock,fulldiag) stable(crhf) geom
 =nocrowd test
 ----------------------------------------------------------------------

 ----------------------------------------------------------------------
 hf stability analysis of h10 triangular lattice, y= 1.5720191654568727
 ----------------------------------------------------------------------
 Symbolic Z-matrix:
 Charge =  0 Multiplicity = 1

                         Standard orientation:
 ---------------------------------------------------------------------
 Center     Atomic      Atomic             Coordinates (Angstroms)
 Number     Number       Type             X           Y           Z
 ---------------------------------------------------------------------
      1          1           0       -0.000000    1.572019    0.734533
      2          1           0       -0.000000    0.000000    1.101800
      3          1           0       -0.000000    0.000000    0.367267
      4          1           0       -0.000000   -1.572019    0.734533
      5          1           0       -0.000000    1.572019   -0.000000
      6          1           0       -0.000000   -1.572019    0.000000
      7          1           0        0.000000   -0.000000   -0.367267
      8          1           0        0.000000    1.572019   -0.734533
      9          1           0       -0.000000   -1.572019   -0.734533
     10          1           0        0.000000   -0.000000   -1.101800
 ---------------------------------------------------------------------

 SCF Done:  E(RHF) =  -4.82776600959     A.U. after    8 cycles
 E2 =    -0.9711733195D-01 EUMP2 =    -0.49248833415422D+01

 The electronic state is 1-AG.
 Alpha  occ. eigenvalues --   -0.96665  -0.76833  -0.66998  -0.60370  -0.25129
 Alpha virt. eigenvalues --    0.02428   0.18893   0.83434   0.93410   1.11631

 Mulliken charges:
               1
     1  H    0.014110
     2  H    0.239160
     3  H   -0.093114
     4  H    0.014110
     5  H   -0.174266
     6  H   -0.174266
     7  H   -0.093114
     8  H    0.014110
     9  H    0.014110
    10  H    0.239160
 Sum of Mulliken charges =   0.00000

 Dipole moment (field-independent basis, Debye):
    X=              0.0000    Y=              0.0000    Z=             -0.0000  Tot=              0.0000
 Quadrupole moment (field-independent basis, Debye-Ang):
   XX=            -12.5785   YY=            -19.1741   ZZ=            -12.7085
   XY=             -0.0000   XZ=             -0.0000   YZ=             -0.0000

 Normal termination of Gaussian 09 at Thu Feb  9 16:28:58 2017.
