 Gaussian 09, Revision E.01,
 Gaussian 09:  ES64L-G09RevE.01 30-Nov-2015

 ----------------------------------------------------------------------
 #rhf/gen scf(symm,tight,novaracc,noincfock,fulldiag) stable(crhf) geom
 =nocrowd test
 ----------------------------------------------------------------------

 hf stability analysis of h10 triangular lattice, y= 0.8229131786539906
 1
 ----------------------------------------------------------------------
 Symbolic Z-matrix:
 Charge =  0 Multiplicity = 1

                         Standard orientation:
 ---------------------------------------------------------------------
 Center     Atomic      Atomic             Coordinates (Angstroms)
 Number     Number       Type             X           Y           Z
 ---------------------------------------------------------------------
      1          1           0        0.000000    0.822913    1.403186
      2          1           0        0.000000    0.000000    2.104780
      3          1           0        0.000000    0.000000    0.701593
      4          1           0       -0.000000   -0.822913    1.403186
      5          1           0       -0.000000    0.822913    0.000000
      6          1           0       -0.000000   -0.822913   -0.000000
      7          1           0        0.000000    0.000000   -0.701593
      8          1           0        0.000000    0.822913   -1.403186
      9          1           0       -0.000000   -0.822913   -1.403186
     10          1           0        0.000000    0.000000   -2.104780
 ---------------------------------------------------------------------

 SCF Done:  E(RHF) =  -4.92856984207     A.U. after    8 cycles
 E2 =    -0.9627430571D-01 EUMP2 =    -0.50248441477800D+01

 The electronic state is 1-AG.
 Alpha  occ. eigenvalues --   -0.93271  -0.74916  -0.51036  -0.49171  -0.30269
 Alpha virt. eigenvalues --    0.03550   0.17278   0.39206   0.44006   0.53430

 Mulliken charges:
               1
     1  H   -0.173765
     2  H    0.165780
     3  H    0.116486
     4  H   -0.173765
     5  H    0.065264
     6  H    0.065264
     7  H    0.116486
     8  H   -0.173765
     9  H   -0.173765
    10  H    0.165780
 Sum of Mulliken charges =  -0.00000

 Dipole moment (field-independent basis, Debye):
    X=              0.0000    Y=             -0.0000    Z=             -0.0000  Tot=              0.0000
 Quadrupole moment (field-independent basis, Debye-Ang):
   XX=            -12.9625   YY=            -17.7820   ZZ=            -13.7765
   XY=             -0.0000   XZ=             -0.0000   YZ=              0.0000

 Normal termination of Gaussian 09 at Thu Feb  9 16:09:53 2017.
