 Gaussian 09, Revision E.01,
 Gaussian 09:  ES64L-G09RevE.01 30-Nov-2015

 ----------------------------------------------------------------------
 #rhf/gen scf(symm,tight,novaracc,noincfock,fulldiag) stable(crhf) geom
 =nocrowd test
 ----------------------------------------------------------------------

 ----------------------------------------------------------------------
 hf stability analysis of h10 triangular lattice, y= 1.1984173084573870
 ----------------------------------------------------------------------
 Symbolic Z-matrix:
 Charge =  0 Multiplicity = 1

                         Standard orientation:
 ---------------------------------------------------------------------
 Center     Atomic      Atomic             Coordinates (Angstroms)
 Number     Number       Type             X           Y           Z
 ---------------------------------------------------------------------
      1          1           0       -0.000000    1.198417    0.963521
      2          1           0        0.000000    0.000000    1.445282
      3          1           0        0.000000    0.000000    0.481761
      4          1           0       -0.000000   -1.198417    0.963521
      5          1           0       -0.000000    1.198417   -0.000000
      6          1           0       -0.000000   -1.198417   -0.000000
      7          1           0        0.000000    0.000000   -0.481761
      8          1           0        0.000000    1.198417   -0.963521
      9          1           0       -0.000000   -1.198417   -0.963521
     10          1           0        0.000000    0.000000   -1.445282
 ---------------------------------------------------------------------

 SCF Done:  E(RHF) =  -4.87932312813     A.U. after    9 cycles
 E2 =    -0.9673389957D-01 EUMP2 =    -0.49760570277022D+01

 The electronic state is 1-AG.
 Alpha  occ. eigenvalues --   -0.94128  -0.67272  -0.66882  -0.39382  -0.30926
 Alpha virt. eigenvalues --   -0.01602   0.16326   0.50967   0.56453   0.74275

 Mulliken charges:
               1
     1  H   -0.078592
     2  H    0.269383
     3  H   -0.021930
     4  H   -0.078592
     5  H   -0.090270
     6  H   -0.090270
     7  H   -0.021930
     8  H   -0.078592
     9  H   -0.078592
    10  H    0.269383
 Sum of Mulliken charges =   0.00000

 Dipole moment (field-independent basis, Debye):
    X=              0.0000    Y=             -0.0000    Z=              0.0000  Tot=              0.0000
 Quadrupole moment (field-independent basis, Debye-Ang):
   XX=            -12.5934   YY=            -21.2280   ZZ=             -9.5814
   XY=             -0.0000   XZ=             -0.0000   YZ=              0.0000

 Normal termination of Gaussian 09 at Thu Feb  9 16:22:51 2017.
