 Gaussian 09, Revision E.01,
 Gaussian 09:  ES64L-G09RevE.01 30-Nov-2015

 ----------------------------------------------------------------------
 #rhf/gen scf(symm,tight,novaracc,noincfock,fulldiag) stable(crhf) geom
 =nocrowd test
 ----------------------------------------------------------------------

 ----------------------------------------------------------------------
 hf stability analysis of h10 triangular lattice, y= 2.0941375407372735
 ----------------------------------------------------------------------
 Symbolic Z-matrix:
 Charge =  0 Multiplicity = 1

                         Standard orientation:
 ---------------------------------------------------------------------
 Center     Atomic      Atomic             Coordinates (Angstroms)
 Number     Number       Type             X           Y           Z
 ---------------------------------------------------------------------
      1          1           0        0.000000    2.094138    0.551397
      2          1           0       -0.000000   -0.000000    0.827095
      3          1           0       -0.000000   -0.000000    0.275698
      4          1           0       -0.000000   -2.094138    0.551397
      5          1           0       -0.000000    2.094138    0.000000
      6          1           0       -0.000000   -2.094138   -0.000000
      7          1           0        0.000000    0.000000   -0.275698
      8          1           0        0.000000    2.094138   -0.551397
      9          1           0       -0.000000   -2.094138   -0.551397
     10          1           0        0.000000    0.000000   -0.827095
 ---------------------------------------------------------------------

 SCF Done:  E(RHF) =  -3.90840669784     A.U. after    7 cycles
 E2 =    -0.1858670891D+00 EUMP2 =    -0.40942737869542D+01

 The electronic state is 1-AG.
 Alpha  occ. eigenvalues --   -1.02008  -0.87414  -0.86625  -0.54870  -0.16425
 Alpha virt. eigenvalues --   -0.01876   0.45765   1.27044   1.29557   1.98727

 Mulliken charges:
               1
     1  H    0.209823
     2  H    0.238600
     3  H   -0.210542
     4  H    0.209823
     5  H   -0.447703
     6  H   -0.447703
     7  H   -0.210542
     8  H    0.209823
     9  H    0.209823
    10  H    0.238600
 Sum of Mulliken charges =  -0.00000

 Dipole moment (field-independent basis, Debye):
    X=              0.0000    Y=             -0.0000    Z=             -0.0000  Tot=              0.0000
 Quadrupole moment (field-independent basis, Debye-Ang):
   XX=            -12.3101   YY=            -14.9122   ZZ=            -14.5000
   XY=             -0.0000   XZ=              0.0000   YZ=             -0.0000

 Normal termination of Gaussian 09 at Thu Feb  9 16:32:54 2017.
