 Gaussian 09, Revision E.01,
 Gaussian 09:  ES64L-G09RevE.01 30-Nov-2015

 ----------------------------------------------------------------------
 #rhf/gen scf(symm,tight,novaracc,noincfock,fulldiag) stable(crhf) geom
 =nocrowd test
 ----------------------------------------------------------------------

 ----------------------------------------------------------------------
 hf stability analysis of h10 triangular lattice, y= 2.1012334776544206
 ----------------------------------------------------------------------
 Symbolic Z-matrix:
 Charge =  0 Multiplicity = 1

                         Standard orientation:
 ---------------------------------------------------------------------
 Center     Atomic      Atomic             Coordinates (Angstroms)
 Number     Number       Type             X           Y           Z
 ---------------------------------------------------------------------
      1          1           0       -0.000000    2.101233    0.549535
      2          1           0       -0.000000   -0.000000    0.824302
      3          1           0       -0.000000   -0.000000    0.274767
      4          1           0       -0.000000   -2.101233    0.549535
      5          1           0       -0.000000    2.101233    0.000000
      6          1           0       -0.000000   -2.101233   -0.000000
      7          1           0        0.000000    0.000000   -0.274767
      8          1           0        0.000000    2.101233   -0.549535
      9          1           0       -0.000000   -2.101233   -0.549535
     10          1           0        0.000000    0.000000   -0.824302
 ---------------------------------------------------------------------

 SCF Done:  E(RHF) =  -3.89221771349     A.U. after    7 cycles
 E2 =    -0.1874281944D+00 EUMP2 =    -0.40796459079312D+01

 The electronic state is 1-AG.
 Alpha  occ. eigenvalues --   -1.02123  -0.87543  -0.86794  -0.54828  -0.16321
 Alpha virt. eigenvalues --   -0.01864   0.46091   1.27631   1.30100   1.99965

 Mulliken charges:
               1
     1  H    0.212362
     2  H    0.239821
     3  H   -0.212529
     4  H    0.212362
     5  H   -0.452015
     6  H   -0.452015
     7  H   -0.212529
     8  H    0.212362
     9  H    0.212362
    10  H    0.239821
 Sum of Mulliken charges =  -0.00000

 Dipole moment (field-independent basis, Debye):
    X=              0.0000    Y=             -0.0000    Z=              0.0000  Tot=              0.0000
 Quadrupole moment (field-independent basis, Debye-Ang):
   XX=            -12.3059   YY=            -14.8679   ZZ=            -14.5114
   XY=             -0.0000   XZ=              0.0000   YZ=             -0.0000

 Normal termination of Gaussian 09 at Thu Feb  9 16:32:56 2017.
