 Gaussian 09, Revision E.01,
 Gaussian 09:  ES64L-G09RevE.01 30-Nov-2015

 ----------------------------------------------------------------------
 #rhf/gen scf(symm,tight,novaracc,noincfock,fulldiag) stable(crhf) geom
 =nocrowd test
 ----------------------------------------------------------------------

 hf stability analysis of h10 triangular lattice, y= 0.8817045078007665
 9
 ----------------------------------------------------------------------
 Symbolic Z-matrix:
 Charge =  0 Multiplicity = 1

                         Standard orientation:
 ---------------------------------------------------------------------
 Center     Atomic      Atomic             Coordinates (Angstroms)
 Number     Number       Type             X           Y           Z
 ---------------------------------------------------------------------
      1          1           0       -0.000000    0.881704    1.309623
      2          1           0       -0.000000   -0.000000    1.964435
      3          1           0       -0.000000   -0.000000    0.654812
      4          1           0       -0.000000   -0.881704    1.309623
      5          1           0       -0.000000    0.881704    0.000000
      6          1           0       -0.000000   -0.881704   -0.000000
      7          1           0        0.000000    0.000000   -0.654812
      8          1           0        0.000000    0.881704   -1.309623
      9          1           0       -0.000000   -0.881704   -1.309623
     10          1           0        0.000000    0.000000   -1.964435
 ---------------------------------------------------------------------

 SCF Done:  E(RHF) =  -4.96333148768     A.U. after    8 cycles
 E2 =    -0.9667974388D-01 EUMP2 =    -0.50600112315516D+01

 The electronic state is 1-AG.
 Alpha  occ. eigenvalues --   -0.94821  -0.74569  -0.54821  -0.46324  -0.32020
 Alpha virt. eigenvalues --    0.09369   0.19979   0.28987   0.49471   0.50510

 Mulliken charges:
               1
     1  H   -0.145393
     2  H    0.110061
     3  H    0.101671
     4  H   -0.145393
     5  H    0.079053
     6  H    0.079053
     7  H    0.101671
     8  H   -0.145393
     9  H   -0.145393
    10  H    0.110061
 Sum of Mulliken charges =  -0.00000

 Dipole moment (field-independent basis, Debye):
    X=              0.0000    Y=              0.0000    Z=             -0.0000  Tot=              0.0000
 Quadrupole moment (field-independent basis, Debye-Ang):
   XX=            -12.9238   YY=            -17.0169   ZZ=            -15.7891
   XY=             -0.0000   XZ=             -0.0000   YZ=             -0.0000

 Normal termination of Gaussian 09 at Thu Feb  9 16:12:34 2017.
