 Gaussian 09, Revision E.01,
 Gaussian 09:  ES64L-G09RevE.01 30-Nov-2015

 ----------------------------------------------------------------------
 #rhf/gen scf(symm,tight,novaracc,noincfock,fulldiag) stable(crhf) geom
 =nocrowd test
 ----------------------------------------------------------------------

 ----------------------------------------------------------------------
 hf stability analysis of h10 triangular lattice, y= 1.1139829247304520
 ----------------------------------------------------------------------
 Symbolic Z-matrix:
 Charge =  0 Multiplicity = 1

                         Standard orientation:
 ---------------------------------------------------------------------
 Center     Atomic      Atomic             Coordinates (Angstroms)
 Number     Number       Type             X           Y           Z
 ---------------------------------------------------------------------
      1          1           0       -0.000000    1.113983    1.036551
      2          1           0       -0.000000    0.000000    1.554827
      3          1           0       -0.000000    0.000000    0.518276
      4          1           0       -0.000000   -1.113983    1.036551
      5          1           0       -0.000000    1.113983   -0.000000
      6          1           0       -0.000000   -1.113983    0.000000
      7          1           0        0.000000   -0.000000   -0.518276
      8          1           0        0.000000    1.113983   -1.036551
      9          1           0       -0.000000   -1.113983   -1.036551
     10          1           0        0.000000   -0.000000   -1.554827
 ---------------------------------------------------------------------

 SCF Done:  E(RHF) =  -4.82147882736     A.U. after   11 cycles
 E2 =    -0.1115030104D+00 EUMP2 =    -0.49329818377695D+01

 The electronic state is 1-AG.
 Alpha  occ. eigenvalues --   -0.97240  -0.70292  -0.65753  -0.33499  -0.32857
 Alpha virt. eigenvalues --   -0.03462   0.23370   0.36565   0.42673   0.67323

 Mulliken charges:
               1
     1  H    0.024927
     2  H   -0.124390
     3  H    0.132735
     4  H    0.024927
     5  H   -0.058198
     6  H   -0.058198
     7  H    0.132735
     8  H    0.024927
     9  H    0.024927
    10  H   -0.124390
 Sum of Mulliken charges =  -0.00000

 Dipole moment (field-independent basis, Debye):
    X=             -0.0000    Y=              0.0000    Z=             -0.0000  Tot=              0.0000
 Quadrupole moment (field-independent basis, Debye-Ang):
   XX=            -12.7070   YY=            -14.3777   ZZ=            -19.1961
   XY=             -0.0000   XZ=              0.0000   YZ=              0.0000

 Normal termination of Gaussian 09 at Thu Feb  9 16:20:43 2017.
