 Gaussian 09, Revision E.01,
 Gaussian 09:  ES64L-G09RevE.01 30-Nov-2015

 ----------------------------------------------------------------------
 #rhf/gen scf(symm,tight,novaracc,noincfock,fulldiag) stable(crhf) geom
 =nocrowd test
 ----------------------------------------------------------------------

 ----------------------------------------------------------------------
 hf stability analysis of h10 triangular lattice, y= 2.0078476644618948
 ----------------------------------------------------------------------
 Symbolic Z-matrix:
 Charge =  0 Multiplicity = 1

                         Standard orientation:
 ---------------------------------------------------------------------
 Center     Atomic      Atomic             Coordinates (Angstroms)
 Number     Number       Type             X           Y           Z
 ---------------------------------------------------------------------
      1          1           0       -0.000000    2.007848    0.575094
      2          1           0        0.000000    0.000000    0.862641
      3          1           0        0.000000    0.000000    0.287547
      4          1           0       -0.000000   -2.007848    0.575094
      5          1           0       -0.000000    2.007848    0.000000
      6          1           0       -0.000000   -2.007848    0.000000
      7          1           0        0.000000   -0.000000   -0.287547
      8          1           0        0.000000    2.007848   -0.575094
      9          1           0       -0.000000   -2.007848   -0.575094
     10          1           0        0.000000   -0.000000   -0.862641
 ---------------------------------------------------------------------

 SCF Done:  E(RHF) =  -4.09907934910     A.U. after    7 cycles
 E2 =    -0.1671668510D+00 EUMP2 =    -0.42662462000569D+01

 The electronic state is 1-AG.
 Alpha  occ. eigenvalues --   -1.00708  -0.85816  -0.84411  -0.55435  -0.17727
 Alpha virt. eigenvalues --   -0.01916   0.41709   1.19903   1.23032   1.83776

 Mulliken charges:
               1
     1  H    0.178737
     2  H    0.226134
     3  H   -0.187169
     4  H    0.178737
     5  H   -0.396439
     6  H   -0.396439
     7  H   -0.187169
     8  H    0.178737
     9  H    0.178737
    10  H    0.226134
 Sum of Mulliken charges =  -0.00000

 Dipole moment (field-independent basis, Debye):
    X=              0.0000    Y=             -0.0000    Z=              0.0000  Tot=              0.0000
 Quadrupole moment (field-independent basis, Debye-Ang):
   XX=            -12.3610   YY=            -15.4923   ZZ=            -14.3453
   XY=             -0.0000   XZ=              0.0000   YZ=              0.0000

 Normal termination of Gaussian 09 at Thu Feb  9 16:32:27 2017.
