 Gaussian 09, Revision E.01,
 Gaussian 09:  ES64L-G09RevE.01 30-Nov-2015

 ----------------------------------------------------------------------
 #rhf/gen scf(symm,tight,novaracc,noincfock,fulldiag) stable(crhf) geom
 =nocrowd test
 ----------------------------------------------------------------------

 ----------------------------------------------------------------------
 hf stability analysis of h10 triangular lattice, y= 1.6959631686847902
 ----------------------------------------------------------------------
 Symbolic Z-matrix:
 Charge =  0 Multiplicity = 1

                         Standard orientation:
 ---------------------------------------------------------------------
 Center     Atomic      Atomic             Coordinates (Angstroms)
 Number     Number       Type             X           Y           Z
 ---------------------------------------------------------------------
      1          1           0       -0.000000    1.695963    0.680852
      2          1           0       -0.000000   -0.000000    1.021279
      3          1           0       -0.000000   -0.000000    0.340426
      4          1           0       -0.000000   -1.695963    0.680852
      5          1           0       -0.000000    1.695963    0.000000
      6          1           0       -0.000000   -1.695963   -0.000000
      7          1           0        0.000000    0.000000   -0.340426
      8          1           0        0.000000    1.695963   -0.680852
      9          1           0       -0.000000   -1.695963   -0.680852
     10          1           0        0.000000    0.000000   -1.021279
 ---------------------------------------------------------------------

 SCF Done:  E(RHF) =  -4.67046340092     A.U. after    7 cycles
 E2 =    -0.1109245464D+00 EUMP2 =    -0.47813879473578D+01

 The electronic state is 1-AG.
 Alpha  occ. eigenvalues --   -0.97500  -0.79565  -0.73241  -0.58591  -0.22897
 Alpha virt. eigenvalues --    0.00183   0.25710   0.93936   1.01108   1.31472

 Mulliken charges:
               1
     1  H    0.061684
     2  H    0.222655
     3  H   -0.115431
     4  H    0.061684
     5  H   -0.230593
     6  H   -0.230593
     7  H   -0.115431
     8  H    0.061684
     9  H    0.061684
    10  H    0.222655
 Sum of Mulliken charges =  -0.00000

 Dipole moment (field-independent basis, Debye):
    X=              0.0000    Y=             -0.0000    Z=              0.0000  Tot=              0.0000
 Quadrupole moment (field-independent basis, Debye-Ang):
   XX=            -12.5297   YY=            -18.0856   ZZ=            -13.3808
   XY=             -0.0000   XZ=              0.0000   YZ=              0.0000

 Normal termination of Gaussian 09 at Thu Feb  9 16:30:13 2017.
