 Gaussian 09, Revision E.01,
 Gaussian 09:  ES64L-G09RevE.01 30-Nov-2015

 ----------------------------------------------------------------------
 #rhf/gen scf(symm,tight,novaracc,noincfock,fulldiag) stable(crhf) geom
 =nocrowd test
 ----------------------------------------------------------------------

 ----------------------------------------------------------------------
 hf stability analysis of h10 triangular lattice, y= 1.5813852119866876
 ----------------------------------------------------------------------
 Symbolic Z-matrix:
 Charge =  0 Multiplicity = 1

                         Standard orientation:
 ---------------------------------------------------------------------
 Center     Atomic      Atomic             Coordinates (Angstroms)
 Number     Number       Type             X           Y           Z
 ---------------------------------------------------------------------
      1          1           0       -0.000000    1.581385    0.730183
      2          1           0       -0.000000    0.000000    1.095275
      3          1           0       -0.000000    0.000000    0.365091
      4          1           0       -0.000000   -1.581385    0.730183
      5          1           0       -0.000000    1.581385   -0.000000
      6          1           0       -0.000000   -1.581385    0.000000
      7          1           0        0.000000   -0.000000   -0.365091
      8          1           0        0.000000    1.581385   -0.730183
      9          1           0       -0.000000   -1.581385   -0.730183
     10          1           0        0.000000   -0.000000   -1.095275
 ---------------------------------------------------------------------

 SCF Done:  E(RHF) =  -4.81769445248     A.U. after    7 cycles
 E2 =    -0.9795177560D-01 EUMP2 =    -0.49156462280740D+01

 The electronic state is 1-AG.
 Alpha  occ. eigenvalues --   -0.96725  -0.77046  -0.67513  -0.60226  -0.24959
 Alpha virt. eigenvalues --    0.02222   0.19414   0.84233   0.93966   1.13107

 Mulliken charges:
               1
     1  H    0.017675
     2  H    0.237619
     3  H   -0.094666
     4  H    0.017675
     5  H   -0.178304
     6  H   -0.178304
     7  H   -0.094666
     8  H    0.017675
     9  H    0.017675
    10  H    0.237619
 Sum of Mulliken charges =  -0.00000

 Dipole moment (field-independent basis, Debye):
    X=              0.0000    Y=             -0.0000    Z=              0.0000  Tot=              0.0000
 Quadrupole moment (field-independent basis, Debye-Ang):
   XX=            -12.5754   YY=            -19.0940   ZZ=            -12.7672
   XY=             -0.0000   XZ=             -0.0000   YZ=             -0.0000

 Normal termination of Gaussian 09 at Thu Feb  9 16:29:04 2017.
