 Gaussian 09, Revision E.01,
 Gaussian 09:  ES64L-G09RevE.01 30-Nov-2015

 ----------------------------------------------------------------------
 #rhf/gen scf(symm,tight,novaracc,noincfock,fulldiag) stable(crhf) geom
 =nocrowd test
 ----------------------------------------------------------------------

 ----------------------------------------------------------------------
 hf stability analysis of h10 triangular lattice, y= 1.2153259707432924
 ----------------------------------------------------------------------
 Symbolic Z-matrix:
 Charge =  0 Multiplicity = 1

                         Standard orientation:
 ---------------------------------------------------------------------
 Center     Atomic      Atomic             Coordinates (Angstroms)
 Number     Number       Type             X           Y           Z
 ---------------------------------------------------------------------
      1          1           0        0.000000    1.215326    0.950116
      2          1           0        0.000000   -0.000000    1.425174
      3          1           0        0.000000   -0.000000    0.475058
      4          1           0       -0.000000   -1.215326    0.950116
      5          1           0       -0.000000    1.215326    0.000000
      6          1           0       -0.000000   -1.215326   -0.000000
      7          1           0        0.000000    0.000000   -0.475058
      8          1           0        0.000000    1.215326   -0.950116
      9          1           0       -0.000000   -1.215326   -0.950116
     10          1           0        0.000000    0.000000   -1.425174
 ---------------------------------------------------------------------

 SCF Done:  E(RHF) =  -4.89506042663     A.U. after    9 cycles
 E2 =    -0.9469445456D-01 EUMP2 =    -0.49897548811896D+01

 The electronic state is 1-AG.
 Alpha  occ. eigenvalues --   -0.94186  -0.67377  -0.66885  -0.40930  -0.30760
 Alpha virt. eigenvalues --   -0.00813   0.15479   0.52525   0.58824   0.75117

 Mulliken charges:
               1
     1  H   -0.083754
     2  H    0.281178
     3  H   -0.030869
     4  H   -0.083754
     5  H   -0.082802
     6  H   -0.082802
     7  H   -0.030869
     8  H   -0.083754
     9  H   -0.083754
    10  H    0.281178
 Sum of Mulliken charges =  -0.00000

 Dipole moment (field-independent basis, Debye):
    X=              0.0000    Y=             -0.0000    Z=              0.0000  Tot=              0.0000
 Quadrupole moment (field-independent basis, Debye-Ang):
   XX=            -12.5980   YY=            -21.3140   ZZ=             -9.6030
   XY=             -0.0000   XZ=             -0.0000   YZ=             -0.0000

 Normal termination of Gaussian 09 at Thu Feb  9 16:23:15 2017.
