 Gaussian 09, Revision E.01,
 Gaussian 09:  ES64L-G09RevE.01 30-Nov-2015

 ----------------------------------------------------------------------
 #rhf/gen scf(symm,tight,novaracc,noincfock,fulldiag) stable(crhf) geom
 =nocrowd test
 ----------------------------------------------------------------------

 hf stability analysis of h10 triangular lattice, y= 0.8898004752336952
 1
 ----------------------------------------------------------------------
 Symbolic Z-matrix:
 Charge =  0 Multiplicity = 1

                         Standard orientation:
 ---------------------------------------------------------------------
 Center     Atomic      Atomic             Coordinates (Angstroms)
 Number     Number       Type             X           Y           Z
 ---------------------------------------------------------------------
      1          1           0       -0.000000    0.889800    1.297707
      2          1           0       -0.000000   -0.000000    1.946561
      3          1           0       -0.000000   -0.000000    0.648854
      4          1           0       -0.000000   -0.889800    1.297707
      5          1           0       -0.000000    0.889800    0.000000
      6          1           0       -0.000000   -0.889800   -0.000000
      7          1           0        0.000000    0.000000   -0.648854
      8          1           0        0.000000    0.889800   -1.297707
      9          1           0       -0.000000   -0.889800   -1.297707
     10          1           0        0.000000    0.000000   -1.946561
 ---------------------------------------------------------------------

 SCF Done:  E(RHF) =  -4.96574354394     A.U. after    8 cycles
 E2 =    -0.9684590184D-01 EUMP2 =    -0.50625894457813D+01

 The electronic state is 1-AG.
 Alpha  occ. eigenvalues --   -0.94999  -0.74486  -0.55304  -0.45912  -0.32215
 Alpha virt. eigenvalues --    0.10211   0.20398   0.27600   0.48830   0.51364

 Mulliken charges:
               1
     1  H   -0.141743
     2  H    0.102544
     3  H    0.100664
     4  H   -0.141743
     5  H    0.080278
     6  H    0.080278
     7  H    0.100664
     8  H   -0.141743
     9  H   -0.141743
    10  H    0.102544
 Sum of Mulliken charges =   0.00000

 Dipole moment (field-independent basis, Debye):
    X=              0.0000    Y=              0.0000    Z=              0.0000  Tot=              0.0000
 Quadrupole moment (field-independent basis, Debye-Ang):
   XX=            -12.9184   YY=            -16.9095   ZZ=            -16.0344
   XY=             -0.0000   XZ=             -0.0000   YZ=              0.0000

 Normal termination of Gaussian 09 at Thu Feb  9 16:12:55 2017.
