 Gaussian 09, Revision E.01,
 Gaussian 09:  ES64L-G09RevE.01 30-Nov-2015

 ----------------------------------------------------------------------
 #rhf/gen scf(symm,tight,novaracc,noincfock,fulldiag) stable(crhf) geom
 =nocrowd test
 ----------------------------------------------------------------------

 ----------------------------------------------------------------------
 hf stability analysis of h10 triangular lattice, y= 1.2839991243785358
 ----------------------------------------------------------------------
 Symbolic Z-matrix:
 Charge =  0 Multiplicity = 1

                         Standard orientation:
 ---------------------------------------------------------------------
 Center     Atomic      Atomic             Coordinates (Angstroms)
 Number     Number       Type             X           Y           Z
 ---------------------------------------------------------------------
      1          1           0       -0.000000    1.283999    0.899300
      2          1           0       -0.000000   -0.000000    1.348950
      3          1           0       -0.000000   -0.000000    0.449650
      4          1           0       -0.000000   -1.283999    0.899300
      5          1           0       -0.000000    1.283999    0.000000
      6          1           0       -0.000000   -1.283999   -0.000000
      7          1           0        0.000000    0.000000   -0.449650
      8          1           0        0.000000    1.283999   -0.899300
      9          1           0       -0.000000   -1.283999   -0.899300
     10          1           0        0.000000    0.000000   -1.348950
 ---------------------------------------------------------------------

 SCF Done:  E(RHF) =  -4.94015068647     A.U. after    8 cycles
 E2 =    -0.8968415695D-01 EUMP2 =    -0.50298348434230D+01

 The electronic state is 1-AG.
 Alpha  occ. eigenvalues --   -0.94651  -0.69421  -0.65463  -0.46990  -0.29945
 Alpha virt. eigenvalues --    0.02773   0.12186   0.58574   0.68472   0.78370

 Mulliken charges:
               1
     1  H   -0.080619
     2  H    0.291184
     3  H   -0.050771
     4  H   -0.080619
     5  H   -0.079175
     6  H   -0.079175
     7  H   -0.050771
     8  H   -0.080619
     9  H   -0.080619
    10  H    0.291184
 Sum of Mulliken charges =   0.00000

 Dipole moment (field-independent basis, Debye):
    X=              0.0000    Y=              0.0000    Z=              0.0000  Tot=              0.0000
 Quadrupole moment (field-independent basis, Debye-Ang):
   XX=            -12.6118   YY=            -21.1941   ZZ=            -10.1845
   XY=             -0.0000   XZ=             -0.0000   YZ=              0.0000

 Normal termination of Gaussian 09 at Thu Feb  9 16:24:41 2017.
