 Gaussian 09, Revision E.01,
 Gaussian 09:  ES64L-G09RevE.01 30-Nov-2015

 ----------------------------------------------------------------------
 #rhf/gen scf(symm,tight,novaracc,noincfock,fulldiag) stable(crhf) geom
 =nocrowd test
 ----------------------------------------------------------------------

 hf stability analysis of h10 triangular lattice, y= 0.7813647159178956
 9
 ----------------------------------------------------------------------
 Symbolic Z-matrix:
 Charge =  0 Multiplicity = 1

                         Standard orientation:
 ---------------------------------------------------------------------
 Center     Atomic      Atomic             Coordinates (Angstroms)
 Number     Number       Type             X           Y           Z
 ---------------------------------------------------------------------
      1          1           0       -0.000000    0.781365    1.477800
      2          1           0       -0.000000   -0.000000    2.216700
      3          1           0       -0.000000   -0.000000    0.738900
      4          1           0       -0.000000   -0.781365    1.477800
      5          1           0       -0.000000    0.781365    0.000000
      6          1           0       -0.000000   -0.781365   -0.000000
      7          1           0        0.000000    0.000000   -0.738900
      8          1           0        0.000000    0.781365   -1.477800
      9          1           0       -0.000000   -0.781365   -1.477800
     10          1           0        0.000000    0.000000   -2.216700
 ---------------------------------------------------------------------

 SCF Done:  E(RHF) =  -4.88556472934     A.U. after    8 cycles
 E2 =    -0.9686188480D-01 EUMP2 =    -0.49824266141423D+01

 The electronic state is 1-AG.
 Alpha  occ. eigenvalues --   -0.91876  -0.74844  -0.51003  -0.48025  -0.28633
 Alpha virt. eigenvalues --   -0.00164   0.15781   0.37601   0.47938   0.54969

 Mulliken charges:
               1
     1  H   -0.196339
     2  H    0.206459
     3  H    0.137067
     4  H   -0.196339
     5  H    0.049151
     6  H    0.049151
     7  H    0.137067
     8  H   -0.196339
     9  H   -0.196339
    10  H    0.206459
 Sum of Mulliken charges =  -0.00000

 Dipole moment (field-independent basis, Debye):
    X=              0.0000    Y=              0.0000    Z=              0.0000  Tot=              0.0000
 Quadrupole moment (field-independent basis, Debye-Ang):
   XX=            -12.9893   YY=            -18.3046   ZZ=            -12.0693
   XY=             -0.0000   XZ=             -0.0000   YZ=             -0.0000

 Normal termination of Gaussian 09 at Thu Feb  9 16:07:48 2017.
