 Gaussian 09, Revision E.01,
 Gaussian 09:  ES64L-G09RevE.01 30-Nov-2015

 ----------------------------------------------------------------------
 #rhf/gen scf(symm,tight,novaracc,noincfock,fulldiag) stable(crhf) geom
 =nocrowd test
 ----------------------------------------------------------------------

 hf stability analysis of h10 triangular lattice, y= 0.7718674025216636
 4
 ----------------------------------------------------------------------
 Symbolic Z-matrix:
 Charge =  0 Multiplicity = 1

                         Standard orientation:
 ---------------------------------------------------------------------
 Center     Atomic      Atomic             Coordinates (Angstroms)
 Number     Number       Type             X           Y           Z
 ---------------------------------------------------------------------
      1          1           0       -0.000000    0.771867    1.495983
      2          1           0       -0.000000    0.000000    2.243975
      3          1           0       -0.000000    0.000000    0.747992
      4          1           0       -0.000000   -0.771867    1.495983
      5          1           0       -0.000000    0.771867    0.000000
      6          1           0       -0.000000   -0.771867   -0.000000
      7          1           0        0.000000   -0.000000   -0.747992
      8          1           0        0.000000    0.771867   -1.495983
      9          1           0       -0.000000   -0.771867   -1.495983
     10          1           0        0.000000   -0.000000   -2.243975
 ---------------------------------------------------------------------

 SCF Done:  E(RHF) =  -4.87356333660     A.U. after    8 cycles
 E2 =    -0.9710332554D-01 EUMP2 =    -0.49706666621465D+01

 The electronic state is 1-AG.
 Alpha  occ. eigenvalues --   -0.91518  -0.74786  -0.51397  -0.47292  -0.28206
 Alpha virt. eigenvalues --   -0.00958   0.15492   0.36332   0.49669   0.55114

 Mulliken charges:
               1
     1  H   -0.201844
     2  H    0.215905
     3  H    0.143208
     4  H   -0.201844
     5  H    0.044576
     6  H    0.044576
     7  H    0.143208
     8  H   -0.201844
     9  H   -0.201844
    10  H    0.215905
 Sum of Mulliken charges =  -0.00000

 Dipole moment (field-independent basis, Debye):
    X=              0.0000    Y=              0.0000    Z=             -0.0000  Tot=              0.0000
 Quadrupole moment (field-independent basis, Debye-Ang):
   XX=            -12.9953   YY=            -18.4212   ZZ=            -11.6405
   XY=             -0.0000   XZ=             -0.0000   YZ=             -0.0000

 Normal termination of Gaussian 09 at Thu Feb  9 16:07:18 2017.
