 Gaussian 09, Revision E.01,
 Gaussian 09:  ES64L-G09RevE.01 30-Nov-2015

 ----------------------------------------------------------------------
 #rhf/gen scf(symm,tight,novaracc,noincfock,fulldiag) stable(crhf) geom
 =nocrowd test
 ----------------------------------------------------------------------

 hf stability analysis of h10 triangular lattice, y= 0.7759222389953119
 9
 ----------------------------------------------------------------------
 Symbolic Z-matrix:
 Charge =  0 Multiplicity = 1

                         Standard orientation:
 ---------------------------------------------------------------------
 Center     Atomic      Atomic             Coordinates (Angstroms)
 Number     Number       Type             X           Y           Z
 ---------------------------------------------------------------------
      1          1           0        0.000000    0.775922    1.488165
      2          1           0        0.000000    0.000000    2.232248
      3          1           0        0.000000    0.000000    0.744083
      4          1           0       -0.000000   -0.775922    1.488165
      5          1           0       -0.000000    0.775922    0.000000
      6          1           0       -0.000000   -0.775922   -0.000000
      7          1           0        0.000000    0.000000   -0.744083
      8          1           0        0.000000    0.775922   -1.488165
      9          1           0       -0.000000   -0.775922   -1.488165
     10          1           0        0.000000    0.000000   -2.232248
 ---------------------------------------------------------------------

 SCF Done:  E(RHF) =  -4.87878698587     A.U. after    8 cycles
 E2 =    -0.9699519984D-01 EUMP2 =    -0.49757821857056D+01

 The electronic state is 1-AG.
 Alpha  occ. eigenvalues --   -0.91673  -0.74813  -0.51230  -0.47608  -0.28391
 Alpha virt. eigenvalues --   -0.00622   0.15613   0.36879   0.48929   0.55063

 Mulliken charges:
               1
     1  H   -0.199477
     2  H    0.211866
     3  H    0.140516
     4  H   -0.199477
     5  H    0.046573
     6  H    0.046573
     7  H    0.140516
     8  H   -0.199477
     9  H   -0.199477
    10  H    0.211866
 Sum of Mulliken charges =  -0.00000

 Dipole moment (field-independent basis, Debye):
    X=              0.0000    Y=              0.0000    Z=             -0.0000  Tot=              0.0000
 Quadrupole moment (field-independent basis, Debye-Ang):
   XX=            -12.9927   YY=            -18.3716   ZZ=            -11.8255
   XY=             -0.0000   XZ=             -0.0000   YZ=             -0.0000

 Normal termination of Gaussian 09 at Thu Feb  9 16:07:31 2017.
