 Gaussian 09, Revision E.01,
 Gaussian 09:  ES64L-G09RevE.01 30-Nov-2015

 ----------------------------------------------------------------------
 #rhf/gen scf(symm,tight,novaracc,noincfock,fulldiag) stable(crhf) geom
 =nocrowd test
 ----------------------------------------------------------------------

 ----------------------------------------------------------------------
 hf stability analysis of h10 triangular lattice, y= 1.5658605742718710
 ----------------------------------------------------------------------
 Symbolic Z-matrix:
 Charge =  0 Multiplicity = 1

                         Standard orientation:
 ---------------------------------------------------------------------
 Center     Atomic      Atomic             Coordinates (Angstroms)
 Number     Number       Type             X           Y           Z
 ---------------------------------------------------------------------
      1          1           0       -0.000000    1.565861    0.737422
      2          1           0       -0.000000    0.000000    1.106134
      3          1           0       -0.000000    0.000000    0.368711
      4          1           0       -0.000000   -1.565861    0.737422
      5          1           0       -0.000000    1.565861    0.000000
      6          1           0       -0.000000   -1.565861    0.000000
      7          1           0        0.000000    0.000000   -0.368711
      8          1           0        0.000000    1.565861   -0.737422
      9          1           0       -0.000000   -1.565861   -0.737422
     10          1           0        0.000000    0.000000   -1.106134
 ---------------------------------------------------------------------

 SCF Done:  E(RHF) =  -4.83421122779     A.U. after    8 cycles
 E2 =    -0.9658776771D-01 EUMP2 =    -0.49307989954926D+01

 The electronic state is 1-AG.
 Alpha  occ. eigenvalues --   -0.96626  -0.76692  -0.66655  -0.60466  -0.25241
 Alpha virt. eigenvalues --    0.02567   0.18550   0.82909   0.93046   1.10663

 Mulliken charges:
               1
     1  H    0.011771
     2  H    0.240196
     3  H   -0.092106
     4  H    0.011771
     5  H   -0.171631
     6  H   -0.171631
     7  H   -0.092106
     8  H    0.011771
     9  H    0.011771
    10  H    0.240196
 Sum of Mulliken charges =  -0.00000

 Dipole moment (field-independent basis, Debye):
    X=              0.0000    Y=              0.0000    Z=             -0.0000  Tot=              0.0000
 Quadrupole moment (field-independent basis, Debye-Ang):
   XX=            -12.5805   YY=            -19.2265   ZZ=            -12.6692
   XY=             -0.0000   XZ=             -0.0000   YZ=             -0.0000

 Normal termination of Gaussian 09 at Thu Feb  9 16:28:53 2017.
