 Gaussian 09, Revision E.01,
 Gaussian 09:  ES64L-G09RevE.01 30-Nov-2015

 ----------------------------------------------------------------------
 #rhf/gen scf(symm,tight,novaracc,noincfock,fulldiag) stable(crhf) geom
 =nocrowd test
 ----------------------------------------------------------------------

 ----------------------------------------------------------------------
 hf stability analysis of h10 triangular lattice, y= 1.6845675376176648
 ----------------------------------------------------------------------
 Symbolic Z-matrix:
 Charge =  0 Multiplicity = 1

                         Standard orientation:
 ---------------------------------------------------------------------
 Center     Atomic      Atomic             Coordinates (Angstroms)
 Number     Number       Type             X           Y           Z
 ---------------------------------------------------------------------
      1          1           0        0.000000    1.684568    0.685458
      2          1           0        0.000000    0.000000    1.028187
      3          1           0        0.000000    0.000000    0.342729
      4          1           0       -0.000000   -1.684568    0.685458
      5          1           0       -0.000000    1.684568   -0.000000
      6          1           0       -0.000000   -1.684568   -0.000000
      7          1           0        0.000000    0.000000   -0.342729
      8          1           0        0.000000    1.684568   -0.685458
      9          1           0       -0.000000   -1.684568   -0.685458
     10          1           0        0.000000    0.000000   -1.028187
 ---------------------------------------------------------------------

 SCF Done:  E(RHF) =  -4.68694280335     A.U. after    7 cycles
 E2 =    -0.1094121232D+00 EUMP2 =    -0.47963549265843D+01

 The electronic state is 1-AG.
 Alpha  occ. eigenvalues --   -0.97418  -0.79321  -0.72717  -0.58742  -0.23100
 Alpha virt. eigenvalues --    0.00348   0.25092   0.92976   1.00372   1.29621

 Mulliken charges:
               1
     1  H    0.057296
     2  H    0.223792
     3  H   -0.113220
     4  H    0.057296
     5  H   -0.225165
     6  H   -0.225165
     7  H   -0.113220
     8  H    0.057296
     9  H    0.057296
    10  H    0.223792
 Sum of Mulliken charges =  -0.00000

 Dipole moment (field-independent basis, Debye):
    X=              0.0000    Y=              0.0000    Z=              0.0000  Tot=              0.0000
 Quadrupole moment (field-independent basis, Debye-Ang):
   XX=            -12.5348   YY=            -18.1872   ZZ=            -13.3278
   XY=             -0.0000   XZ=              0.0000   YZ=             -0.0000

 Normal termination of Gaussian 09 at Thu Feb  9 16:30:07 2017.
