 Gaussian 09, Revision E.01,
 Gaussian 09:  ES64L-G09RevE.01 30-Nov-2015

 ----------------------------------------------------------------------
 #rhf/gen scf(symm,tight,novaracc,noincfock,fulldiag) stable(crhf) geom
 =nocrowd test
 ----------------------------------------------------------------------

 ----------------------------------------------------------------------
 hf stability analysis of h10 triangular lattice, y= 1.0153487862282633
 ----------------------------------------------------------------------
 Symbolic Z-matrix:
 Charge =  0 Multiplicity = 1

                         Standard orientation:
 ---------------------------------------------------------------------
 Center     Atomic      Atomic             Coordinates (Angstroms)
 Number     Number       Type             X           Y           Z
 ---------------------------------------------------------------------
      1          1           0       -0.000000    1.015349    1.137245
      2          1           0       -0.000000    0.000000    1.705868
      3          1           0       -0.000000    0.000000    0.568623
      4          1           0       -0.000000   -1.015349    1.137245
      5          1           0       -0.000000    1.015349   -0.000000
      6          1           0       -0.000000   -1.015349    0.000000
      7          1           0        0.000000   -0.000000   -0.568623
      8          1           0        0.000000    1.015349   -1.137245
      9          1           0       -0.000000   -1.015349   -1.137245
     10          1           0        0.000000   -0.000000   -1.705868
 ---------------------------------------------------------------------

 SCF Done:  E(RHF) =  -4.93154669448     A.U. after    9 cycles
 E2 =    -0.1028493304D+00 EUMP2 =    -0.50343960248876D+01

 The electronic state is 1-AG.
 Alpha  occ. eigenvalues --   -0.96899  -0.72377  -0.61828  -0.39064  -0.34093
 Alpha virt. eigenvalues --    0.08454   0.23049   0.28077   0.39386   0.61673

 Mulliken charges:
               1
     1  H   -0.087964
     2  H   -0.011874
     3  H    0.105697
     4  H   -0.087964
     5  H    0.082105
     6  H    0.082105
     7  H    0.105697
     8  H   -0.087964
     9  H   -0.087964
    10  H   -0.011874
 Sum of Mulliken charges =   0.00000

 Dipole moment (field-independent basis, Debye):
    X=              0.0000    Y=              0.0000    Z=             -0.0000  Tot=              0.0000
 Quadrupole moment (field-independent basis, Debye-Ang):
   XX=            -12.8315   YY=            -15.1835   ZZ=            -19.0711
   XY=             -0.0000   XZ=              0.0000   YZ=              0.0000

 Normal termination of Gaussian 09 at Thu Feb  9 16:17:40 2017.
