 Gaussian 09, Revision E.01,
 Gaussian 09:  ES64L-G09RevE.01 30-Nov-2015

 ----------------------------------------------------------------------
 #rhf/gen scf(symm,tight,novaracc,noincfock,fulldiag) stable(crhf) geom
 =nocrowd test
 ----------------------------------------------------------------------

 ----------------------------------------------------------------------
 hf stability analysis of h10 triangular lattice, y= 1.5567476242560161
 ----------------------------------------------------------------------
 Symbolic Z-matrix:
 Charge =  0 Multiplicity = 1

                         Standard orientation:
 ---------------------------------------------------------------------
 Center     Atomic      Atomic             Coordinates (Angstroms)
 Number     Number       Type             X           Y           Z
 ---------------------------------------------------------------------
      1          1           0        0.000000    1.556748    0.741739
      2          1           0        0.000000   -0.000000    1.112609
      3          1           0        0.000000   -0.000000    0.370870
      4          1           0       -0.000000   -1.556748    0.741739
      5          1           0       -0.000000    1.556748    0.000000
      6          1           0       -0.000000   -1.556748   -0.000000
      7          1           0        0.000000    0.000000   -0.370870
      8          1           0        0.000000    1.556748   -0.741739
      9          1           0       -0.000000   -1.556748   -0.741739
     10          1           0        0.000000    0.000000   -1.112609
 ---------------------------------------------------------------------

 SCF Done:  E(RHF) =  -4.84348557695     A.U. after    8 cycles
 E2 =    -0.9583210113D-01 EUMP2 =    -0.49393176780781D+01

 The electronic state is 1-AG.
 Alpha  occ. eigenvalues --   -0.96568  -0.76482  -0.66141  -0.60609  -0.25406
 Alpha virt. eigenvalues --    0.02777   0.18042   0.82130   0.92511   1.09234

 Mulliken charges:
               1
     1  H    0.008317
     2  H    0.241761
     3  H   -0.090632
     4  H    0.008317
     5  H   -0.167763
     6  H   -0.167763
     7  H   -0.090632
     8  H    0.008317
     9  H    0.008317
    10  H    0.241761
 Sum of Mulliken charges =  -0.00000

 Dipole moment (field-independent basis, Debye):
    X=              0.0000    Y=             -0.0000    Z=              0.0000  Tot=              0.0000
 Quadrupole moment (field-independent basis, Debye-Ang):
   XX=            -12.5833   YY=            -19.3036   ZZ=            -12.6098
   XY=             -0.0000   XZ=             -0.0000   YZ=              0.0000

 Normal termination of Gaussian 09 at Thu Feb  9 16:28:47 2017.
