 Gaussian 09, Revision E.01,
 Gaussian 09:  ES64L-G09RevE.01 30-Nov-2015

 ----------------------------------------------------------------------
 #rhf/gen scf(symm,tight,novaracc,noincfock,fulldiag) stable(crhf) geom
 =nocrowd test
 ----------------------------------------------------------------------

 hf stability analysis of h10 triangular lattice, y= 0.9763803901699877
 9
 ----------------------------------------------------------------------
 Symbolic Z-matrix:
 Charge =  0 Multiplicity = 1

                         Standard orientation:
 ---------------------------------------------------------------------
 Center     Atomic      Atomic             Coordinates (Angstroms)
 Number     Number       Type             X           Y           Z
 ---------------------------------------------------------------------
      1          1           0        0.000000    0.976380    1.182634
      2          1           0        0.000000    0.000000    1.773951
      3          1           0        0.000000    0.000000    0.591317
      4          1           0       -0.000000   -0.976380    1.182634
      5          1           0       -0.000000    0.976380   -0.000000
      6          1           0       -0.000000   -0.976380    0.000000
      7          1           0        0.000000   -0.000000   -0.591317
      8          1           0        0.000000    0.976380   -1.182634
      9          1           0       -0.000000   -0.976380   -1.182634
     10          1           0        0.000000   -0.000000   -1.773951
 ---------------------------------------------------------------------

 SCF Done:  E(RHF) =  -4.95624293089     A.U. after    8 cycles
 E2 =    -0.1002857412D+00 EUMP2 =    -0.50565286720442D+01

 The electronic state is 1-AG.
 Alpha  occ. eigenvalues --   -0.96465  -0.73167  -0.59979  -0.41271  -0.33721
 Alpha virt. eigenvalues --    0.13931   0.19384   0.25483   0.41808   0.59038

 Mulliken charges:
               1
     1  H   -0.104780
     2  H    0.023693
     3  H    0.100730
     4  H   -0.104780
     5  H    0.085137
     6  H    0.085137
     7  H    0.100730
     8  H   -0.104780
     9  H   -0.104780
    10  H    0.023693
 Sum of Mulliken charges =  -0.00000

 Dipole moment (field-independent basis, Debye):
    X=              0.0000    Y=             -0.0000    Z=             -0.0000  Tot=              0.0000
 Quadrupole moment (field-independent basis, Debye-Ang):
   XX=            -12.8594   YY=            -15.7328   ZZ=            -18.2656
   XY=             -0.0000   XZ=              0.0000   YZ=              0.0000

 Normal termination of Gaussian 09 at Thu Feb  9 16:16:18 2017.
