 Gaussian 09, Revision E.01,
 Gaussian 09:  ES64L-G09RevE.01 30-Nov-2015

 ----------------------------------------------------------------------
 #rhf/gen scf(symm,tight,novaracc,noincfock,fulldiag) stable(crhf) geom
 =nocrowd test
 ----------------------------------------------------------------------

 ----------------------------------------------------------------------
 hf stability analysis of h10 triangular lattice, y= 1.8188096772254154
 ----------------------------------------------------------------------
 Symbolic Z-matrix:
 Charge =  0 Multiplicity = 1

                         Standard orientation:
 ---------------------------------------------------------------------
 Center     Atomic      Atomic             Coordinates (Angstroms)
 Number     Number       Type             X           Y           Z
 ---------------------------------------------------------------------
      1          1           0        0.000000    1.818810    0.634866
      2          1           0       -0.000000    0.000000    0.952299
      3          1           0       -0.000000    0.000000    0.317433
      4          1           0       -0.000000   -1.818810    0.634866
      5          1           0       -0.000000    1.818810    0.000000
      6          1           0       -0.000000   -1.818810    0.000000
      7          1           0        0.000000    0.000000   -0.317433
      8          1           0        0.000000    1.818810   -0.634866
      9          1           0       -0.000000   -1.818810   -0.634866
     10          1           0        0.000000    0.000000   -0.952299
 ---------------------------------------------------------------------

 SCF Done:  E(RHF) =  -4.47087762303     A.U. after    7 cycles
 E2 =    -0.1300400867D+00 EUMP2 =    -0.46009177096873D+01

 The electronic state is 1-AG.
 Alpha  occ. eigenvalues --   -0.98512  -0.82120  -0.78326  -0.57122  -0.20770
 Alpha virt. eigenvalues --   -0.01155   0.32246   1.04218   1.09371   1.51722

 Mulliken charges:
               1
     1  H    0.108661
     2  H    0.215934
     3  H   -0.141188
     4  H    0.108661
     5  H   -0.292067
     6  H   -0.292067
     7  H   -0.141188
     8  H    0.108661
     9  H    0.108661
    10  H    0.215934
 Sum of Mulliken charges =   0.00000

 Dipole moment (field-independent basis, Debye):
    X=              0.0000    Y=              0.0000    Z=              0.0000  Tot=              0.0000
 Quadrupole moment (field-independent basis, Debye-Ang):
   XX=            -12.4684   YY=            -17.0000   ZZ=            -13.8595
   XY=             -0.0000   XZ=              0.0000   YZ=              0.0000

 Normal termination of Gaussian 09 at Thu Feb  9 16:31:14 2017.
