 Gaussian 09, Revision E.01,
 Gaussian 09:  ES64L-G09RevE.01 30-Nov-2015

 ----------------------------------------------------------------------
 #rhf/gen scf(symm,tight,novaracc,noincfock,fulldiag) stable(crhf) geom
 =nocrowd test
 ----------------------------------------------------------------------

 ----------------------------------------------------------------------
 hf stability analysis of h10 triangular lattice, y= 1.0633312983770105
 ----------------------------------------------------------------------
 Symbolic Z-matrix:
 Charge =  0 Multiplicity = 1

                         Standard orientation:
 ---------------------------------------------------------------------
 Center     Atomic      Atomic             Coordinates (Angstroms)
 Number     Number       Type             X           Y           Z
 ---------------------------------------------------------------------
      1          1           0        0.000000    1.063331    1.085927
      2          1           0        0.000000   -0.000000    1.628891
      3          1           0        0.000000   -0.000000    0.542964
      4          1           0       -0.000000   -1.063331    1.085927
      5          1           0       -0.000000    1.063331    0.000000
      6          1           0       -0.000000   -1.063331   -0.000000
      7          1           0        0.000000    0.000000   -0.542964
      8          1           0        0.000000    1.063331   -1.085927
      9          1           0       -0.000000   -1.063331   -1.085927
     10          1           0        0.000000    0.000000   -1.628891
 ---------------------------------------------------------------------

 SCF Done:  E(RHF) =  -4.88494051264     A.U. after   10 cycles
 E2 =    -0.1069560782D+00 EUMP2 =    -0.49918965908850D+01

 The electronic state is 1-AG.
 Alpha  occ. eigenvalues --   -0.97292  -0.71311  -0.63925  -0.36246  -0.34310
 Alpha virt. eigenvalues --    0.02218   0.25429   0.31497   0.38874   0.64372

 Mulliken charges:
               1
     1  H   -0.062957
     2  H   -0.059097
     3  H    0.115977
     4  H   -0.062957
     5  H    0.069034
     6  H    0.069034
     7  H    0.115977
     8  H   -0.062957
     9  H   -0.062957
    10  H   -0.059097
 Sum of Mulliken charges =  -0.00000

 Dipole moment (field-independent basis, Debye):
    X=             -0.0000    Y=             -0.0000    Z=              0.0000  Tot=              0.0000
 Quadrupole moment (field-independent basis, Debye-Ang):
   XX=            -12.7940   YY=            -14.4863   ZZ=            -19.9131
   XY=             -0.0000   XZ=              0.0000   YZ=             -0.0000

 Normal termination of Gaussian 09 at Thu Feb  9 16:19:14 2017.
