 Gaussian 09, Revision E.01,
 Gaussian 09:  ES64L-G09RevE.01 30-Nov-2015

 ----------------------------------------------------------------------
 #rhf/gen scf(symm,tight,novaracc,noincfock,fulldiag) stable(crhf) geom
 =nocrowd test
 ----------------------------------------------------------------------

 hf stability analysis of h10 triangular lattice, y= 0.8221863201757335
 6
 ----------------------------------------------------------------------
 Symbolic Z-matrix:
 Charge =  0 Multiplicity = 1

                         Standard orientation:
 ---------------------------------------------------------------------
 Center     Atomic      Atomic             Coordinates (Angstroms)
 Number     Number       Type             X           Y           Z
 ---------------------------------------------------------------------
      1          1           0        0.000000    0.822186    1.404427
      2          1           0        0.000000    0.000000    2.106640
      3          1           0        0.000000    0.000000    0.702213
      4          1           0       -0.000000   -0.822186    1.404427
      5          1           0       -0.000000    0.822186   -0.000000
      6          1           0       -0.000000   -0.822186    0.000000
      7          1           0        0.000000   -0.000000   -0.702213
      8          1           0        0.000000    0.822186   -1.404427
      9          1           0       -0.000000   -0.822186   -1.404427
     10          1           0        0.000000   -0.000000   -2.106640
 ---------------------------------------------------------------------

 SCF Done:  E(RHF) =  -4.92794941539     A.U. after    8 cycles
 E2 =    -0.9627822497D-01 EUMP2 =    -0.50242276403689D+01

 The electronic state is 1-AG.
 Alpha  occ. eigenvalues --   -0.93249  -0.74917  -0.50986  -0.49204  -0.30243
 Alpha virt. eigenvalues --    0.03482   0.17248   0.39313   0.43942   0.53468

 Mulliken charges:
               1
     1  H   -0.174140
     2  H    0.166482
     3  H    0.116765
     4  H   -0.174140
     5  H    0.065033
     6  H    0.065033
     7  H    0.116765
     8  H   -0.174140
     9  H   -0.174140
    10  H    0.166482
 Sum of Mulliken charges =  -0.00000

 Dipole moment (field-independent basis, Debye):
    X=              0.0000    Y=              0.0000    Z=             -0.0000  Tot=              0.0000
 Quadrupole moment (field-independent basis, Debye-Ang):
   XX=            -12.9629   YY=            -17.7913   ZZ=            -13.7488
   XY=             -0.0000   XZ=             -0.0000   YZ=              0.0000

 Normal termination of Gaussian 09 at Thu Feb  9 16:09:51 2017.
