 Gaussian 09, Revision E.01,
 Gaussian 09:  ES64L-G09RevE.01 30-Nov-2015

 ----------------------------------------------------------------------
 #rhf/gen scf(symm,tight,novaracc,noincfock,fulldiag) stable(crhf) geom
 =nocrowd test
 ----------------------------------------------------------------------

 hf stability analysis of h10 triangular lattice, y= 0.9860875916972786
 6
 ----------------------------------------------------------------------
 Symbolic Z-matrix:
 Charge =  0 Multiplicity = 1

                         Standard orientation:
 ---------------------------------------------------------------------
 Center     Atomic      Atomic             Coordinates (Angstroms)
 Number     Number       Type             X           Y           Z
 ---------------------------------------------------------------------
      1          1           0       -0.000000    0.986088    1.170992
      2          1           0        0.000000    0.000000    1.756488
      3          1           0        0.000000    0.000000    0.585496
      4          1           0       -0.000000   -0.986088    1.170992
      5          1           0       -0.000000    0.986088    0.000000
      6          1           0       -0.000000   -0.986088    0.000000
      7          1           0        0.000000   -0.000000   -0.585496
      8          1           0        0.000000    0.986088   -1.170992
      9          1           0       -0.000000   -0.986088   -1.170992
     10          1           0        0.000000   -0.000000   -1.756488
 ---------------------------------------------------------------------

 SCF Done:  E(RHF) =  -4.95124054396     A.U. after    8 cycles
 E2 =    -0.1008636170D+00 EUMP2 =    -0.50521041609711D+01

 The electronic state is 1-AG.
 Alpha  occ. eigenvalues --   -0.96584  -0.72979  -0.60453  -0.40727  -0.33830
 Alpha virt. eigenvalues --    0.12530   0.20365   0.26113   0.41114   0.59737

 Mulliken charges:
               1
     1  H   -0.100685
     2  H    0.014904
     3  H    0.101718
     4  H   -0.100685
     5  H    0.084748
     6  H    0.084748
     7  H    0.101718
     8  H   -0.100685
     9  H   -0.100685
    10  H    0.014904
 Sum of Mulliken charges =   0.00000

 Dipole moment (field-independent basis, Debye):
    X=              0.0000    Y=              0.0000    Z=              0.0000  Tot=              0.0000
 Quadrupole moment (field-independent basis, Debye-Ang):
   XX=            -12.8526   YY=            -15.5973   ZZ=            -18.4766
   XY=             -0.0000   XZ=              0.0000   YZ=             -0.0000

 Normal termination of Gaussian 09 at Thu Feb  9 16:16:39 2017.
