 Gaussian 09, Revision E.01,
 Gaussian 09:  ES64L-G09RevE.01 30-Nov-2015

 ----------------------------------------------------------------------
 #rhf/gen scf(symm,tight,novaracc,noincfock,fulldiag) stable(crhf) geom
 =nocrowd test
 ----------------------------------------------------------------------

 hf stability analysis of h10 triangular lattice, y= 0.8398715525598882
 1
 ----------------------------------------------------------------------
 Symbolic Z-matrix:
 Charge =  0 Multiplicity = 1

                         Standard orientation:
 ---------------------------------------------------------------------
 Center     Atomic      Atomic             Coordinates (Angstroms)
 Number     Number       Type             X           Y           Z
 ---------------------------------------------------------------------
      1          1           0       -0.000000    0.839872    1.374854
      2          1           0       -0.000000   -0.000000    2.062281
      3          1           0       -0.000000   -0.000000    0.687427
      4          1           0       -0.000000   -0.839872    1.374854
      5          1           0       -0.000000    0.839872    0.000000
      6          1           0       -0.000000   -0.839872   -0.000000
      7          1           0        0.000000    0.000000   -0.687427
      8          1           0        0.000000    0.839872   -1.374854
      9          1           0       -0.000000   -0.839872   -1.374854
     10          1           0        0.000000    0.000000   -2.062281
 ---------------------------------------------------------------------

 SCF Done:  E(RHF) =  -4.94171940035     A.U. after    8 cycles
 E2 =    -0.9624547773D-01 EUMP2 =    -0.50379648780858D+01

 The electronic state is 1-AG.
 Alpha  occ. eigenvalues --   -0.93766  -0.74866  -0.52181  -0.48378  -0.30837
 Alpha virt. eigenvalues --    0.05168   0.17991   0.36356   0.45818   0.52454

 Mulliken charges:
               1
     1  H   -0.165199
     2  H    0.149490
     3  H    0.110697
     4  H   -0.165199
     5  H    0.070210
     6  H    0.070210
     7  H    0.110697
     8  H   -0.165199
     9  H   -0.165199
    10  H    0.149490
 Sum of Mulliken charges =   0.00000

 Dipole moment (field-independent basis, Debye):
    X=              0.0000    Y=              0.0000    Z=              0.0000  Tot=              0.0000
 Quadrupole moment (field-independent basis, Debye-Ang):
   XX=            -12.9514   YY=            -17.5640   ZZ=            -14.4016
   XY=             -0.0000   XZ=             -0.0000   YZ=             -0.0000

 Normal termination of Gaussian 09 at Thu Feb  9 16:10:41 2017.
