 Gaussian 09, Revision E.01,
 Gaussian 09:  ES64L-G09RevE.01 30-Nov-2015

 ----------------------------------------------------------------------
 #rhf/gen scf(symm,tight,novaracc,noincfock,fulldiag) stable(crhf) geom
 =nocrowd test
 ----------------------------------------------------------------------

 ----------------------------------------------------------------------
 hf stability analysis of h10 triangular lattice, y= 2.0596822134404817
 ----------------------------------------------------------------------
 Symbolic Z-matrix:
 Charge =  0 Multiplicity = 1

                         Standard orientation:
 ---------------------------------------------------------------------
 Center     Atomic      Atomic             Coordinates (Angstroms)
 Number     Number       Type             X           Y           Z
 ---------------------------------------------------------------------
      1          1           0       -0.000000    2.059682    0.560621
      2          1           0       -0.000000   -0.000000    0.840931
      3          1           0       -0.000000   -0.000000    0.280310
      4          1           0       -0.000000   -2.059682    0.560621
      5          1           0       -0.000000    2.059682    0.000000
      6          1           0       -0.000000   -2.059682    0.000000
      7          1           0        0.000000   -0.000000   -0.280310
      8          1           0        0.000000    2.059682   -0.560621
      9          1           0       -0.000000   -2.059682   -0.560621
     10          1           0        0.000000   -0.000000   -0.840931
 ---------------------------------------------------------------------

 SCF Done:  E(RHF) =  -3.98593959936     A.U. after    7 cycles
 E2 =    -0.1783284227D+00 EUMP2 =    -0.41642680220471D+01

 The electronic state is 1-AG.
 Alpha  occ. eigenvalues --   -1.01467  -0.86783  -0.85777  -0.55082  -0.16939
 Alpha virt. eigenvalues --   -0.01916   0.44165   1.24192   1.26933   1.92733

 Mulliken charges:
               1
     1  H    0.197462
     2  H    0.233084
     3  H   -0.201035
     4  H    0.197462
     5  H   -0.426973
     6  H   -0.426973
     7  H   -0.201035
     8  H    0.197462
     9  H    0.197462
    10  H    0.233084
 Sum of Mulliken charges =  -0.00000

 Dipole moment (field-independent basis, Debye):
    X=              0.0000    Y=              0.0000    Z=              0.0000  Tot=              0.0000
 Quadrupole moment (field-independent basis, Debye-Ang):
   XX=            -12.3305   YY=            -15.1348   ZZ=            -14.4420
   XY=             -0.0000   XZ=              0.0000   YZ=              0.0000

 Normal termination of Gaussian 09 at Thu Feb  9 16:32:44 2017.
