 Gaussian 09, Revision E.01,
 Gaussian 09:  ES64L-G09RevE.01 30-Nov-2015

 ----------------------------------------------------------------------
 #rhf/gen scf(symm,tight,novaracc,noincfock,fulldiag) stable(crhf) geom
 =nocrowd test
 ----------------------------------------------------------------------

 hf stability analysis of h10 triangular lattice, y= 0.7854743659700788
 0
 ----------------------------------------------------------------------
 Symbolic Z-matrix:
 Charge =  0 Multiplicity = 1

                         Standard orientation:
 ---------------------------------------------------------------------
 Center     Atomic      Atomic             Coordinates (Angstroms)
 Number     Number       Type             X           Y           Z
 ---------------------------------------------------------------------
      1          1           0        0.000000    0.785474    1.470068
      2          1           0        0.000000    0.000000    2.205102
      3          1           0        0.000000    0.000000    0.735034
      4          1           0       -0.000000   -0.785474    1.470068
      5          1           0       -0.000000    0.785474    0.000000
      6          1           0       -0.000000   -0.785474   -0.000000
      7          1           0        0.000000    0.000000   -0.735034
      8          1           0        0.000000    0.785474   -1.470068
      9          1           0       -0.000000   -0.785474   -1.470068
     10          1           0        0.000000    0.000000   -2.205102
 ---------------------------------------------------------------------

 SCF Done:  E(RHF) =  -4.89050583841     A.U. after    8 cycles
 E2 =    -0.9677008962D-01 EUMP2 =    -0.49872759280369D+01

 The electronic state is 1-AG.
 Alpha  occ. eigenvalues --   -0.92026  -0.74864  -0.50829  -0.48337  -0.28811
 Alpha virt. eigenvalues --    0.00186   0.15912   0.38133   0.47195   0.54881

 Mulliken charges:
               1
     1  H   -0.193998
     2  H    0.202388
     3  H    0.134585
     4  H   -0.193998
     5  H    0.051022
     6  H    0.051022
     7  H    0.134585
     8  H   -0.193998
     9  H   -0.193998
    10  H    0.202388
 Sum of Mulliken charges =  -0.00000

 Dipole moment (field-independent basis, Debye):
    X=              0.0000    Y=              0.0000    Z=              0.0000  Tot=              0.0000
 Quadrupole moment (field-independent basis, Debye-Ang):
   XX=            -12.9867   YY=            -18.2538   ZZ=            -12.2502
   XY=             -0.0000   XZ=             -0.0000   YZ=              0.0000

 Normal termination of Gaussian 09 at Thu Feb  9 16:08:01 2017.
