 Gaussian 09, Revision E.01,
 Gaussian 09:  ES64L-G09RevE.01 30-Nov-2015

 ----------------------------------------------------------------------
 #rhf/gen scf(symm,tight,novaracc,noincfock,fulldiag) stable(crhf) geom
 =nocrowd test
 ----------------------------------------------------------------------

 ----------------------------------------------------------------------
 hf stability analysis of h10 triangular lattice, y= 1.5877166265597418
 ----------------------------------------------------------------------
 Symbolic Z-matrix:
 Charge =  0 Multiplicity = 1

                         Standard orientation:
 ---------------------------------------------------------------------
 Center     Atomic      Atomic             Coordinates (Angstroms)
 Number     Number       Type             X           Y           Z
 ---------------------------------------------------------------------
      1          1           0       -0.000000    1.587717    0.727271
      2          1           0       -0.000000   -0.000000    1.090907
      3          1           0       -0.000000   -0.000000    0.363636
      4          1           0       -0.000000   -1.587717    0.727271
      5          1           0       -0.000000    1.587717    0.000000
      6          1           0       -0.000000   -1.587717   -0.000000
      7          1           0        0.000000    0.000000   -0.363636
      8          1           0        0.000000    1.587717   -0.727271
      9          1           0       -0.000000   -1.587717   -0.727271
     10          1           0        0.000000    0.000000   -1.090907
 ---------------------------------------------------------------------

 SCF Done:  E(RHF) =  -4.81070474333     A.U. after    7 cycles
 E2 =    -0.9853565920D-01 EUMP2 =    -0.49092404025273D+01

 The electronic state is 1-AG.
 Alpha  occ. eigenvalues --   -0.96766  -0.77190  -0.67857  -0.60129  -0.24844
 Alpha virt. eigenvalues --    0.02087   0.19766   0.84772   0.94345   1.14107

 Mulliken charges:
               1
     1  H    0.020090
     2  H    0.236602
     3  H   -0.095727
     4  H    0.020090
     5  H   -0.181055
     6  H   -0.181055
     7  H   -0.095727
     8  H    0.020090
     9  H    0.020090
    10  H    0.236602
 Sum of Mulliken charges =   0.00000

 Dipole moment (field-independent basis, Debye):
    X=              0.0000    Y=             -0.0000    Z=              0.0000  Tot=              0.0000
 Quadrupole moment (field-independent basis, Debye-Ang):
   XX=            -12.5732   YY=            -19.0396   ZZ=            -12.8061
   XY=             -0.0000   XZ=             -0.0000   YZ=              0.0000

 Normal termination of Gaussian 09 at Thu Feb  9 16:29:08 2017.
