 Gaussian 09, Revision E.01,
 Gaussian 09:  ES64L-G09RevE.01 30-Nov-2015

 ----------------------------------------------------------------------
 #rhf/gen scf(symm,tight,novaracc,noincfock,fulldiag) stable(crhf) geom
 =nocrowd test
 ----------------------------------------------------------------------

 ----------------------------------------------------------------------
 hf stability analysis of h10 triangular lattice, y= 1.3310295079294747
 ----------------------------------------------------------------------
 Symbolic Z-matrix:
 Charge =  0 Multiplicity = 1

                         Standard orientation:
 ---------------------------------------------------------------------
 Center     Atomic      Atomic             Coordinates (Angstroms)
 Number     Number       Type             X           Y           Z
 ---------------------------------------------------------------------
      1          1           0       -0.000000    1.331029    0.867524
      2          1           0       -0.000000   -0.000000    1.301287
      3          1           0       -0.000000   -0.000000    0.433762
      4          1           0       -0.000000   -1.331029    0.867524
      5          1           0       -0.000000    1.331029    0.000000
      6          1           0       -0.000000   -1.331029   -0.000000
      7          1           0        0.000000    0.000000   -0.433762
      8          1           0        0.000000    1.331029   -0.867524
      9          1           0       -0.000000   -1.331029   -0.867524
     10          1           0        0.000000    0.000000   -1.301287
 ---------------------------------------------------------------------

 SCF Done:  E(RHF) =  -4.95292219732     A.U. after    8 cycles
 E2 =    -0.8823858527D-01 EUMP2 =    -0.50411607825888D+01

 The electronic state is 1-AG.
 Alpha  occ. eigenvalues --   -0.95016  -0.70770  -0.64553  -0.50857  -0.29273
 Alpha virt. eigenvalues --    0.05370   0.10117   0.62658   0.75205   0.80594

 Mulliken charges:
               1
     1  H   -0.069432
     2  H    0.285594
     3  H   -0.058598
     4  H   -0.069432
     5  H   -0.088131
     6  H   -0.088131
     7  H   -0.058598
     8  H   -0.069432
     9  H   -0.069432
    10  H    0.285594
 Sum of Mulliken charges =   0.00000

 Dipole moment (field-independent basis, Debye):
    X=              0.0000    Y=              0.0000    Z=             -0.0000  Tot=              0.0000
 Quadrupole moment (field-independent basis, Debye-Ang):
   XX=            -12.6159   YY=            -20.9560   ZZ=            -10.6774
   XY=             -0.0000   XZ=             -0.0000   YZ=              0.0000

 Normal termination of Gaussian 09 at Thu Feb  9 16:25:34 2017.
