 Gaussian 09, Revision E.01,
 Gaussian 09:  ES64L-G09RevE.01 30-Nov-2015

 ----------------------------------------------------------------------
 #rhf/gen scf(symm,tight,novaracc,noincfock,fulldiag) stable(crhf) geom
 =nocrowd test
 ----------------------------------------------------------------------

 ----------------------------------------------------------------------
 hf stability analysis of h10 triangular lattice, y= 1.0843984895096448
 ----------------------------------------------------------------------
 Symbolic Z-matrix:
 Charge =  0 Multiplicity = 1

                         Standard orientation:
 ---------------------------------------------------------------------
 Center     Atomic      Atomic             Coordinates (Angstroms)
 Number     Number       Type             X           Y           Z
 ---------------------------------------------------------------------
      1          1           0        0.000000    1.084398    1.064830
      2          1           0       -0.000000    0.000000    1.597246
      3          1           0       -0.000000    0.000000    0.532415
      4          1           0       -0.000000   -1.084398    1.064830
      5          1           0       -0.000000    1.084398   -0.000000
      6          1           0       -0.000000   -1.084398    0.000000
      7          1           0        0.000000   -0.000000   -0.532415
      8          1           0        0.000000    1.084398   -1.064830
      9          1           0       -0.000000   -1.084398   -1.064830
     10          1           0        0.000000   -0.000000   -1.597246
 ---------------------------------------------------------------------

 SCF Done:  E(RHF) =  -4.85938235025     A.U. after   11 cycles
 E2 =    -0.1091392966D+00 EUMP2 =    -0.49685216468580D+01

 The electronic state is 1-AG.
 Alpha  occ. eigenvalues --   -0.97430  -0.70846  -0.64791  -0.34948  -0.34288
 Alpha virt. eigenvalues --   -0.00347   0.25255   0.33105   0.39936   0.65430

 Mulliken charges:
               1
     1  H   -0.046165
     2  H   -0.084127
     3  H    0.123009
     4  H   -0.046165
     5  H    0.053449
     6  H    0.053449
     7  H    0.123009
     8  H   -0.046165
     9  H   -0.046165
    10  H   -0.084127
 Sum of Mulliken charges =  -0.00000

 Dipole moment (field-independent basis, Debye):
    X=             -0.0000    Y=             -0.0000    Z=              0.0000  Tot=              0.0000
 Quadrupole moment (field-independent basis, Debye-Ang):
   XX=            -12.7744   YY=            -14.1797   ZZ=            -20.2014
   XY=             -0.0000   XZ=              0.0000   YZ=              0.0000

 Normal termination of Gaussian 09 at Thu Feb  9 16:19:52 2017.
