 Gaussian 09, Revision E.01,
 Gaussian 09:  ES64L-G09RevE.01 30-Nov-2015

 ----------------------------------------------------------------------
 #rhf/gen scf(symm,tight,novaracc,noincfock,fulldiag) stable(crhf) geom
 =nocrowd test
 ----------------------------------------------------------------------

 ----------------------------------------------------------------------
 hf stability analysis of h10 triangular lattice, y= 1.7355957636509258
 ----------------------------------------------------------------------
 Symbolic Z-matrix:
 Charge =  0 Multiplicity = 1

                         Standard orientation:
 ---------------------------------------------------------------------
 Center     Atomic      Atomic             Coordinates (Angstroms)
 Number     Number       Type             X           Y           Z
 ---------------------------------------------------------------------
      1          1           0        0.000000    1.735596    0.665305
      2          1           0        0.000000    0.000000    0.997958
      3          1           0        0.000000    0.000000    0.332652
      4          1           0       -0.000000   -1.735596    0.665305
      5          1           0       -0.000000    1.735596   -0.000000
      6          1           0       -0.000000   -1.735596    0.000000
      7          1           0        0.000000   -0.000000   -0.332652
      8          1           0        0.000000    1.735596   -0.665305
      9          1           0       -0.000000   -1.735596   -0.665305
     10          1           0        0.000000   -0.000000   -0.997958
 ---------------------------------------------------------------------

 SCF Done:  E(RHF) =  -4.61031358504     A.U. after    7 cycles
 E2 =    -0.1165455022D+00 EUMP2 =    -0.47268590872000D+01

 The electronic state is 1-AG.
 Alpha  occ. eigenvalues --   -0.97799  -0.80404  -0.74993  -0.58084  -0.22199
 Alpha virt. eigenvalues --   -0.00336   0.27847   0.97265   1.03711   1.37948

 Mulliken charges:
               1
     1  H    0.076920
     2  H    0.219363
     3  H   -0.123361
     4  H    0.076920
     5  H   -0.249842
     6  H   -0.249842
     7  H   -0.123361
     8  H    0.076920
     9  H    0.076920
    10  H    0.219363
 Sum of Mulliken charges =  -0.00000

 Dipole moment (field-independent basis, Debye):
    X=              0.0000    Y=              0.0000    Z=             -0.0000  Tot=              0.0000
 Quadrupole moment (field-independent basis, Debye-Ang):
   XX=            -12.5110   YY=            -17.7320   ZZ=            -13.5531
   XY=             -0.0000   XZ=              0.0000   YZ=              0.0000

 Normal termination of Gaussian 09 at Thu Feb  9 16:30:34 2017.
