 Gaussian 09, Revision E.01,
 Gaussian 09:  ES64L-G09RevE.01 30-Nov-2015

 ----------------------------------------------------------------------
 #rhf/gen scf(symm,tight,novaracc,noincfock,fulldiag) stable(crhf) geom
 =nocrowd test
 ----------------------------------------------------------------------

 hf stability analysis of h10 triangular lattice, y= 0.8064026843539695
 6
 ----------------------------------------------------------------------
 Symbolic Z-matrix:
 Charge =  0 Multiplicity = 1

                         Standard orientation:
 ---------------------------------------------------------------------
 Center     Atomic      Atomic             Coordinates (Angstroms)
 Number     Number       Type             X           Y           Z
 ---------------------------------------------------------------------
      1          1           0       -0.000000    0.806403    1.431916
      2          1           0       -0.000000    0.000000    2.147873
      3          1           0       -0.000000    0.000000    0.715958
      4          1           0       -0.000000   -0.806403    1.431916
      5          1           0       -0.000000    0.806403    0.000000
      6          1           0       -0.000000   -0.806403   -0.000000
      7          1           0        0.000000    0.000000   -0.715958
      8          1           0        0.000000    0.806403   -1.431916
      9          1           0       -0.000000   -0.806403   -1.431916
     10          1           0        0.000000    0.000000   -2.147873
 ---------------------------------------------------------------------

 SCF Done:  E(RHF) =  -4.91332176205     A.U. after    8 cycles
 E2 =    -0.9641846063D-01 EUMP2 =    -0.50097402226836D+01

 The electronic state is 1-AG.
 Alpha  occ. eigenvalues --   -0.92749  -0.74922  -0.49919  -0.49876  -0.29662
 Alpha virt. eigenvalues --    0.02029   0.16638   0.40305   0.43877   0.54203

 Mulliken charges:
               1
     1  H   -0.182452
     2  H    0.181815
     3  H    0.123508
     4  H   -0.182452
     5  H    0.059581
     6  H    0.059581
     7  H    0.123508
     8  H   -0.182452
     9  H   -0.182452
    10  H    0.181815
 Sum of Mulliken charges =  -0.00000

 Dipole moment (field-independent basis, Debye):
    X=              0.0000    Y=             -0.0000    Z=              0.0000  Tot=              0.0000
 Quadrupole moment (field-independent basis, Debye-Ang):
   XX=            -12.9732   YY=            -17.9918   ZZ=            -13.1294
   XY=             -0.0000   XZ=             -0.0000   YZ=              0.0000

 Normal termination of Gaussian 09 at Thu Feb  9 16:09:05 2017.
