 Gaussian 09, Revision E.01,
 Gaussian 09:  ES64L-G09RevE.01 30-Nov-2015

 ----------------------------------------------------------------------
 #rhf/gen scf(symm,tight,novaracc,noincfock,fulldiag) stable(crhf) geom
 =nocrowd test
 ----------------------------------------------------------------------

 ----------------------------------------------------------------------
 hf stability analysis of h10 triangular lattice, y= 1.6588015077637484
 ----------------------------------------------------------------------
 Symbolic Z-matrix:
 Charge =  0 Multiplicity = 1

                         Standard orientation:
 ---------------------------------------------------------------------
 Center     Atomic      Atomic             Coordinates (Angstroms)
 Number     Number       Type             X           Y           Z
 ---------------------------------------------------------------------
      1          1           0        0.000000    1.658801    0.696105
      2          1           0        0.000000    0.000000    1.044158
      3          1           0        0.000000    0.000000    0.348053
      4          1           0       -0.000000   -1.658801    0.696105
      5          1           0       -0.000000    1.658801    0.000000
      6          1           0       -0.000000   -1.658801    0.000000
      7          1           0        0.000000    0.000000   -0.348053
      8          1           0        0.000000    1.658801   -0.696105
      9          1           0       -0.000000   -1.658801   -0.696105
     10          1           0        0.000000    0.000000   -1.044158
 ---------------------------------------------------------------------

 SCF Done:  E(RHF) =  -4.72278881843     A.U. after    7 cycles
 E2 =    -0.1061689974D+00 EUMP2 =    -0.48289578158336D+01

 The electronic state is 1-AG.
 Alpha  occ. eigenvalues --   -0.97237  -0.78765  -0.71496  -0.59094  -0.23560
 Alpha virt. eigenvalues --    0.00752   0.23686   0.90802   0.98727   1.25455

 Mulliken charges:
               1
     1  H    0.047373
     2  H    0.226662
     3  H   -0.108338
     4  H    0.047373
     5  H   -0.213071
     6  H   -0.213071
     7  H   -0.108338
     8  H    0.047373
     9  H    0.047373
    10  H    0.226662
 Sum of Mulliken charges =   0.00000

 Dipole moment (field-independent basis, Debye):
    X=              0.0000    Y=             -0.0000    Z=             -0.0000  Tot=              0.0000
 Quadrupole moment (field-independent basis, Debye-Ang):
   XX=            -12.5459   YY=            -18.4165   ZZ=            -13.2017
   XY=             -0.0000   XZ=             -0.0000   YZ=             -0.0000

 Normal termination of Gaussian 09 at Thu Feb  9 16:29:52 2017.
