 Gaussian 09, Revision E.01,
 Gaussian 09:  ES64L-G09RevE.01 30-Nov-2015

 ----------------------------------------------------------------------
 #rhf/gen scf(symm,tight,novaracc,noincfock,fulldiag) stable(crhf) geom
 =nocrowd test
 ----------------------------------------------------------------------

 ----------------------------------------------------------------------
 hf stability analysis of h10 triangular lattice, y= 1.2493121092681172
 ----------------------------------------------------------------------
 Symbolic Z-matrix:
 Charge =  0 Multiplicity = 1

                         Standard orientation:
 ---------------------------------------------------------------------
 Center     Atomic      Atomic             Coordinates (Angstroms)
 Number     Number       Type             X           Y           Z
 ---------------------------------------------------------------------
      1          1           0        0.000000    1.249312    0.924269
      2          1           0       -0.000000    0.000000    1.386404
      3          1           0       -0.000000    0.000000    0.462135
      4          1           0       -0.000000   -1.249312    0.924269
      5          1           0       -0.000000    1.249312    0.000000
      6          1           0       -0.000000   -1.249312   -0.000000
      7          1           0        0.000000    0.000000   -0.462135
      8          1           0        0.000000    1.249312   -0.924269
      9          1           0       -0.000000   -1.249312   -0.924269
     10          1           0        0.000000    0.000000   -1.386404
 ---------------------------------------------------------------------

 SCF Done:  E(RHF) =  -4.92133199286     A.U. after    8 cycles
 E2 =    -0.9168058580D-01 EUMP2 =    -0.50130125786607D+01

 The electronic state is 1-AG.
 Alpha  occ. eigenvalues --   -0.94392  -0.68393  -0.66161  -0.43984  -0.30385
 Alpha virt. eigenvalues --    0.00912   0.13816   0.55546   0.63580   0.76743

 Mulliken charges:
               1
     1  H   -0.085319
     2  H    0.290727
     3  H   -0.042831
     4  H   -0.085319
     5  H   -0.077257
     6  H   -0.077257
     7  H   -0.042831
     8  H   -0.085319
     9  H   -0.085319
    10  H    0.290727
 Sum of Mulliken charges =  -0.00000

 Dipole moment (field-independent basis, Debye):
    X=              0.0000    Y=              0.0000    Z=              0.0000  Tot=              0.0000
 Quadrupole moment (field-independent basis, Debye-Ang):
   XX=            -12.6060   YY=            -21.3101   ZZ=             -9.8423
   XY=             -0.0000   XZ=             -0.0000   YZ=              0.0000

 Normal termination of Gaussian 09 at Thu Feb  9 16:23:59 2017.
