 Gaussian 09, Revision E.01,
 Gaussian 09:  ES64L-G09RevE.01 30-Nov-2015

 ----------------------------------------------------------------------
 #rhf/gen scf(symm,tight,novaracc,noincfock,fulldiag) stable(crhf) geom
 =nocrowd test
 ----------------------------------------------------------------------

 ----------------------------------------------------------------------
 hf stability analysis of h10 triangular lattice, y= 2.4486760461856742
 ----------------------------------------------------------------------
 Symbolic Z-matrix:
 Charge =  0 Multiplicity = 1

                         Standard orientation:
 ---------------------------------------------------------------------
 Center     Atomic      Atomic             Coordinates (Angstroms)
 Number     Number       Type             X           Y           Z
 ---------------------------------------------------------------------
      1          1           0        0.000000    2.448676    0.471561
      2          1           0        0.000000   -0.000000    0.707342
      3          1           0        0.000000   -0.000000    0.235781
      4          1           0       -0.000000   -2.448676    0.471561
      5          1           0       -0.000000    2.448676    0.000000
      6          1           0       -0.000000   -2.448676   -0.000000
      7          1           0        0.000000    0.000000   -0.235781
      8          1           0        0.000000    2.448676   -0.471561
      9          1           0       -0.000000   -2.448676   -0.471561
     10          1           0        0.000000    0.000000   -0.707342
 ---------------------------------------------------------------------

 SCF Done:  E(RHF) =  -3.01983891014     A.U. after    7 cycles
 E2 =    -0.2639131340D+00 EUMP2 =    -0.32837520441200D+01

 The electronic state is 1-AG.
 Alpha  occ. eigenvalues --   -1.08708  -0.93450  -0.93413  -0.53368  -0.11478
 Alpha virt. eigenvalues --   -0.00214   0.61002   1.56442   1.57537   2.62601

 Mulliken charges:
               1
     1  H    0.336699
     2  H    0.327909
     3  H   -0.321296
     4  H    0.336699
     5  H   -0.680011
     6  H   -0.680011
     7  H   -0.321296
     8  H    0.336699
     9  H    0.336699
    10  H    0.327909
 Sum of Mulliken charges =   0.00000

 Dipole moment (field-independent basis, Debye):
    X=              0.0000    Y=              0.0000    Z=             -0.0000  Tot=              0.0000
 Quadrupole moment (field-independent basis, Debye-Ang):
   XX=            -12.1068   YY=            -13.2708   ZZ=            -14.9085
   XY=              0.0000   XZ=              0.0000   YZ=              0.0000

 Normal termination of Gaussian 09 at Thu Feb  9 16:34:18 2017.
