 Gaussian 09, Revision E.01,
 Gaussian 09:  ES64L-G09RevE.01 30-Nov-2015

 ----------------------------------------------------------------------
 #rhf/gen scf(symm,tight,novaracc,noincfock,fulldiag) stable(crhf) geom
 =nocrowd test
 ----------------------------------------------------------------------

 ----------------------------------------------------------------------
 hf stability analysis of h10 triangular lattice, y= 1.5245539459466628
 ----------------------------------------------------------------------
 Symbolic Z-matrix:
 Charge =  0 Multiplicity = 1

                         Standard orientation:
 ---------------------------------------------------------------------
 Center     Atomic      Atomic             Coordinates (Angstroms)
 Number     Number       Type             X           Y           Z
 ---------------------------------------------------------------------
      1          1           0       -0.000000    1.524554    0.757402
      2          1           0        0.000000   -0.000000    1.136103
      3          1           0        0.000000   -0.000000    0.378701
      4          1           0       -0.000000   -1.524554    0.757402
      5          1           0       -0.000000    1.524554    0.000000
      6          1           0       -0.000000   -1.524554   -0.000000
      7          1           0        0.000000    0.000000   -0.378701
      8          1           0        0.000000    1.524554   -0.757402
      9          1           0       -0.000000   -1.524554   -0.757402
     10          1           0        0.000000    0.000000   -1.136103
 ---------------------------------------------------------------------

 SCF Done:  E(RHF) =  -4.87364964662     A.U. after    8 cycles
 E2 =    -0.9343132335D-01 EUMP2 =    -0.49670809699736D+01

 The electronic state is 1-AG.
 Alpha  occ. eigenvalues --   -0.96362  -0.75732  -0.64268  -0.61125  -0.25988
 Alpha virt. eigenvalues --    0.03570   0.16243   0.79374   0.90657   1.04217

 Mulliken charges:
               1
     1  H   -0.003792
     2  H    0.247574
     3  H   -0.085587
     4  H   -0.003792
     5  H   -0.154403
     6  H   -0.154403
     7  H   -0.085587
     8  H   -0.003792
     9  H   -0.003792
    10  H    0.247574
 Sum of Mulliken charges =  -0.00000

 Dipole moment (field-independent basis, Debye):
    X=              0.0000    Y=             -0.0000    Z=              0.0000  Tot=              0.0000
 Quadrupole moment (field-independent basis, Debye-Ang):
   XX=            -12.5926   YY=            -19.5713   ZZ=            -12.3891
   XY=             -0.0000   XZ=             -0.0000   YZ=              0.0000

 Normal termination of Gaussian 09 at Thu Feb  9 16:28:24 2017.
