 Gaussian 09, Revision E.01,
 Gaussian 09:  ES64L-G09RevE.01 30-Nov-2015

 ----------------------------------------------------------------------
 #rhf/gen scf(symm,tight,novaracc,noincfock,fulldiag) stable(crhf) geom
 =nocrowd test
 ----------------------------------------------------------------------

 ----------------------------------------------------------------------
 hf stability analysis of h10 triangular lattice, y= 1.7075808955151763
 ----------------------------------------------------------------------
 Symbolic Z-matrix:
 Charge =  0 Multiplicity = 1

                         Standard orientation:
 ---------------------------------------------------------------------
 Center     Atomic      Atomic             Coordinates (Angstroms)
 Number     Number       Type             X           Y           Z
 ---------------------------------------------------------------------
      1          1           0       -0.000000    1.707581    0.676220
      2          1           0        0.000000    0.000000    1.014330
      3          1           0        0.000000    0.000000    0.338110
      4          1           0       -0.000000   -1.707581    0.676220
      5          1           0       -0.000000    1.707581    0.000000
      6          1           0       -0.000000   -1.707581    0.000000
      7          1           0        0.000000   -0.000000   -0.338110
      8          1           0        0.000000    1.707581   -0.676220
      9          1           0       -0.000000   -1.707581   -0.676220
     10          1           0        0.000000   -0.000000   -1.014330
 ---------------------------------------------------------------------

 SCF Done:  E(RHF) =  -4.65328078118     A.U. after    7 cycles
 E2 =    -0.1125147812D+00 EUMP2 =    -0.47657955624000D+01

 The electronic state is 1-AG.
 Alpha  occ. eigenvalues --   -0.97586  -0.79813  -0.73766  -0.58439  -0.22692
 Alpha virt. eigenvalues --    0.00021   0.26339   0.94913   1.01865   1.33364

 Mulliken charges:
               1
     1  H    0.066155
     2  H    0.221583
     3  H   -0.117717
     4  H    0.066155
     5  H   -0.236176
     6  H   -0.236176
     7  H   -0.117717
     8  H    0.066155
     9  H    0.066155
    10  H    0.221583
 Sum of Mulliken charges =   0.00000

 Dipole moment (field-independent basis, Debye):
    X=              0.0000    Y=             -0.0000    Z=              0.0000  Tot=              0.0000
 Quadrupole moment (field-independent basis, Debye-Ang):
   XX=            -12.5243   YY=            -17.9819   ZZ=            -13.4332
   XY=             -0.0000   XZ=              0.0000   YZ=             -0.0000

 Normal termination of Gaussian 09 at Thu Feb  9 16:30:19 2017.
