 Gaussian 09, Revision E.01,
 Gaussian 09:  ES64L-G09RevE.01 30-Nov-2015

 ----------------------------------------------------------------------
 #rhf/gen scf(symm,tight,novaracc,noincfock,fulldiag) stable(crhf) geom
 =nocrowd test
 ----------------------------------------------------------------------

 hf stability analysis of h10 triangular lattice, y= 0.8666369262473573
 3
 ----------------------------------------------------------------------
 Symbolic Z-matrix:
 Charge =  0 Multiplicity = 1

                         Standard orientation:
 ---------------------------------------------------------------------
 Center     Atomic      Atomic             Coordinates (Angstroms)
 Number     Number       Type             X           Y           Z
 ---------------------------------------------------------------------
      1          1           0       -0.000000    0.866637    1.332393
      2          1           0       -0.000000    0.000000    1.998589
      3          1           0       -0.000000    0.000000    0.666196
      4          1           0       -0.000000   -0.866637    1.332393
      5          1           0       -0.000000    0.866637   -0.000000
      6          1           0       -0.000000   -0.866637   -0.000000
      7          1           0        0.000000   -0.000000   -0.666196
      8          1           0        0.000000    0.866637   -1.332393
      9          1           0       -0.000000   -0.866637   -1.332393
     10          1           0        0.000000   -0.000000   -1.998589
 ---------------------------------------------------------------------

 SCF Done:  E(RHF) =  -4.95731685215     A.U. after    8 cycles
 E2 =    -0.9644118298D-01 EUMP2 =    -0.50537580351265D+01

 The electronic state is 1-AG.
 Alpha  occ. eigenvalues --   -0.94467  -0.74703  -0.53899  -0.47078  -0.31628
 Alpha virt. eigenvalues --    0.07826   0.19228   0.31612   0.48866   0.50620

 Mulliken charges:
               1
     1  H   -0.152331
     2  H    0.124144
     3  H    0.104144
     4  H   -0.152331
     5  H    0.076374
     6  H    0.076374
     7  H    0.104144
     8  H   -0.152331
     9  H   -0.152331
    10  H    0.124144
 Sum of Mulliken charges =   0.00000

 Dipole moment (field-independent basis, Debye):
    X=              0.0000    Y=              0.0000    Z=             -0.0000  Tot=              0.0000
 Quadrupole moment (field-independent basis, Debye-Ang):
   XX=            -12.9338   YY=            -17.2154   ZZ=            -15.3132
   XY=             -0.0000   XZ=             -0.0000   YZ=             -0.0000

 Normal termination of Gaussian 09 at Thu Feb  9 16:11:55 2017.
