 Gaussian 09, Revision E.01,
 Gaussian 09:  ES64L-G09RevE.01 30-Nov-2015

 ----------------------------------------------------------------------
 #rhf/gen scf(symm,tight,novaracc,noincfock,fulldiag) stable(crhf) geom
 =nocrowd test
 ----------------------------------------------------------------------

 ----------------------------------------------------------------------
 hf stability analysis of h10 triangular lattice, y= 1.0010087169869311
 ----------------------------------------------------------------------
 Symbolic Z-matrix:
 Charge =  0 Multiplicity = 1

                         Standard orientation:
 ---------------------------------------------------------------------
 Center     Atomic      Atomic             Coordinates (Angstroms)
 Number     Number       Type             X           Y           Z
 ---------------------------------------------------------------------
      1          1           0        0.000000    1.001009    1.153537
      2          1           0       -0.000000    0.000000    1.730305
      3          1           0       -0.000000    0.000000    0.576768
      4          1           0       -0.000000   -1.001009    1.153537
      5          1           0       -0.000000    1.001009    0.000000
      6          1           0       -0.000000   -1.001009    0.000000
      7          1           0        0.000000   -0.000000   -0.576768
      8          1           0        0.000000    1.001009   -1.153537
      9          1           0       -0.000000   -1.001009   -1.153537
     10          1           0        0.000000   -0.000000   -1.730305
 ---------------------------------------------------------------------

 SCF Done:  E(RHF) =  -4.94205492800     A.U. after    9 cycles
 E2 =    -0.1018298384D+00 EUMP2 =    -0.50438847664365D+01

 The electronic state is 1-AG.
 Alpha  occ. eigenvalues --   -0.96753  -0.72678  -0.61164  -0.39884  -0.33976
 Alpha virt. eigenvalues --    0.10424   0.21799   0.27103   0.40149   0.60755

 Mulliken charges:
               1
     1  H   -0.094296
     2  H    0.001324
     3  H    0.103560
     4  H   -0.094296
     5  H    0.083707
     6  H    0.083707
     7  H    0.103560
     8  H   -0.094296
     9  H   -0.094296
    10  H    0.001324
 Sum of Mulliken charges =   0.00000

 Dipole moment (field-independent basis, Debye):
    X=              0.0000    Y=              0.0000    Z=              0.0000  Tot=              0.0000
 Quadrupole moment (field-independent basis, Debye-Ang):
   XX=            -12.8419   YY=            -15.3873   ZZ=            -18.7873
   XY=             -0.0000   XZ=              0.0000   YZ=              0.0000

 Normal termination of Gaussian 09 at Thu Feb  9 16:17:11 2017.
