 Gaussian 09, Revision E.01,
 Gaussian 09:  ES64L-G09RevE.01 30-Nov-2015

 ----------------------------------------------------------------------
 #rhf/gen scf(symm,tight,novaracc,noincfock,fulldiag) stable(crhf) geom
 =nocrowd test
 ----------------------------------------------------------------------

 hf stability analysis of h10 triangular lattice, y= 0.9384058608233425
 4
 ----------------------------------------------------------------------
 Symbolic Z-matrix:
 Charge =  0 Multiplicity = 1

                         Standard orientation:
 ---------------------------------------------------------------------
 Center     Atomic      Atomic             Coordinates (Angstroms)
 Number     Number       Type             X           Y           Z
 ---------------------------------------------------------------------
      1          1           0        0.000000    0.938406    1.230492
      2          1           0        0.000000   -0.000000    1.845737
      3          1           0        0.000000   -0.000000    0.615246
      4          1           0       -0.000000   -0.938406    1.230492
      5          1           0       -0.000000    0.938406    0.000000
      6          1           0       -0.000000   -0.938406   -0.000000
      7          1           0        0.000000    0.000000   -0.615246
      8          1           0        0.000000    0.938406   -1.230492
      9          1           0       -0.000000   -0.938406   -1.230492
     10          1           0        0.000000    0.000000   -1.845737
 ---------------------------------------------------------------------

 SCF Done:  E(RHF) =  -4.96827803419     A.U. after    8 cycles
 E2 =    -0.9840084982D-01 EUMP2 =    -0.50666788840086D+01

 The electronic state is 1-AG.
 Alpha  occ. eigenvalues --   -0.95915  -0.73832  -0.58033  -0.43355  -0.33184
 Alpha virt. eigenvalues --    0.15376   0.19661   0.23126   0.44815   0.56000

 Mulliken charges:
               1
     1  H   -0.120703
     2  H    0.058038
     3  H    0.098574
     4  H   -0.120703
     5  H    0.084794
     6  H    0.084794
     7  H    0.098574
     8  H   -0.120703
     9  H   -0.120703
    10  H    0.058038
 Sum of Mulliken charges =  -0.00000

 Dipole moment (field-independent basis, Debye):
    X=              0.0000    Y=             -0.0000    Z=             -0.0000  Tot=              0.0000
 Quadrupole moment (field-independent basis, Debye-Ang):
   XX=            -12.8857   YY=            -16.2557   ZZ=            -17.3691
   XY=             -0.0000   XZ=              0.0000   YZ=             -0.0000

 Normal termination of Gaussian 09 at Thu Feb  9 16:14:57 2017.
