 Gaussian 09, Revision E.01,
 Gaussian 09:  ES64L-G09RevE.01 30-Nov-2015

 ----------------------------------------------------------------------
 #rhf/gen scf(symm,tight,novaracc,noincfock,fulldiag) stable(crhf) geom
 =nocrowd test
 ----------------------------------------------------------------------

 hf stability analysis of h10 triangular lattice, y= 0.8996750916440937
 6
 ----------------------------------------------------------------------
 Symbolic Z-matrix:
 Charge =  0 Multiplicity = 1

                         Standard orientation:
 ---------------------------------------------------------------------
 Center     Atomic      Atomic             Coordinates (Angstroms)
 Number     Number       Type             X           Y           Z
 ---------------------------------------------------------------------
      1          1           0        0.000000    0.899675    1.283464
      2          1           0        0.000000    0.000000    1.925196
      3          1           0        0.000000    0.000000    0.641732
      4          1           0       -0.000000   -0.899675    1.283464
      5          1           0       -0.000000    0.899675   -0.000000
      6          1           0       -0.000000   -0.899675    0.000000
      7          1           0        0.000000   -0.000000   -0.641732
      8          1           0        0.000000    0.899675   -1.283464
      9          1           0       -0.000000   -0.899675   -1.283464
     10          1           0        0.000000   -0.000000   -1.925196
 ---------------------------------------------------------------------

 SCF Done:  E(RHF) =  -4.96791239500     A.U. after    8 cycles
 E2 =    -0.9708443700D-01 EUMP2 =    -0.50649968319991D+01

 The electronic state is 1-AG.
 Alpha  occ. eigenvalues --   -0.95207  -0.74374  -0.55882  -0.45404  -0.32440
 Alpha virt. eigenvalues --    0.11247   0.20924   0.25932   0.48030   0.52374

 Mulliken charges:
               1
     1  H   -0.137358
     2  H    0.093421
     3  H    0.099714
     4  H   -0.137358
     5  H    0.081580
     6  H    0.081580
     7  H    0.099714
     8  H   -0.137358
     9  H   -0.137358
    10  H    0.093421
 Sum of Mulliken charges =  -0.00000

 Dipole moment (field-independent basis, Debye):
    X=              0.0000    Y=              0.0000    Z=              0.0000  Tot=              0.0000
 Quadrupole moment (field-independent basis, Debye-Ang):
   XX=            -12.9118   YY=            -16.7780   ZZ=            -16.3243
   XY=             -0.0000   XZ=              0.0000   YZ=             -0.0000

 Normal termination of Gaussian 09 at Thu Feb  9 16:13:21 2017.
