 Gaussian 09, Revision E.01,
 Gaussian 09:  ES64L-G09RevE.01 30-Nov-2015

 ----------------------------------------------------------------------
 #rhf/gen scf(symm,tight,novaracc,noincfock,fulldiag) stable(crhf) geom
 =nocrowd test
 ----------------------------------------------------------------------

 ----------------------------------------------------------------------
 hf stability analysis of h10 triangular lattice, y= 2.2086216254199424
 ----------------------------------------------------------------------
 Symbolic Z-matrix:
 Charge =  0 Multiplicity = 1

                         Standard orientation:
 ---------------------------------------------------------------------
 Center     Atomic      Atomic             Coordinates (Angstroms)
 Number     Number       Type             X           Y           Z
 ---------------------------------------------------------------------
      1          1           0       -0.000000    2.208622    0.522815
      2          1           0       -0.000000   -0.000000    0.784223
      3          1           0       -0.000000   -0.000000    0.261407
      4          1           0       -0.000000   -2.208622    0.522815
      5          1           0       -0.000000    2.208622    0.000000
      6          1           0       -0.000000   -2.208622   -0.000000
      7          1           0        0.000000    0.000000   -0.261407
      8          1           0        0.000000    2.208622   -0.522815
      9          1           0       -0.000000   -2.208622   -0.522815
     10          1           0        0.000000    0.000000   -0.784223
 ---------------------------------------------------------------------

 SCF Done:  E(RHF) =  -3.63853816858     A.U. after    7 cycles
 E2 =    -0.2112300122D+00 EUMP2 =    -0.38497681808276D+01

 The electronic state is 1-AG.
 Alpha  occ. eigenvalues --   -1.03986  -0.89450  -0.89152  -0.54272  -0.14767
 Alpha virt. eigenvalues --   -0.01553   0.50907   1.36523   1.38422   2.18887

 Mulliken charges:
               1
     1  H    0.250610
     2  H    0.261557
     3  H   -0.243773
     4  H    0.250610
     5  H   -0.519004
     6  H   -0.519004
     7  H   -0.243773
     8  H    0.250610
     9  H    0.250610
    10  H    0.261557
 Sum of Mulliken charges =  -0.00000

 Dipole moment (field-independent basis, Debye):
    X=              0.0000    Y=              0.0000    Z=             -0.0000  Tot=              0.0000
 Quadrupole moment (field-independent basis, Debye-Ang):
   XX=            -12.2429   YY=            -14.2593   ZZ=            -14.6635
   XY=              0.0000   XZ=              0.0000   YZ=              0.0000

 Normal termination of Gaussian 09 at Thu Feb  9 16:33:25 2017.
