 Gaussian 09, Revision E.01,
 Gaussian 09:  ES64L-G09RevE.01 30-Nov-2015

 ----------------------------------------------------------------------
 #rhf/gen scf(symm,tight,novaracc,noincfock,fulldiag) stable(crhf) geom
 =nocrowd test
 ----------------------------------------------------------------------

 hf stability analysis of h10 triangular lattice, y= 0.7779582812068558
 4
 ----------------------------------------------------------------------
 Symbolic Z-matrix:
 Charge =  0 Multiplicity = 1

                         Standard orientation:
 ---------------------------------------------------------------------
 Center     Atomic      Atomic             Coordinates (Angstroms)
 Number     Number       Type             X           Y           Z
 ---------------------------------------------------------------------
      1          1           0        0.000000    0.777958    1.484271
      2          1           0        0.000000   -0.000000    2.226406
      3          1           0        0.000000   -0.000000    0.742135
      4          1           0       -0.000000   -0.777958    1.484271
      5          1           0       -0.000000    0.777958    0.000000
      6          1           0       -0.000000   -0.777958   -0.000000
      7          1           0        0.000000    0.000000   -0.742135
      8          1           0        0.000000    0.777958   -1.484271
      9          1           0       -0.000000   -0.777958   -1.484271
     10          1           0        0.000000    0.000000   -2.226406
 ---------------------------------------------------------------------

 SCF Done:  E(RHF) =  -4.88135384445     A.U. after    8 cycles
 E2 =    -0.9694374943D-01 EUMP2 =    -0.49782975938838D+01

 The electronic state is 1-AG.
 Alpha  occ. eigenvalues --   -0.91749  -0.74825  -0.51145  -0.47765  -0.28482
 Alpha virt. eigenvalues --   -0.00451   0.15675   0.37151   0.48557   0.55031

 Mulliken charges:
               1
     1  H   -0.198298
     2  H    0.209841
     3  H    0.139204
     4  H   -0.198298
     5  H    0.047551
     6  H    0.047551
     7  H    0.139204
     8  H   -0.198298
     9  H   -0.198298
    10  H    0.209841
 Sum of Mulliken charges =  -0.00000

 Dipole moment (field-independent basis, Debye):
    X=              0.0000    Y=             -0.0000    Z=              0.0000  Tot=              0.0000
 Quadrupole moment (field-independent basis, Debye-Ang):
   XX=            -12.9915   YY=            -18.3466   ZZ=            -11.9173
   XY=             -0.0000   XZ=             -0.0000   YZ=             -0.0000

 Normal termination of Gaussian 09 at Thu Feb  9 16:07:37 2017.
