 Gaussian 09, Revision E.01,
 Gaussian 09:  ES64L-G09RevE.01 30-Nov-2015

 ----------------------------------------------------------------------
 #rhf/gen scf(symm,tight,novaracc,noincfock,fulldiag) stable(crhf) geom
 =nocrowd test
 ----------------------------------------------------------------------

 hf stability analysis of h10 triangular lattice, y= 0.8557834790083491
 7
 ----------------------------------------------------------------------
 Symbolic Z-matrix:
 Charge =  0 Multiplicity = 1

                         Standard orientation:
 ---------------------------------------------------------------------
 Center     Atomic      Atomic             Coordinates (Angstroms)
 Number     Number       Type             X           Y           Z
 ---------------------------------------------------------------------
      1          1           0        0.000000    0.855783    1.349291
      2          1           0        0.000000    0.000000    2.023936
      3          1           0        0.000000    0.000000    0.674645
      4          1           0       -0.000000   -0.855783    1.349291
      5          1           0       -0.000000    0.855783    0.000000
      6          1           0       -0.000000   -0.855783    0.000000
      7          1           0        0.000000   -0.000000   -0.674645
      8          1           0        0.000000    0.855783   -1.349291
      9          1           0       -0.000000   -0.855783   -1.349291
     10          1           0        0.000000   -0.000000   -2.023936
 ---------------------------------------------------------------------

 SCF Done:  E(RHF) =  -4.95175127860     A.U. after    8 cycles
 E2 =    -0.9632650513D-01 EUMP2 =    -0.50480777837242D+01

 The electronic state is 1-AG.
 Alpha  occ. eigenvalues --   -0.94194  -0.74781  -0.53215  -0.47612  -0.31323
 Alpha virt. eigenvalues --    0.06734   0.18711   0.33531   0.47642   0.51400

 Mulliken charges:
               1
     1  H   -0.157459
     2  H    0.134370
     3  H    0.106447
     4  H   -0.157459
     5  H    0.074102
     6  H    0.074102
     7  H    0.106447
     8  H   -0.157459
     9  H   -0.157459
    10  H    0.134370
 Sum of Mulliken charges =   0.00000

 Dipole moment (field-independent basis, Debye):
    X=              0.0000    Y=              0.0000    Z=              0.0000  Tot=              0.0000
 Quadrupole moment (field-independent basis, Debye-Ang):
   XX=            -12.9409   YY=            -17.3574   ZZ=            -14.9541
   XY=             -0.0000   XZ=             -0.0000   YZ=             -0.0000

 Normal termination of Gaussian 09 at Thu Feb  9 16:11:25 2017.
