 Gaussian 09, Revision E.01,
 Gaussian 09:  ES64L-G09RevE.01 30-Nov-2015

 ----------------------------------------------------------------------
 #rhf/gen scf(symm,tight,novaracc,noincfock,fulldiag) stable(crhf) geom
 =nocrowd test
 ----------------------------------------------------------------------

 hf stability analysis of h10 triangular lattice, y= 0.9831557909566836
 0
 ----------------------------------------------------------------------
 Symbolic Z-matrix:
 Charge =  0 Multiplicity = 1

                         Standard orientation:
 ---------------------------------------------------------------------
 Center     Atomic      Atomic             Coordinates (Angstroms)
 Number     Number       Type             X           Y           Z
 ---------------------------------------------------------------------
      1          1           0       -0.000000    0.983156    1.174484
      2          1           0       -0.000000   -0.000000    1.761726
      3          1           0       -0.000000   -0.000000    0.587242
      4          1           0       -0.000000   -0.983156    1.174484
      5          1           0       -0.000000    0.983156    0.000000
      6          1           0       -0.000000   -0.983156   -0.000000
      7          1           0        0.000000    0.000000   -0.587242
      8          1           0        0.000000    0.983156   -1.174484
      9          1           0       -0.000000   -0.983156   -1.174484
     10          1           0        0.000000    0.000000   -1.761726
 ---------------------------------------------------------------------

 SCF Done:  E(RHF) =  -4.95283282930     A.U. after    8 cycles
 E2 =    -0.1006849044D+00 EUMP2 =    -0.50535177337087D+01

 The electronic state is 1-AG.
 Alpha  occ. eigenvalues --   -0.96549  -0.73037  -0.60311  -0.40892  -0.33798
 Alpha virt. eigenvalues --    0.12950   0.20072   0.25922   0.41319   0.59529

 Mulliken charges:
               1
     1  H   -0.101926
     2  H    0.017561
     3  H    0.101402
     4  H   -0.101926
     5  H    0.084888
     6  H    0.084888
     7  H    0.101402
     8  H   -0.101926
     9  H   -0.101926
    10  H    0.017561
 Sum of Mulliken charges =  -0.00000

 Dipole moment (field-independent basis, Debye):
    X=              0.0000    Y=              0.0000    Z=              0.0000  Tot=              0.0000
 Quadrupole moment (field-independent basis, Debye-Ang):
   XX=            -12.8547   YY=            -15.6383   ZZ=            -18.4136
   XY=             -0.0000   XZ=              0.0000   YZ=             -0.0000

 Normal termination of Gaussian 09 at Thu Feb  9 16:16:33 2017.
