 Gaussian 09, Revision E.01,
 Gaussian 09:  ES64L-G09RevE.01 30-Nov-2015

 ----------------------------------------------------------------------
 #rhf/gen scf(symm,tight,novaracc,noincfock,fulldiag) stable(crhf) geom
 =nocrowd test
 ----------------------------------------------------------------------

 hf stability analysis of h10 triangular lattice, y= 0.8947155610204194
 9
 ----------------------------------------------------------------------
 Symbolic Z-matrix:
 Charge =  0 Multiplicity = 1

                         Standard orientation:
 ---------------------------------------------------------------------
 Center     Atomic      Atomic             Coordinates (Angstroms)
 Number     Number       Type             X           Y           Z
 ---------------------------------------------------------------------
      1          1           0        0.000000    0.894716    1.290578
      2          1           0        0.000000    0.000000    1.935868
      3          1           0        0.000000    0.000000    0.645289
      4          1           0       -0.000000   -0.894716    1.290578
      5          1           0       -0.000000    0.894716    0.000000
      6          1           0       -0.000000   -0.894716    0.000000
      7          1           0        0.000000   -0.000000   -0.645289
      8          1           0        0.000000    0.894716   -1.290578
      9          1           0       -0.000000   -0.894716   -1.290578
     10          1           0        0.000000   -0.000000   -1.935868
 ---------------------------------------------------------------------

 SCF Done:  E(RHF) =  -4.96692914161     A.U. after    8 cycles
 E2 =    -0.9695970645D-01 EUMP2 =    -0.50638888480529D+01

 The electronic state is 1-AG.
 Alpha  occ. eigenvalues --   -0.95104  -0.74431  -0.55593  -0.45660  -0.32329
 Alpha virt. eigenvalues --    0.10725   0.20658   0.26766   0.48433   0.51871

 Mulliken charges:
               1
     1  H   -0.139552
     2  H    0.097997
     3  H    0.100154
     4  H   -0.139552
     5  H    0.080952
     6  H    0.080952
     7  H    0.100154
     8  H   -0.139552
     9  H   -0.139552
    10  H    0.097997
 Sum of Mulliken charges =   0.00000

 Dipole moment (field-independent basis, Debye):
    X=              0.0000    Y=              0.0000    Z=             -0.0000  Tot=              0.0000
 Quadrupole moment (field-independent basis, Debye-Ang):
   XX=            -12.9151   YY=            -16.8442   ZZ=            -16.1800
   XY=             -0.0000   XZ=             -0.0000   YZ=              0.0000

 Normal termination of Gaussian 09 at Thu Feb  9 16:13:08 2017.
