 Gaussian 09, Revision E.01,
 Gaussian 09:  ES64L-G09RevE.01 30-Nov-2015

 ----------------------------------------------------------------------
 #rhf/gen scf(symm,tight,novaracc,noincfock,fulldiag) stable(crhf) geom
 =nocrowd test
 ----------------------------------------------------------------------

 hf stability analysis of h10 triangular lattice, y= 0.8753112166669652
 1
 ----------------------------------------------------------------------
 Symbolic Z-matrix:
 Charge =  0 Multiplicity = 1

                         Standard orientation:
 ---------------------------------------------------------------------
 Center     Atomic      Atomic             Coordinates (Angstroms)
 Number     Number       Type             X           Y           Z
 ---------------------------------------------------------------------
      1          1           0       -0.000000    0.875311    1.319189
      2          1           0       -0.000000   -0.000000    1.978783
      3          1           0       -0.000000   -0.000000    0.659594
      4          1           0       -0.000000   -0.875311    1.319189
      5          1           0       -0.000000    0.875311    0.000000
      6          1           0       -0.000000   -0.875311   -0.000000
      7          1           0        0.000000    0.000000   -0.659594
      8          1           0        0.000000    0.875311   -1.319189
      9          1           0       -0.000000   -0.875311   -1.319189
     10          1           0        0.000000    0.000000   -1.978783
 ---------------------------------------------------------------------

 SCF Done:  E(RHF) =  -4.96102213689     A.U. after    8 cycles
 E2 =    -0.9656727758D-01 EUMP2 =    -0.50575894144681D+01

 The electronic state is 1-AG.
 Alpha  occ. eigenvalues --   -0.94674  -0.74629  -0.54433  -0.46646  -0.31858
 Alpha virt. eigenvalues --    0.08711   0.19656   0.30094   0.49821   0.49967

 Mulliken charges:
               1
     1  H   -0.148312
     2  H    0.116021
     3  H    0.102622
     4  H   -0.148312
     5  H    0.077981
     6  H    0.077981
     7  H    0.102622
     8  H   -0.148312
     9  H   -0.148312
    10  H    0.116021
 Sum of Mulliken charges =  -0.00000

 Dipole moment (field-independent basis, Debye):
    X=              0.0000    Y=              0.0000    Z=             -0.0000  Tot=              0.0000
 Quadrupole moment (field-independent basis, Debye-Ang):
   XX=            -12.9280   YY=            -17.1013   ZZ=            -15.5903
   XY=             -0.0000   XZ=             -0.0000   YZ=              0.0000

 Normal termination of Gaussian 09 at Thu Feb  9 16:12:18 2017.
