 Gaussian 09, Revision E.01,
 Gaussian 09:  ES64L-G09RevE.01 30-Nov-2015

 ----------------------------------------------------------------------
 #rhf/gen scf(symm,tight,novaracc,noincfock,fulldiag) stable(crhf) geom
 =nocrowd test
 ----------------------------------------------------------------------

 hf stability analysis of h10 triangular lattice, y= 0.7868496627299574
 9
 ----------------------------------------------------------------------
 Symbolic Z-matrix:
 Charge =  0 Multiplicity = 1

                         Standard orientation:
 ---------------------------------------------------------------------
 Center     Atomic      Atomic             Coordinates (Angstroms)
 Number     Number       Type             X           Y           Z
 ---------------------------------------------------------------------
      1          1           0        0.000000    0.786850    1.467498
      2          1           0        0.000000    0.000000    2.201247
      3          1           0        0.000000    0.000000    0.733749
      4          1           0       -0.000000   -0.786850    1.467498
      5          1           0       -0.000000    0.786850    0.000000
      6          1           0       -0.000000   -0.786850    0.000000
      7          1           0        0.000000    0.000000   -0.733749
      8          1           0        0.000000    0.786850   -1.467498
      9          1           0       -0.000000   -0.786850   -1.467498
     10          1           0        0.000000    0.000000   -2.201247
 ---------------------------------------------------------------------

 SCF Done:  E(RHF) =  -4.89212548566     A.U. after    8 cycles
 E2 =    -0.9674106066D-01 EUMP2 =    -0.49888665463144D+01

 The electronic state is 1-AG.
 Alpha  occ. eigenvalues --   -0.92076  -0.74870  -0.50771  -0.48441  -0.28870
 Alpha virt. eigenvalues --    0.00304   0.15957   0.38308   0.46949   0.54848

 Mulliken charges:
               1
     1  H   -0.193220
     2  H    0.201028
     3  H    0.133778
     4  H   -0.193220
     5  H    0.051634
     6  H    0.051634
     7  H    0.133778
     8  H   -0.193220
     9  H   -0.193220
    10  H    0.201028
 Sum of Mulliken charges =   0.00000

 Dipole moment (field-independent basis, Debye):
    X=              0.0000    Y=              0.0000    Z=             -0.0000  Tot=              0.0000
 Quadrupole moment (field-independent basis, Debye-Ang):
   XX=            -12.9858   YY=            -18.2367   ZZ=            -12.3101
   XY=             -0.0000   XZ=             -0.0000   YZ=             -0.0000

 Normal termination of Gaussian 09 at Thu Feb  9 16:08:05 2017.
