 Gaussian 09, Revision E.01,
 Gaussian 09:  ES64L-G09RevE.01 30-Nov-2015

 ----------------------------------------------------------------------
 #rhf/gen scf(symm,tight,novaracc,noincfock,fulldiag) stable(crhf) geom
 =nocrowd test
 ----------------------------------------------------------------------

 ----------------------------------------------------------------------
 hf stability analysis of h10 triangular lattice, y= 1.8141413357799034
 ----------------------------------------------------------------------
 Symbolic Z-matrix:
 Charge =  0 Multiplicity = 1

                         Standard orientation:
 ---------------------------------------------------------------------
 Center     Atomic      Atomic             Coordinates (Angstroms)
 Number     Number       Type             X           Y           Z
 ---------------------------------------------------------------------
      1          1           0       -0.000000    1.814141    0.636500
      2          1           0       -0.000000    0.000000    0.954750
      3          1           0       -0.000000    0.000000    0.318250
      4          1           0       -0.000000   -1.814141    0.636500
      5          1           0       -0.000000    1.814141    0.000000
      6          1           0       -0.000000   -1.814141    0.000000
      7          1           0        0.000000   -0.000000   -0.318250
      8          1           0        0.000000    1.814141   -0.636500
      9          1           0       -0.000000   -1.814141   -0.636500
     10          1           0        0.000000   -0.000000   -0.954750
 ---------------------------------------------------------------------

 SCF Done:  E(RHF) =  -4.47913718790     A.U. after    7 cycles
 E2 =    -0.1292271376D+00 EUMP2 =    -0.46083643254592D+01

 The electronic state is 1-AG.
 Alpha  occ. eigenvalues --   -0.98468  -0.82025  -0.78151  -0.57172  -0.20849
 Alpha virt. eigenvalues --   -0.01118   0.32003   1.03829   1.09047   1.50943

 Mulliken charges:
               1
     1  H    0.106892
     2  H    0.215998
     3  H   -0.140147
     4  H    0.106892
     5  H   -0.289635
     6  H   -0.289635
     7  H   -0.140147
     8  H    0.106892
     9  H    0.106892
    10  H    0.215998
 Sum of Mulliken charges =   0.00000

 Dipole moment (field-independent basis, Debye):
    X=              0.0000    Y=             -0.0000    Z=              0.0000  Tot=              0.0000
 Quadrupole moment (field-independent basis, Debye-Ang):
   XX=            -12.4709   YY=            -17.0404   ZZ=            -13.8441
   XY=             -0.0000   XZ=              0.0000   YZ=              0.0000

 Normal termination of Gaussian 09 at Thu Feb  9 16:31:12 2017.
