 Gaussian 09, Revision E.01,
 Gaussian 09:  ES64L-G09RevE.01 30-Nov-2015

 ----------------------------------------------------------------------
 #rhf/gen scf(symm,tight,novaracc,noincfock,fulldiag) stable(crhf) geom
 =nocrowd test
 ----------------------------------------------------------------------

 hf stability analysis of h10 triangular lattice, y= 0.8120972424142406
 4
 ----------------------------------------------------------------------
 Symbolic Z-matrix:
 Charge =  0 Multiplicity = 1

                         Standard orientation:
 ---------------------------------------------------------------------
 Center     Atomic      Atomic             Coordinates (Angstroms)
 Number     Number       Type             X           Y           Z
 ---------------------------------------------------------------------
      1          1           0        0.000000    0.812097    1.421875
      2          1           0        0.000000    0.000000    2.132812
      3          1           0        0.000000    0.000000    0.710937
      4          1           0       -0.000000   -0.812097    1.421875
      5          1           0       -0.000000    0.812097    0.000000
      6          1           0       -0.000000   -0.812097    0.000000
      7          1           0        0.000000    0.000000   -0.710937
      8          1           0        0.000000    0.812097   -1.421875
      9          1           0       -0.000000   -0.812097   -1.421875
     10          1           0        0.000000    0.000000   -2.132812
 ---------------------------------------------------------------------

 SCF Done:  E(RHF) =  -4.91885420018     A.U. after    8 cycles
 E2 =    -0.9635565160D-01 EUMP2 =    -0.50152098517855D+01

 The electronic state is 1-AG.
 Alpha  occ. eigenvalues --   -0.92934  -0.74925  -0.50281  -0.49664  -0.29877
 Alpha virt. eigenvalues --    0.02547   0.16853   0.40346   0.43506   0.53958

 Mulliken charges:
               1
     1  H   -0.179415
     2  H    0.176265
     3  H    0.120923
     4  H   -0.179415
     5  H    0.061643
     6  H    0.061643
     7  H    0.120923
     8  H   -0.179415
     9  H   -0.179415
    10  H    0.176265
 Sum of Mulliken charges =  -0.00000

 Dipole moment (field-independent basis, Debye):
    X=              0.0000    Y=              0.0000    Z=             -0.0000  Tot=              0.0000
 Quadrupole moment (field-independent basis, Debye-Ang):
   XX=            -12.9695   YY=            -17.9198   ZZ=            -13.3570
   XY=             -0.0000   XZ=             -0.0000   YZ=              0.0000

 Normal termination of Gaussian 09 at Thu Feb  9 16:09:22 2017.
