 Gaussian 09, Revision E.01,
 Gaussian 09:  ES64L-G09RevE.01 30-Nov-2015

 ----------------------------------------------------------------------
 #rhf/gen scf(symm,tight,novaracc,noincfock,fulldiag) stable(crhf) geom
 =nocrowd test
 ----------------------------------------------------------------------

 hf stability analysis of h10 triangular lattice, y= 0.9735041708442322
 4
 ----------------------------------------------------------------------
 Symbolic Z-matrix:
 Charge =  0 Multiplicity = 1

                         Standard orientation:
 ---------------------------------------------------------------------
 Center     Atomic      Atomic             Coordinates (Angstroms)
 Number     Number       Type             X           Y           Z
 ---------------------------------------------------------------------
      1          1           0       -0.000000    0.973504    1.186128
      2          1           0       -0.000000    0.000000    1.779192
      3          1           0       -0.000000    0.000000    0.593064
      4          1           0       -0.000000   -0.973504    1.186128
      5          1           0       -0.000000    0.973504   -0.000000
      6          1           0       -0.000000   -0.973504    0.000000
      7          1           0        0.000000   -0.000000   -0.593064
      8          1           0        0.000000    0.973504   -1.186128
      9          1           0       -0.000000   -0.973504   -1.186128
     10          1           0        0.000000   -0.000000   -1.779192
 ---------------------------------------------------------------------

 SCF Done:  E(RHF) =  -4.95757620895     A.U. after    8 cycles
 E2 =    -0.1001221074D+00 EUMP2 =    -0.50576983163658D+01

 The electronic state is 1-AG.
 Alpha  occ. eigenvalues --   -0.96428  -0.73222  -0.59837  -0.41431  -0.33686
 Alpha virt. eigenvalues --    0.14351   0.19088   0.25298   0.42022   0.58825

 Mulliken charges:
               1
     1  H   -0.105988
     2  H    0.026294
     3  H    0.100470
     4  H   -0.105988
     5  H    0.085213
     6  H    0.085213
     7  H    0.100470
     8  H   -0.105988
     9  H   -0.105988
    10  H    0.026294
 Sum of Mulliken charges =  -0.00000

 Dipole moment (field-independent basis, Debye):
    X=              0.0000    Y=              0.0000    Z=             -0.0000  Tot=              0.0000
 Quadrupole moment (field-independent basis, Debye-Ang):
   XX=            -12.8615   YY=            -15.7729   ZZ=            -18.2018
   XY=             -0.0000   XZ=              0.0000   YZ=              0.0000

 Normal termination of Gaussian 09 at Thu Feb  9 16:16:12 2017.
