 Gaussian 09, Revision E.01,
 Gaussian 09:  ES64L-G09RevE.01 30-Nov-2015

 ----------------------------------------------------------------------
 #rhf/gen scf(symm,tight,novaracc,noincfock,fulldiag) stable(crhf) geom
 =nocrowd test
 ----------------------------------------------------------------------

 hf stability analysis of h10 triangular lattice, y= 0.7658271821588952
 3
 ----------------------------------------------------------------------
 Symbolic Z-matrix:
 Charge =  0 Multiplicity = 1

                         Standard orientation:
 ---------------------------------------------------------------------
 Center     Atomic      Atomic             Coordinates (Angstroms)
 Number     Number       Type             X           Y           Z
 ---------------------------------------------------------------------
      1          1           0       -0.000000    0.765827    1.507782
      2          1           0       -0.000000    0.000000    2.261673
      3          1           0       -0.000000    0.000000    0.753891
      4          1           0       -0.000000   -0.765827    1.507782
      5          1           0       -0.000000    0.765827    0.000000
      6          1           0       -0.000000   -0.765827    0.000000
      7          1           0        0.000000    0.000000   -0.753891
      8          1           0        0.000000    0.765827   -1.507782
      9          1           0       -0.000000   -0.765827   -1.507782
     10          1           0        0.000000    0.000000   -2.261673
 ---------------------------------------------------------------------

 SCF Done:  E(RHF) =  -4.86550541737     A.U. after    8 cycles
 E2 =    -0.9727852112D-01 EUMP2 =    -0.49627839384942D+01

 The electronic state is 1-AG.
 Alpha  occ. eigenvalues --   -0.91283  -0.74740  -0.51642  -0.46817  -0.27924
 Alpha virt. eigenvalues --   -0.01451   0.15320   0.35505   0.50771   0.55161

 Mulliken charges:
               1
     1  H   -0.205416
     2  H    0.221938
     3  H    0.147416
     4  H   -0.205416
     5  H    0.041479
     6  H    0.041479
     7  H    0.147416
     8  H   -0.205416
     9  H   -0.205416
    10  H    0.221938
 Sum of Mulliken charges =  -0.00000

 Dipole moment (field-independent basis, Debye):
    X=              0.0000    Y=              0.0000    Z=             -0.0000  Tot=              0.0000
 Quadrupole moment (field-independent basis, Debye-Ang):
   XX=            -12.9991   YY=            -18.4947   ZZ=            -11.3597
   XY=             -0.0000   XZ=             -0.0000   YZ=             -0.0000

 Normal termination of Gaussian 09 at Thu Feb  9 16:06:59 2017.
