 Gaussian 09, Revision E.01,
 Gaussian 09:  ES64L-G09RevE.01 30-Nov-2015

 ----------------------------------------------------------------------
 #rhf/gen scf(symm,tight,novaracc,noincfock,fulldiag) stable(crhf) geom
 =nocrowd test
 ----------------------------------------------------------------------

 ----------------------------------------------------------------------
 hf stability analysis of h10 triangular lattice, y= 1.0258511839050852
 ----------------------------------------------------------------------
 Symbolic Z-matrix:
 Charge =  0 Multiplicity = 1

                         Standard orientation:
 ---------------------------------------------------------------------
 Center     Atomic      Atomic             Coordinates (Angstroms)
 Number     Number       Type             X           Y           Z
 ---------------------------------------------------------------------
      1          1           0        0.000000    1.025851    1.125602
      2          1           0        0.000000    0.000000    1.688404
      3          1           0        0.000000    0.000000    0.562801
      4          1           0       -0.000000   -1.025851    1.125602
      5          1           0       -0.000000    1.025851   -0.000000
      6          1           0       -0.000000   -1.025851    0.000000
      7          1           0        0.000000   -0.000000   -0.562801
      8          1           0        0.000000    1.025851   -1.125602
      9          1           0       -0.000000   -1.025851   -1.125602
     10          1           0        0.000000   -0.000000   -1.688404
 ---------------------------------------------------------------------

 SCF Done:  E(RHF) =  -4.92282640759     A.U. after    9 cycles
 E2 =    -0.1036541260D+00 EUMP2 =    -0.50264805336069D+01

 The electronic state is 1-AG.
 Alpha  occ. eigenvalues --   -0.96997  -0.72149  -0.62303  -0.38457  -0.34164
 Alpha virt. eigenvalues --    0.07042   0.23848   0.28804   0.38965   0.62309

 Mulliken charges:
               1
     1  H   -0.083135
     2  H   -0.021694
     3  H    0.107500
     4  H   -0.083135
     5  H    0.080463
     6  H    0.080463
     7  H    0.107500
     8  H   -0.083135
     9  H   -0.083135
    10  H   -0.021694
 Sum of Mulliken charges =   0.00000

 Dipole moment (field-independent basis, Debye):
    X=              0.0000    Y=             -0.0000    Z=              0.0000  Tot=              0.0000
 Quadrupole moment (field-independent basis, Debye-Ang):
   XX=            -12.8237   YY=            -15.0329   ZZ=            -19.2699
   XY=             -0.0000   XZ=              0.0000   YZ=             -0.0000

 Normal termination of Gaussian 09 at Thu Feb  9 16:18:01 2017.
