 Gaussian 09, Revision E.01,
 Gaussian 09:  ES64L-G09RevE.01 30-Nov-2015

 ----------------------------------------------------------------------
 #rhf/gen scf(symm,tight,novaracc,noincfock,fulldiag) stable(crhf) geom
 =nocrowd test
 ----------------------------------------------------------------------

 hf stability analysis of h10 triangular lattice, y= 0.9754198370359219
 4
 ----------------------------------------------------------------------
 Symbolic Z-matrix:
 Charge =  0 Multiplicity = 1

                         Standard orientation:
 ---------------------------------------------------------------------
 Center     Atomic      Atomic             Coordinates (Angstroms)
 Number     Number       Type             X           Y           Z
 ---------------------------------------------------------------------
      1          1           0        0.000000    0.975420    1.183799
      2          1           0        0.000000   -0.000000    1.775698
      3          1           0        0.000000   -0.000000    0.591899
      4          1           0       -0.000000   -0.975420    1.183799
      5          1           0       -0.000000    0.975420    0.000000
      6          1           0       -0.000000   -0.975420   -0.000000
      7          1           0        0.000000    0.000000   -0.591899
      8          1           0        0.000000    0.975420   -1.183799
      9          1           0       -0.000000   -0.975420   -1.183799
     10          1           0        0.000000    0.000000   -1.775698
 ---------------------------------------------------------------------

 SCF Done:  E(RHF) =  -4.95669579717     A.U. after    8 cycles
 E2 =    -0.1002307090D+00 EUMP2 =    -0.50569265062110D+01

 The electronic state is 1-AG.
 Alpha  occ. eigenvalues --   -0.96452  -0.73185  -0.59932  -0.41324  -0.33709
 Alpha virt. eigenvalues --    0.14071   0.19285   0.25421   0.41879   0.58967

 Mulliken charges:
               1
     1  H   -0.105184
     2  H    0.024562
     3  H    0.100641
     4  H   -0.105184
     5  H    0.085164
     6  H    0.085164
     7  H    0.100641
     8  H   -0.105184
     9  H   -0.105184
    10  H    0.024562
 Sum of Mulliken charges =  -0.00000

 Dipole moment (field-independent basis, Debye):
    X=              0.0000    Y=              0.0000    Z=              0.0000  Tot=              0.0000
 Quadrupole moment (field-independent basis, Debye-Ang):
   XX=            -12.8601   YY=            -15.7462   ZZ=            -18.2444
   XY=             -0.0000   XZ=              0.0000   YZ=             -0.0000

 Normal termination of Gaussian 09 at Thu Feb  9 16:16:16 2017.
