 Gaussian 09, Revision E.01,
 Gaussian 09:  ES64L-G09RevE.01 30-Nov-2015

 ----------------------------------------------------------------------
 #rhf/gen scf(symm,tight,novaracc,noincfock,fulldiag) stable(crhf) geom
 =nocrowd test
 ----------------------------------------------------------------------

 ----------------------------------------------------------------------
 hf stability analysis of h10 triangular lattice, y= 1.1578395597018831
 ----------------------------------------------------------------------
 Symbolic Z-matrix:
 Charge =  0 Multiplicity = 1

                         Standard orientation:
 ---------------------------------------------------------------------
 Center     Atomic      Atomic             Coordinates (Angstroms)
 Number     Number       Type             X           Y           Z
 ---------------------------------------------------------------------
      1          1           0        0.000000    1.157840    0.997289
      2          1           0        0.000000    0.000000    1.495933
      3          1           0        0.000000    0.000000    0.498644
      4          1           0       -0.000000   -1.157840    0.997289
      5          1           0       -0.000000    1.157840   -0.000000
      6          1           0       -0.000000   -1.157840    0.000000
      7          1           0        0.000000   -0.000000   -0.498644
      8          1           0        0.000000    1.157840   -0.997289
      9          1           0       -0.000000   -1.157840   -0.997289
     10          1           0        0.000000   -0.000000   -1.495933
 ---------------------------------------------------------------------

 SCF Done:  E(RHF) =  -4.83768653919     A.U. after   10 cycles
 E2 =    -0.1035857469D+00 EUMP2 =    -0.49412722861321D+01

 The electronic state is 1-AG.
 Alpha  occ. eigenvalues --   -0.94345  -0.68355  -0.65832  -0.35680  -0.31330
 Alpha virt. eigenvalues --   -0.03076   0.18489   0.46662   0.50596   0.71972

 Mulliken charges:
               1
     1  H   -0.038557
     2  H    0.189557
     3  H    0.017581
     4  H   -0.038557
     5  H   -0.130024
     6  H   -0.130024
     7  H    0.017581
     8  H   -0.038557
     9  H   -0.038557
    10  H    0.189557
 Sum of Mulliken charges =  -0.00000

 Dipole moment (field-independent basis, Debye):
    X=              0.0000    Y=              0.0000    Z=              0.0000  Tot=              0.0000
 Quadrupole moment (field-independent basis, Debye-Ang):
   XX=            -12.5854   YY=            -20.2857   ZZ=            -10.4595
   XY=             -0.0000   XZ=             -0.0000   YZ=             -0.0000

 Normal termination of Gaussian 09 at Thu Feb  9 16:21:52 2017.
