 Gaussian 09, Revision E.01,
 Gaussian 09:  ES64L-G09RevE.01 30-Nov-2015

 ----------------------------------------------------------------------
 #rhf/gen scf(symm,tight,novaracc,noincfock,fulldiag) stable(crhf) geom
 =nocrowd test
 ----------------------------------------------------------------------

 hf stability analysis of h10 triangular lattice, y= 0.9208433600613213
 9
 ----------------------------------------------------------------------
 Symbolic Z-matrix:
 Charge =  0 Multiplicity = 1

                         Standard orientation:
 ---------------------------------------------------------------------
 Center     Atomic      Atomic             Coordinates (Angstroms)
 Number     Number       Type             X           Y           Z
 ---------------------------------------------------------------------
      1          1           0        0.000000    0.920843    1.253960
      2          1           0        0.000000    0.000000    1.880940
      3          1           0        0.000000    0.000000    0.626980
      4          1           0       -0.000000   -0.920843    1.253960
      5          1           0       -0.000000    0.920843   -0.000000
      6          1           0       -0.000000   -0.920843    0.000000
      7          1           0        0.000000   -0.000000   -0.626980
      8          1           0        0.000000    0.920843   -1.253960
      9          1           0       -0.000000   -0.920843   -1.253960
     10          1           0        0.000000   -0.000000   -1.880940
 ---------------------------------------------------------------------

 SCF Done:  E(RHF) =  -4.96971239403     A.U. after    8 cycles
 E2 =    -0.9772861020D-01 EUMP2 =    -0.50674410042234D+01

 The electronic state is 1-AG.
 Alpha  occ. eigenvalues --   -0.95614  -0.74097  -0.57079  -0.44295  -0.32873
 Alpha virt. eigenvalues --    0.13495   0.22101   0.22450   0.46277   0.54423

 Mulliken charges:
               1
     1  H   -0.128165
     2  H    0.074014
     3  H    0.098619
     4  H   -0.128165
     5  H    0.083698
     6  H    0.083698
     7  H    0.098619
     8  H   -0.128165
     9  H   -0.128165
    10  H    0.074014
 Sum of Mulliken charges =  -0.00000

 Dipole moment (field-independent basis, Debye):
    X=              0.0000    Y=              0.0000    Z=              0.0000  Tot=              0.0000
 Quadrupole moment (field-independent basis, Debye-Ang):
   XX=            -12.8976   YY=            -16.4939   ZZ=            -16.9128
   XY=             -0.0000   XZ=              0.0000   YZ=             -0.0000

 Normal termination of Gaussian 09 at Thu Feb  9 16:14:14 2017.
