 Gaussian 09, Revision E.01,
 Gaussian 09:  ES64L-G09RevE.01 30-Nov-2015

 ----------------------------------------------------------------------
 #rhf/gen scf(symm,tight,novaracc,noincfock,fulldiag) stable(crhf) geom
 =nocrowd test
 ----------------------------------------------------------------------

 ----------------------------------------------------------------------
 hf stability analysis of h10 triangular lattice, y= 1.5077541156608558
 ----------------------------------------------------------------------
 Symbolic Z-matrix:
 Charge =  0 Multiplicity = 1

                         Standard orientation:
 ---------------------------------------------------------------------
 Center     Atomic      Atomic             Coordinates (Angstroms)
 Number     Number       Type             X           Y           Z
 ---------------------------------------------------------------------
      1          1           0       -0.000000    1.507754    0.765841
      2          1           0        0.000000   -0.000000    1.148762
      3          1           0        0.000000   -0.000000    0.382921
      4          1           0       -0.000000   -1.507754    0.765841
      5          1           0       -0.000000    1.507754    0.000000
      6          1           0       -0.000000   -1.507754   -0.000000
      7          1           0        0.000000    0.000000   -0.382921
      8          1           0        0.000000    1.507754   -0.765841
      9          1           0       -0.000000   -1.507754   -0.765841
     10          1           0        0.000000    0.000000   -1.148762
 ---------------------------------------------------------------------

 SCF Done:  E(RHF) =  -4.88771083066     A.U. after    8 cycles
 E2 =    -0.9234622570D-01 EUMP2 =    -0.49800570563646D+01

 The electronic state is 1-AG.
 Alpha  occ. eigenvalues --   -0.96254  -0.75333  -0.63252  -0.61401  -0.26291
 Alpha virt. eigenvalues --    0.04015   0.15301   0.77933   0.89710   1.01619

 Mulliken charges:
               1
     1  H   -0.010041
     2  H    0.250764
     3  H   -0.083054
     4  H   -0.010041
     5  H   -0.147628
     6  H   -0.147628
     7  H   -0.083054
     8  H   -0.010041
     9  H   -0.010041
    10  H    0.250764
 Sum of Mulliken charges =  -0.00000

 Dipole moment (field-independent basis, Debye):
    X=              0.0000    Y=             -0.0000    Z=              0.0000  Tot=              0.0000
 Quadrupole moment (field-independent basis, Debye-Ang):
   XX=            -12.5969   YY=            -19.7079   ZZ=            -12.2669
   XY=             -0.0000   XZ=             -0.0000   YZ=             -0.0000

 Normal termination of Gaussian 09 at Thu Feb  9 16:28:12 2017.
