 Gaussian 09, Revision E.01,
 Gaussian 09:  ES64L-G09RevE.01 30-Nov-2015

 ----------------------------------------------------------------------
 #rhf/gen scf(symm,tight,novaracc,noincfock,fulldiag) stable(crhf) geom
 =nocrowd test
 ----------------------------------------------------------------------

 ----------------------------------------------------------------------
 hf stability analysis of h10 triangular lattice, y= 1.3552522653158787
 ----------------------------------------------------------------------
 Symbolic Z-matrix:
 Charge =  0 Multiplicity = 1

                         Standard orientation:
 ---------------------------------------------------------------------
 Center     Atomic      Atomic             Coordinates (Angstroms)
 Number     Number       Type             X           Y           Z
 ---------------------------------------------------------------------
      1          1           0        0.000000    1.355252    0.852019
      2          1           0        0.000000    0.000000    1.278028
      3          1           0        0.000000    0.000000    0.426009
      4          1           0       -0.000000   -1.355252    0.852019
      5          1           0       -0.000000    1.355252   -0.000000
      6          1           0       -0.000000   -1.355252   -0.000000
      7          1           0        0.000000    0.000000   -0.426009
      8          1           0        0.000000    1.355252   -0.852019
      9          1           0       -0.000000   -1.355252   -0.852019
     10          1           0        0.000000    0.000000   -1.278028
 ---------------------------------------------------------------------

 SCF Done:  E(RHF) =  -4.95405934198     A.U. after    8 cycles
 E2 =    -0.8796235382D-01 EUMP2 =    -0.50420216958003D+01

 The electronic state is 1-AG.
 Alpha  occ. eigenvalues --   -0.95200  -0.71442  -0.64096  -0.52752  -0.28900
 Alpha virt. eigenvalues --    0.06724   0.09123   0.64759   0.78722   0.81762

 Mulliken charges:
               1
     1  H   -0.062450
     2  H    0.281402
     3  H   -0.062045
     4  H   -0.062450
     5  H   -0.094457
     6  H   -0.094457
     7  H   -0.062045
     8  H   -0.062450
     9  H   -0.062450
    10  H    0.281402
 Sum of Mulliken charges =   0.00000

 Dipole moment (field-independent basis, Debye):
    X=              0.0000    Y=             -0.0000    Z=             -0.0000  Tot=              0.0000
 Quadrupole moment (field-independent basis, Debye-Ang):
   XX=            -12.6164   YY=            -20.8117   ZZ=            -10.9258
   XY=             -0.0000   XZ=             -0.0000   YZ=             -0.0000

 Normal termination of Gaussian 09 at Thu Feb  9 16:25:59 2017.
