 Gaussian 09, Revision E.01,
 Gaussian 09:  ES64L-G09RevE.01 30-Nov-2015

 ----------------------------------------------------------------------
 #rhf/gen scf(symm,tight,novaracc,noincfock,fulldiag) stable(crhf) geom
 =nocrowd test
 ----------------------------------------------------------------------

 ----------------------------------------------------------------------
 hf stability analysis of h10 triangular lattice, y= 1.1468394567186027
 ----------------------------------------------------------------------
 Symbolic Z-matrix:
 Charge =  0 Multiplicity = 1

                         Standard orientation:
 ---------------------------------------------------------------------
 Center     Atomic      Atomic             Coordinates (Angstroms)
 Number     Number       Type             X           Y           Z
 ---------------------------------------------------------------------
      1          1           0        0.000000    1.146839    1.006855
      2          1           0        0.000000    0.000000    1.510282
      3          1           0        0.000000    0.000000    0.503427
      4          1           0       -0.000000   -1.146839    1.006855
      5          1           0       -0.000000    1.146839   -0.000000
      6          1           0       -0.000000   -1.146839    0.000000
      7          1           0        0.000000   -0.000000   -0.503427
      8          1           0        0.000000    1.146839   -1.006855
      9          1           0       -0.000000   -1.146839   -1.006855
     10          1           0        0.000000   -0.000000   -1.510282
 ---------------------------------------------------------------------

 SCF Done:  E(RHF) =  -4.82736808974     A.U. after   11 cycles
 E2 =    -0.1057594093D+00 EUMP2 =    -0.49331274990628D+01

 The electronic state is 1-AG.
 Alpha  occ. eigenvalues --   -0.94603  -0.68721  -0.65630  -0.34709  -0.31499
 Alpha virt. eigenvalues --   -0.03302   0.19195   0.45122   0.48900   0.71187

 Mulliken charges:
               1
     1  H   -0.015884
     2  H    0.141228
     3  H    0.036212
     4  H   -0.015884
     5  H   -0.145672
     6  H   -0.145672
     7  H    0.036212
     8  H   -0.015884
     9  H   -0.015884
    10  H    0.141228
 Sum of Mulliken charges =  -0.00000

 Dipole moment (field-independent basis, Debye):
    X=              0.0000    Y=              0.0000    Z=             -0.0000  Tot=              0.0000
 Quadrupole moment (field-independent basis, Debye-Ang):
   XX=            -12.5883   YY=            -19.5968   ZZ=            -11.2829
   XY=             -0.0000   XZ=             -0.0000   YZ=              0.0000

 Normal termination of Gaussian 09 at Thu Feb  9 16:21:36 2017.
