 Gaussian 09, Revision E.01,
 Gaussian 09:  ES64L-G09RevE.01 30-Nov-2015

 ----------------------------------------------------------------------
 #rhf/gen scf(symm,tight,novaracc,noincfock,fulldiag) stable(crhf) geom
 =nocrowd test
 ----------------------------------------------------------------------

 hf stability analysis of h10 triangular lattice, y= 0.8542494301434167
 0
 ----------------------------------------------------------------------
 Symbolic Z-matrix:
 Charge =  0 Multiplicity = 1

                         Standard orientation:
 ---------------------------------------------------------------------
 Center     Atomic      Atomic             Coordinates (Angstroms)
 Number     Number       Type             X           Y           Z
 ---------------------------------------------------------------------
      1          1           0        0.000000    0.854249    1.351714
      2          1           0       -0.000000    0.000000    2.027570
      3          1           0       -0.000000    0.000000    0.675857
      4          1           0       -0.000000   -0.854249    1.351714
      5          1           0       -0.000000    0.854249   -0.000000
      6          1           0       -0.000000   -0.854249    0.000000
      7          1           0        0.000000   -0.000000   -0.675857
      8          1           0        0.000000    0.854249   -1.351714
      9          1           0       -0.000000   -0.854249   -1.351714
     10          1           0        0.000000   -0.000000   -2.027570
 ---------------------------------------------------------------------

 SCF Done:  E(RHF) =  -4.95088116662     A.U. after    8 cycles
 E2 =    -0.9631417199D-01 EUMP2 =    -0.50471953386125D+01

 The electronic state is 1-AG.
 Alpha  occ. eigenvalues --   -0.94155  -0.74791  -0.53116  -0.47686  -0.31278
 Alpha virt. eigenvalues --    0.06581   0.18639   0.33804   0.47467   0.51507

 Mulliken charges:
               1
     1  H   -0.158194
     2  H    0.135821
     3  H    0.106810
     4  H   -0.158194
     5  H    0.073756
     6  H    0.073756
     7  H    0.106810
     8  H   -0.158194
     9  H   -0.158194
    10  H    0.135821
 Sum of Mulliken charges =   0.00000

 Dipole moment (field-independent basis, Debye):
    X=              0.0000    Y=             -0.0000    Z=             -0.0000  Tot=              0.0000
 Quadrupole moment (field-independent basis, Debye-Ang):
   XX=            -12.9419   YY=            -17.3774   ZZ=            -14.9022
   XY=             -0.0000   XZ=             -0.0000   YZ=             -0.0000

 Normal termination of Gaussian 09 at Thu Feb  9 16:11:21 2017.
