 Gaussian 09, Revision E.01,
 Gaussian 09:  ES64L-G09RevE.01 30-Nov-2015

 ----------------------------------------------------------------------
 #rhf/gen scf(symm,tight,novaracc,noincfock,fulldiag) stable(crhf) geom
 =nocrowd test
 ----------------------------------------------------------------------

 ----------------------------------------------------------------------
 hf stability analysis of h10 triangular lattice, y= 1.0398466462433982
 ----------------------------------------------------------------------
 Symbolic Z-matrix:
 Charge =  0 Multiplicity = 1

                         Standard orientation:
 ---------------------------------------------------------------------
 Center     Atomic      Atomic             Coordinates (Angstroms)
 Number     Number       Type             X           Y           Z
 ---------------------------------------------------------------------
      1          1           0       -0.000000    1.039847    1.110453
      2          1           0       -0.000000   -0.000000    1.665679
      3          1           0       -0.000000   -0.000000    0.555226
      4          1           0       -0.000000   -1.039847    1.110453
      5          1           0       -0.000000    1.039847    0.000000
      6          1           0       -0.000000   -1.039847   -0.000000
      7          1           0        0.000000    0.000000   -0.555226
      8          1           0        0.000000    1.039847   -1.110453
      9          1           0       -0.000000   -1.039847   -1.110453
     10          1           0        0.000000    0.000000   -1.665679
 ---------------------------------------------------------------------

 SCF Done:  E(RHF) =  -4.90989104780     A.U. after    9 cycles
 E2 =    -0.1048059162D+00 EUMP2 =    -0.50146969640449D+01

 The electronic state is 1-AG.
 Alpha  occ. eigenvalues --   -0.97116  -0.71840  -0.62921  -0.37641  -0.34239
 Alpha virt. eigenvalues --    0.05203   0.24702   0.29791   0.38644   0.63115

 Mulliken charges:
               1
     1  H   -0.076303
     2  H   -0.035100
     3  H    0.110247
     4  H   -0.076303
     5  H    0.077459
     6  H    0.077459
     7  H    0.110247
     8  H   -0.076303
     9  H   -0.076303
    10  H   -0.035100
 Sum of Mulliken charges =   0.00000

 Dipole moment (field-independent basis, Debye):
    X=             -0.0000    Y=              0.0000    Z=             -0.0000  Tot=              0.0000
 Quadrupole moment (field-independent basis, Debye-Ang):
   XX=            -12.8130   YY=            -14.8304   ZZ=            -19.5229
   XY=             -0.0000   XZ=              0.0000   YZ=              0.0000

 Normal termination of Gaussian 09 at Thu Feb  9 16:18:29 2017.
