 Gaussian 09, Revision E.01,
 Gaussian 09:  ES64L-G09RevE.01 30-Nov-2015

 ----------------------------------------------------------------------
 #rhf/gen scf(symm,tight,novaracc,noincfock,fulldiag) stable(crhf) geom
 =nocrowd test
 ----------------------------------------------------------------------

 hf stability analysis of h10 triangular lattice, y= 0.8164015023451836
 1
 ----------------------------------------------------------------------
 Symbolic Z-matrix:
 Charge =  0 Multiplicity = 1

                         Standard orientation:
 ---------------------------------------------------------------------
 Center     Atomic      Atomic             Coordinates (Angstroms)
 Number     Number       Type             X           Y           Z
 ---------------------------------------------------------------------
      1          1           0        0.000000    0.816401    1.414378
      2          1           0        0.000000    0.000000    2.121567
      3          1           0        0.000000    0.000000    0.707189
      4          1           0       -0.000000   -0.816401    1.414378
      5          1           0       -0.000000    0.816401   -0.000000
      6          1           0       -0.000000   -0.816401    0.000000
      7          1           0        0.000000   -0.000000   -0.707189
      8          1           0        0.000000    0.816401   -1.414378
      9          1           0       -0.000000   -0.816401   -1.414378
     10          1           0        0.000000   -0.000000   -2.121567
 ---------------------------------------------------------------------

 SCF Done:  E(RHF) =  -4.92284483195     A.U. after    8 cycles
 E2 =    -0.9631735075D-01 EUMP2 =    -0.50191621827050D+01

 The electronic state is 1-AG.
 Alpha  occ. eigenvalues --   -0.93070  -0.74924  -0.50584  -0.49469  -0.30036
 Alpha virt. eigenvalues --    0.02944   0.17019   0.40043   0.43556   0.53757

 Mulliken charges:
               1
     1  H   -0.177149
     2  H    0.172083
     3  H    0.119084
     4  H   -0.177149
     5  H    0.063130
     6  H    0.063130
     7  H    0.119084
     8  H   -0.177149
     9  H   -0.177149
    10  H    0.172083
 Sum of Mulliken charges =  -0.00000

 Dipole moment (field-independent basis, Debye):
    X=              0.0000    Y=             -0.0000    Z=              0.0000  Tot=              0.0000
 Quadrupole moment (field-independent basis, Debye-Ang):
   XX=            -12.9667   YY=            -17.8651   ZZ=            -13.5260
   XY=             -0.0000   XZ=             -0.0000   YZ=             -0.0000

 Normal termination of Gaussian 09 at Thu Feb  9 16:09:34 2017.
