 Gaussian 09, Revision E.01,
 Gaussian 09:  ES64L-G09RevE.01 30-Nov-2015

 ----------------------------------------------------------------------
 #rhf/gen scf(symm,tight,novaracc,noincfock,fulldiag) stable(crhf) geom
 =nocrowd test
 ----------------------------------------------------------------------

 hf stability analysis of h10 triangular lattice, y= 0.8309652271273444
 4
 ----------------------------------------------------------------------
 Symbolic Z-matrix:
 Charge =  0 Multiplicity = 1

                         Standard orientation:
 ---------------------------------------------------------------------
 Center     Atomic      Atomic             Coordinates (Angstroms)
 Number     Number       Type             X           Y           Z
 ---------------------------------------------------------------------
      1          1           0        0.000000    0.830965    1.389589
      2          1           0        0.000000    0.000000    2.084384
      3          1           0        0.000000    0.000000    0.694795
      4          1           0       -0.000000   -0.830965    1.389589
      5          1           0       -0.000000    0.830965   -0.000000
      6          1           0       -0.000000   -0.830965    0.000000
      7          1           0        0.000000   -0.000000   -0.694795
      8          1           0        0.000000    0.830965   -1.389589
      9          1           0       -0.000000   -0.830965   -1.389589
     10          1           0        0.000000   -0.000000   -2.084384
 ---------------------------------------------------------------------

 SCF Done:  E(RHF) =  -4.93513018809     A.U. after    8 cycles
 E2 =    -0.9624569185D-01 EUMP2 =    -0.50313758799420D+01

 The electronic state is 1-AG.
 Alpha  occ. eigenvalues --   -0.93511  -0.74898  -0.51585  -0.48797  -0.30546
 Alpha virt. eigenvalues --    0.04312   0.17610   0.37904   0.44819   0.52987

 Mulliken charges:
               1
     1  H   -0.169654
     2  H    0.158023
     3  H    0.113566
     4  H   -0.169654
     5  H    0.067720
     6  H    0.067720
     7  H    0.113566
     8  H   -0.169654
     9  H   -0.169654
    10  H    0.158023
 Sum of Mulliken charges =  -0.00000

 Dipole moment (field-independent basis, Debye):
    X=              0.0000    Y=              0.0000    Z=              0.0000  Tot=              0.0000
 Quadrupole moment (field-independent basis, Debye-Ang):
   XX=            -12.9572   YY=            -17.6788   ZZ=            -14.0781
   XY=             -0.0000   XZ=             -0.0000   YZ=              0.0000

 Normal termination of Gaussian 09 at Thu Feb  9 16:10:16 2017.
