 Gaussian 09, Revision E.01,
 Gaussian 09:  ES64L-G09RevE.01 30-Nov-2015

 ----------------------------------------------------------------------
 #rhf/gen scf(symm,tight,novaracc,noincfock,fulldiag) stable(crhf) geom
 =nocrowd test
 ----------------------------------------------------------------------

 hf stability analysis of h10 triangular lattice, y= 0.8135287770266516
 1
 ----------------------------------------------------------------------
 Symbolic Z-matrix:
 Charge =  0 Multiplicity = 1

                         Standard orientation:
 ---------------------------------------------------------------------
 Center     Atomic      Atomic             Coordinates (Angstroms)
 Number     Number       Type             X           Y           Z
 ---------------------------------------------------------------------
      1          1           0        0.000000    0.813529    1.419373
      2          1           0       -0.000000    0.000000    2.129059
      3          1           0       -0.000000    0.000000    0.709686
      4          1           0       -0.000000   -0.813529    1.419373
      5          1           0       -0.000000    0.813529    0.000000
      6          1           0       -0.000000   -0.813529   -0.000000
      7          1           0        0.000000   -0.000000   -0.709686
      8          1           0        0.000000    0.813529   -1.419373
      9          1           0       -0.000000   -0.813529   -1.419373
     10          1           0        0.000000   -0.000000   -2.129059
 ---------------------------------------------------------------------

 SCF Done:  E(RHF) =  -4.92019967222     A.U. after    8 cycles
 E2 =    -0.9634203973D-01 EUMP2 =    -0.50165417119515D+01

 The electronic state is 1-AG.
 Alpha  occ. eigenvalues --   -0.92979  -0.74925  -0.50382  -0.49599  -0.29930
 Alpha virt. eigenvalues --    0.02679   0.16907   0.40276   0.43493   0.53893

 Mulliken charges:
               1
     1  H   -0.178659
     2  H    0.174873
     3  H    0.120300
     4  H   -0.178659
     5  H    0.062144
     6  H    0.062144
     7  H    0.120300
     8  H   -0.178659
     9  H   -0.178659
    10  H    0.174873
 Sum of Mulliken charges =  -0.00000

 Dipole moment (field-independent basis, Debye):
    X=              0.0000    Y=              0.0000    Z=             -0.0000  Tot=              0.0000
 Quadrupole moment (field-independent basis, Debye-Ang):
   XX=            -12.9686   YY=            -17.9016   ZZ=            -13.4135
   XY=             -0.0000   XZ=             -0.0000   YZ=             -0.0000

 Normal termination of Gaussian 09 at Thu Feb  9 16:09:26 2017.
