 Gaussian 09, Revision E.01,
 Gaussian 09:  ES64L-G09RevE.01 30-Nov-2015

 ----------------------------------------------------------------------
 #rhf/gen scf(symm,tight,novaracc,noincfock,fulldiag) stable(crhf) geom
 =nocrowd test
 ----------------------------------------------------------------------

 hf stability analysis of h10 triangular lattice, y= 0.7685055944340305
 5
 ----------------------------------------------------------------------
 Symbolic Z-matrix:
 Charge =  0 Multiplicity = 1

                         Standard orientation:
 ---------------------------------------------------------------------
 Center     Atomic      Atomic             Coordinates (Angstroms)
 Number     Number       Type             X           Y           Z
 ---------------------------------------------------------------------
      1          1           0        0.000000    0.768506    1.502527
      2          1           0        0.000000    0.000000    2.253791
      3          1           0        0.000000    0.000000    0.751264
      4          1           0       -0.000000   -0.768506    1.502527
      5          1           0       -0.000000    0.768506    0.000000
      6          1           0       -0.000000   -0.768506    0.000000
      7          1           0        0.000000    0.000000   -0.751264
      8          1           0        0.000000    0.768506   -1.502527
      9          1           0       -0.000000   -0.768506   -1.502527
     10          1           0        0.000000    0.000000   -2.253791
 ---------------------------------------------------------------------

 SCF Done:  E(RHF) =  -4.86911946489     A.U. after    8 cycles
 E2 =    -0.9719873372D-01 EUMP2 =    -0.49663181986098D+01

 The electronic state is 1-AG.
 Alpha  occ. eigenvalues --   -0.91388  -0.74761  -0.51534  -0.47029  -0.28050
 Alpha virt. eigenvalues --   -0.01233   0.15396   0.35873   0.50283   0.55144

 Mulliken charges:
               1
     1  H   -0.203826
     2  H    0.219260
     3  H    0.145520
     4  H   -0.203826
     5  H    0.042871
     6  H    0.042871
     7  H    0.145520
     8  H   -0.203826
     9  H   -0.203826
    10  H    0.219260
 Sum of Mulliken charges =  -0.00000

 Dipole moment (field-independent basis, Debye):
    X=              0.0000    Y=             -0.0000    Z=              0.0000  Tot=              0.0000
 Quadrupole moment (field-independent basis, Debye-Ang):
   XX=            -12.9974   YY=            -18.4622   ZZ=            -11.4850
   XY=             -0.0000   XZ=             -0.0000   YZ=              0.0000

 Normal termination of Gaussian 09 at Thu Feb  9 16:07:07 2017.
