 Gaussian 09, Revision E.01,
 Gaussian 09:  ES64L-G09RevE.01 30-Nov-2015

 ----------------------------------------------------------------------
 #rhf/gen scf(symm,tight,novaracc,noincfock,fulldiag) stable(crhf) geom
 =nocrowd test
 ----------------------------------------------------------------------

 ----------------------------------------------------------------------
 hf stability analysis of h10 triangular lattice, y= 1.4678899319530556
 ----------------------------------------------------------------------
 Symbolic Z-matrix:
 Charge =  0 Multiplicity = 1

                         Standard orientation:
 ---------------------------------------------------------------------
 Center     Atomic      Atomic             Coordinates (Angstroms)
 Number     Number       Type             X           Y           Z
 ---------------------------------------------------------------------
      1          1           0        0.000000    1.467890    0.786640
      2          1           0        0.000000    0.000000    1.179960
      3          1           0        0.000000    0.000000    0.393320
      4          1           0       -0.000000   -1.467890    0.786640
      5          1           0       -0.000000    1.467890   -0.000000
      6          1           0       -0.000000   -1.467890    0.000000
      7          1           0        0.000000   -0.000000   -0.393320
      8          1           0        0.000000    1.467890   -0.786640
      9          1           0       -0.000000   -1.467890   -0.786640
     10          1           0        0.000000   -0.000000   -1.179960
 ---------------------------------------------------------------------

 SCF Done:  E(RHF) =  -4.91615436186     A.U. after    8 cycles
 E2 =    -0.9023752693D-01 EUMP2 =    -0.50063918887925D+01

 The electronic state is 1-AG.
 Alpha  occ. eigenvalues --   -0.95994  -0.74366  -0.62074  -0.60736  -0.27001
 Alpha virt. eigenvalues --    0.05161   0.13061   0.74502   0.87521   0.95513

 Mulliken charges:
               1
     1  H   -0.024618
     2  H    0.258672
     3  H   -0.077289
     4  H   -0.024618
     5  H   -0.132148
     6  H   -0.132148
     7  H   -0.077289
     8  H   -0.024618
     9  H   -0.024618
    10  H    0.258672
 Sum of Mulliken charges =   0.00000

 Dipole moment (field-independent basis, Debye):
    X=              0.0000    Y=              0.0000    Z=              0.0000  Tot=              0.0000
 Quadrupole moment (field-independent basis, Debye-Ang):
   XX=            -12.6054   YY=            -20.0221   ZZ=            -11.9569
   XY=             -0.0000   XZ=             -0.0000   YZ=              0.0000

 Normal termination of Gaussian 09 at Thu Feb  9 16:27:41 2017.
