 Gaussian 09, Revision E.01,
 Gaussian 09:  ES64L-G09RevE.01 30-Nov-2015

 ----------------------------------------------------------------------
 #rhf/gen scf(symm,tight,novaracc,noincfock,fulldiag) stable(crhf) geom
 =nocrowd test
 ----------------------------------------------------------------------

 ----------------------------------------------------------------------
 hf stability analysis of h10 triangular lattice, y= 2.4157467869858533
 ----------------------------------------------------------------------
 Symbolic Z-matrix:
 Charge =  0 Multiplicity = 1

                         Standard orientation:
 ---------------------------------------------------------------------
 Center     Atomic      Atomic             Coordinates (Angstroms)
 Number     Number       Type             X           Y           Z
 ---------------------------------------------------------------------
      1          1           0        0.000000    2.415747    0.477989
      2          1           0        0.000000    0.000000    0.716984
      3          1           0        0.000000    0.000000    0.238994
      4          1           0       -0.000000   -2.415747    0.477989
      5          1           0       -0.000000    2.415747   -0.000000
      6          1           0       -0.000000   -2.415747    0.000000
      7          1           0        0.000000   -0.000000   -0.238994
      8          1           0        0.000000    2.415747   -0.477989
      9          1           0       -0.000000   -2.415747   -0.477989
     10          1           0        0.000000   -0.000000   -0.716984
 ---------------------------------------------------------------------

 SCF Done:  E(RHF) =  -3.10848295124     A.U. after    7 cycles
 E2 =    -0.2567940423D+00 EUMP2 =    -0.33652769935680D+01

 The electronic state is 1-AG.
 Alpha  occ. eigenvalues --   -1.08035  -0.92916  -0.92893  -0.53475  -0.11917
 Alpha virt. eigenvalues --   -0.00436   0.59660   1.53706   1.54884   2.56473

 Mulliken charges:
               1
     1  H    0.324730
     2  H    0.317639
     3  H   -0.310061
     4  H    0.324730
     5  H   -0.657039
     6  H   -0.657039
     7  H   -0.310061
     8  H    0.324730
     9  H    0.324730
    10  H    0.317639
 Sum of Mulliken charges =  -0.00000

 Dipole moment (field-independent basis, Debye):
    X=              0.0000    Y=              0.0000    Z=             -0.0000  Tot=              0.0000
 Quadrupole moment (field-independent basis, Debye-Ang):
   XX=            -12.1250   YY=            -13.3807   ZZ=            -14.8805
   XY=              0.0000   XZ=              0.0000   YZ=              0.0000

 Normal termination of Gaussian 09 at Thu Feb  9 16:34:11 2017.
