 Gaussian 09, Revision E.01,
 Gaussian 09:  ES64L-G09RevE.01 30-Nov-2015

 ----------------------------------------------------------------------
 #rhf/gen scf(symm,tight,novaracc,noincfock,fulldiag) stable(crhf) geom
 =nocrowd test
 ----------------------------------------------------------------------

 ----------------------------------------------------------------------
 hf stability analysis of h10 triangular lattice, y= 1.0486611910524275
 ----------------------------------------------------------------------
 Symbolic Z-matrix:
 Charge =  0 Multiplicity = 1

                         Standard orientation:
 ---------------------------------------------------------------------
 Center     Atomic      Atomic             Coordinates (Angstroms)
 Number     Number       Type             X           Y           Z
 ---------------------------------------------------------------------
      1          1           0        0.000000    1.048661    1.101119
      2          1           0        0.000000    0.000000    1.651678
      3          1           0        0.000000    0.000000    0.550559
      4          1           0       -0.000000   -1.048661    1.101119
      5          1           0       -0.000000    1.048661    0.000000
      6          1           0       -0.000000   -1.048661    0.000000
      7          1           0        0.000000   -0.000000   -0.550559
      8          1           0        0.000000    1.048661   -1.101119
      9          1           0       -0.000000   -1.048661   -1.101119
     10          1           0        0.000000   -0.000000   -1.651678
 ---------------------------------------------------------------------

 SCF Done:  E(RHF) =  -4.90099215032     A.U. after    9 cycles
 E2 =    -0.1055798338D+00 EUMP2 =    -0.50065719840704D+01

 The electronic state is 1-AG.
 Alpha  occ. eigenvalues --   -0.97185  -0.71642  -0.63303  -0.37122  -0.34274
 Alpha virt. eigenvalues --    0.04067   0.25088   0.30424   0.38609   0.63600

 Mulliken charges:
               1
     1  H   -0.071655
     2  H   -0.043823
     3  H    0.112210
     4  H   -0.071655
     5  H    0.074922
     6  H    0.074922
     7  H    0.112210
     8  H   -0.071655
     9  H   -0.071655
    10  H   -0.043823
 Sum of Mulliken charges =  -0.00000

 Dipole moment (field-independent basis, Debye):
    X=             -0.0000    Y=              0.0000    Z=              0.0000  Tot=              0.0000
 Quadrupole moment (field-independent basis, Debye-Ang):
   XX=            -12.8060   YY=            -14.7018   ZZ=            -19.6748
   XY=             -0.0000   XZ=              0.0000   YZ=              0.0000

 Normal termination of Gaussian 09 at Thu Feb  9 16:18:46 2017.
