 Gaussian 09, Revision E.01,
 Gaussian 09:  ES64L-G09RevE.01 30-Nov-2015

 ----------------------------------------------------------------------
 #rhf/gen scf(symm,tight,novaracc,noincfock,fulldiag) stable(crhf) geom
 =nocrowd test
 ----------------------------------------------------------------------

 ----------------------------------------------------------------------
 hf stability analysis of h10 triangular lattice, y= 1.1400883917639824
 ----------------------------------------------------------------------
 Symbolic Z-matrix:
 Charge =  0 Multiplicity = 1

                         Standard orientation:
 ---------------------------------------------------------------------
 Center     Atomic      Atomic             Coordinates (Angstroms)
 Number     Number       Type             X           Y           Z
 ---------------------------------------------------------------------
      1          1           0        0.000000    1.140088    1.012817
      2          1           0        0.000000    0.000000    1.519225
      3          1           0        0.000000    0.000000    0.506408
      4          1           0       -0.000000   -1.140088    1.012817
      5          1           0       -0.000000    1.140088   -0.000000
      6          1           0       -0.000000   -1.140088    0.000000
      7          1           0        0.000000   -0.000000   -0.506408
      8          1           0        0.000000    1.140088   -1.012817
      9          1           0       -0.000000   -1.140088   -1.012817
     10          1           0        0.000000   -0.000000   -1.519225
 ---------------------------------------------------------------------

 SCF Done:  E(RHF) =  -4.82203357866     A.U. after   12 cycles
 E2 =    -0.1070123752D+00 EUMP2 =    -0.49290459538868D+01

 The electronic state is 1-AG.
 Alpha  occ. eigenvalues --   -0.94852  -0.68976  -0.65540  -0.34130  -0.31648
 Alpha virt. eigenvalues --   -0.03394   0.19705   0.43996   0.47808   0.70633

 Mulliken charges:
               1
     1  H    0.001228
     2  H    0.101381
     3  H    0.050421
     4  H    0.001228
     5  H   -0.154258
     6  H   -0.154258
     7  H    0.050421
     8  H    0.001228
     9  H    0.001228
    10  H    0.101381
 Sum of Mulliken charges =  -0.00000

 Dipole moment (field-independent basis, Debye):
    X=              0.0000    Y=              0.0000    Z=              0.0000  Tot=              0.0000
 Quadrupole moment (field-independent basis, Debye-Ang):
   XX=            -12.5935   YY=            -18.9861   ZZ=            -12.0605
   XY=             -0.0000   XZ=             -0.0000   YZ=             -0.0000

 Normal termination of Gaussian 09 at Thu Feb  9 16:21:25 2017.
