 Gaussian 09, Revision E.01,
 Gaussian 09:  ES64L-G09RevE.01 30-Nov-2015

 ----------------------------------------------------------------------
 #rhf/gen scf(symm,tight,novaracc,noincfock,fulldiag) stable(crhf) geom
 =nocrowd test
 ----------------------------------------------------------------------

 ----------------------------------------------------------------------
 hf stability analysis of h10 triangular lattice, y= 1.0916279099847972
 ----------------------------------------------------------------------
 Symbolic Z-matrix:
 Charge =  0 Multiplicity = 1

                         Standard orientation:
 ---------------------------------------------------------------------
 Center     Atomic      Atomic             Coordinates (Angstroms)
 Number     Number       Type             X           Y           Z
 ---------------------------------------------------------------------
      1          1           0        0.000000    1.091628    1.057779
      2          1           0        0.000000    0.000000    1.586668
      3          1           0        0.000000    0.000000    0.528889
      4          1           0       -0.000000   -1.091628    1.057779
      5          1           0       -0.000000    1.091628   -0.000000
      6          1           0       -0.000000   -1.091628   -0.000000
      7          1           0        0.000000    0.000000   -0.528889
      8          1           0        0.000000    1.091628   -1.057779
      9          1           0       -0.000000   -1.091628   -1.057779
     10          1           0        0.000000    0.000000   -1.586668
 ---------------------------------------------------------------------

 SCF Done:  E(RHF) =  -4.85003635189     A.U. after   11 cycles
 E2 =    -0.1099415717D+00 EUMP2 =    -0.49599779236361D+01

 The electronic state is 1-AG.
 Alpha  occ. eigenvalues --   -0.97472  -0.70697  -0.65078  -0.34482  -0.34246
 Alpha virt. eigenvalues --   -0.01198   0.25027   0.33693   0.40456   0.65791

 Mulliken charges:
               1
     1  H   -0.037847
     2  H   -0.094282
     3  H    0.126106
     4  H   -0.037847
     5  H    0.043870
     6  H    0.043870
     7  H    0.126106
     8  H   -0.037847
     9  H   -0.037847
    10  H   -0.094282
 Sum of Mulliken charges =  -0.00000

 Dipole moment (field-independent basis, Debye):
    X=             -0.0000    Y=              0.0000    Z=              0.0000  Tot=              0.0000
 Quadrupole moment (field-independent basis, Debye-Ang):
   XX=            -12.7662   YY=            -14.0825   ZZ=            -20.2655
   XY=             -0.0000   XZ=              0.0000   YZ=              0.0000

 Normal termination of Gaussian 09 at Thu Feb  9 16:20:05 2017.
