 Gaussian 09, Revision E.01,
 Gaussian 09:  ES64L-G09RevE.01 30-Nov-2015

 ----------------------------------------------------------------------
 #rhf/gen scf(symm,tight,novaracc,noincfock,fulldiag) stable(crhf) geom
 =nocrowd test
 ----------------------------------------------------------------------

 hf stability analysis of h10 triangular lattice, y= 0.8339195375386633
 2
 ----------------------------------------------------------------------
 Symbolic Z-matrix:
 Charge =  0 Multiplicity = 1

                         Standard orientation:
 ---------------------------------------------------------------------
 Center     Atomic      Atomic             Coordinates (Angstroms)
 Number     Number       Type             X           Y           Z
 ---------------------------------------------------------------------
      1          1           0        0.000000    0.833920    1.384667
      2          1           0        0.000000    0.000000    2.077000
      3          1           0        0.000000    0.000000    0.692333
      4          1           0       -0.000000   -0.833920    1.384667
      5          1           0       -0.000000    0.833920    0.000000
      6          1           0       -0.000000   -0.833920   -0.000000
      7          1           0        0.000000    0.000000   -0.692333
      8          1           0        0.000000    0.833920   -1.384667
      9          1           0       -0.000000   -0.833920   -1.384667
     10          1           0        0.000000    0.000000   -2.077000
 ---------------------------------------------------------------------

 SCF Done:  E(RHF) =  -4.93739349883     A.U. after    8 cycles
 E2 =    -0.9624197419D-01 EUMP2 =    -0.50336354730223D+01

 The electronic state is 1-AG.
 Alpha  occ. eigenvalues --   -0.93597  -0.74889  -0.51784  -0.48659  -0.30644
 Alpha virt. eigenvalues --    0.04594   0.17735   0.37398   0.45145   0.52815

 Mulliken charges:
               1
     1  H   -0.168166
     2  H    0.155187
     3  H    0.112573
     4  H   -0.168166
     5  H    0.068572
     6  H    0.068572
     7  H    0.112573
     8  H   -0.168166
     9  H   -0.168166
    10  H    0.155187
 Sum of Mulliken charges =  -0.00000

 Dipole moment (field-independent basis, Debye):
    X=              0.0000    Y=              0.0000    Z=             -0.0000  Tot=              0.0000
 Quadrupole moment (field-independent basis, Debye-Ang):
   XX=            -12.9553   YY=            -17.6408   ZZ=            -14.1866
   XY=             -0.0000   XZ=             -0.0000   YZ=              0.0000

 Normal termination of Gaussian 09 at Thu Feb  9 16:10:25 2017.
