 Gaussian 09, Revision E.01,
 Gaussian 09:  ES64L-G09RevE.01 30-Nov-2015

 ----------------------------------------------------------------------
 #rhf/gen scf(symm,tight,novaracc,noincfock,fulldiag) stable(crhf) geom
 =nocrowd test
 ----------------------------------------------------------------------

 hf stability analysis of h10 triangular lattice, y= 0.9234407582356761
 7
 ----------------------------------------------------------------------
 Symbolic Z-matrix:
 Charge =  0 Multiplicity = 1

                         Standard orientation:
 ---------------------------------------------------------------------
 Center     Atomic      Atomic             Coordinates (Angstroms)
 Number     Number       Type             X           Y           Z
 ---------------------------------------------------------------------
      1          1           0       -0.000000    0.923441    1.250433
      2          1           0       -0.000000   -0.000000    1.875649
      3          1           0       -0.000000   -0.000000    0.625216
      4          1           0       -0.000000   -0.923441    1.250433
      5          1           0       -0.000000    0.923441    0.000000
      6          1           0       -0.000000   -0.923441    0.000000
      7          1           0        0.000000    0.000000   -0.625216
      8          1           0        0.000000    0.923441   -1.250433
      9          1           0       -0.000000   -0.923441   -1.250433
     10          1           0        0.000000   -0.000000   -1.875649
 ---------------------------------------------------------------------

 SCF Done:  E(RHF) =  -4.96966688114     A.U. after    8 cycles
 E2 =    -0.9782014273D-01 EUMP2 =    -0.50674870238766D+01

 The electronic state is 1-AG.
 Alpha  occ. eigenvalues --   -0.95660  -0.74059  -0.57223  -0.44157  -0.32922
 Alpha virt. eigenvalues --    0.13773   0.22032   0.22250   0.46060   0.54664

 Mulliken charges:
               1
     1  H   -0.127054
     2  H    0.071645
     3  H    0.098565
     4  H   -0.127054
     5  H    0.083897
     6  H    0.083897
     7  H    0.098565
     8  H   -0.127054
     9  H   -0.127054
    10  H    0.071645
 Sum of Mulliken charges =  -0.00000

 Dipole moment (field-independent basis, Debye):
    X=              0.0000    Y=             -0.0000    Z=              0.0000  Tot=              0.0000
 Quadrupole moment (field-independent basis, Debye-Ang):
   XX=            -12.8958   YY=            -16.4588   ZZ=            -16.9821
   XY=             -0.0000   XZ=              0.0000   YZ=             -0.0000

 Normal termination of Gaussian 09 at Thu Feb  9 16:14:20 2017.
