 Gaussian 09, Revision E.01,
 Gaussian 09:  ES64L-G09RevE.01 30-Nov-2015

 ----------------------------------------------------------------------
 #rhf/gen scf(symm,tight,novaracc,noincfock,fulldiag) stable(crhf) geom
 =nocrowd test
 ----------------------------------------------------------------------

 ----------------------------------------------------------------------
 hf stability analysis of h10 triangular lattice, y= 1.7480104705916841
 ----------------------------------------------------------------------
 Symbolic Z-matrix:
 Charge =  0 Multiplicity = 1

                         Standard orientation:
 ---------------------------------------------------------------------
 Center     Atomic      Atomic             Coordinates (Angstroms)
 Number     Number       Type             X           Y           Z
 ---------------------------------------------------------------------
      1          1           0       -0.000000    1.748010    0.660580
      2          1           0       -0.000000    0.000000    0.990870
      3          1           0       -0.000000    0.000000    0.330290
      4          1           0       -0.000000   -1.748010    0.660580
      5          1           0       -0.000000    1.748010    0.000000
      6          1           0       -0.000000   -1.748010   -0.000000
      7          1           0        0.000000    0.000000   -0.330290
      8          1           0        0.000000    1.748010   -0.660580
      9          1           0       -0.000000   -1.748010   -0.660580
     10          1           0        0.000000    0.000000   -0.990870
 ---------------------------------------------------------------------

 SCF Done:  E(RHF) =  -4.59060319575     A.U. after    7 cycles
 E2 =    -0.1184179679D+00 EUMP2 =    -0.47090211636256D+01

 The electronic state is 1-AG.
 Alpha  occ. eigenvalues --   -0.97898  -0.80664  -0.75519  -0.57932  -0.21983
 Alpha virt. eigenvalues --   -0.00481   0.28511   0.98305   1.04539   1.39988

 Mulliken charges:
               1
     1  H    0.081681
     2  H    0.218547
     3  H   -0.125921
     4  H    0.081681
     5  H   -0.255988
     6  H   -0.255988
     7  H   -0.125921
     8  H    0.081681
     9  H    0.081681
    10  H    0.218547
 Sum of Mulliken charges =  -0.00000

 Dipole moment (field-independent basis, Debye):
    X=              0.0000    Y=             -0.0000    Z=             -0.0000  Tot=              0.0000
 Quadrupole moment (field-independent basis, Debye-Ang):
   XX=            -12.5050   YY=            -17.6216   ZZ=            -13.6033
   XY=             -0.0000   XZ=              0.0000   YZ=              0.0000

 Normal termination of Gaussian 09 at Thu Feb  9 16:30:41 2017.
