 Gaussian 09, Revision E.01,
 Gaussian 09:  ES64L-G09RevE.01 30-Nov-2015

 ----------------------------------------------------------------------
 #rhf/gen scf(symm,tight,novaracc,noincfock,fulldiag) stable(crhf) geom
 =nocrowd test
 ----------------------------------------------------------------------

 ----------------------------------------------------------------------
 hf stability analysis of h10 triangular lattice, y= 1.4730384057919645
 ----------------------------------------------------------------------
 Symbolic Z-matrix:
 Charge =  0 Multiplicity = 1

                         Standard orientation:
 ---------------------------------------------------------------------
 Center     Atomic      Atomic             Coordinates (Angstroms)
 Number     Number       Type             X           Y           Z
 ---------------------------------------------------------------------
      1          1           0       -0.000000    1.473038    0.783890
      2          1           0       -0.000000   -0.000000    1.175836
      3          1           0       -0.000000   -0.000000    0.391945
      4          1           0       -0.000000   -1.473038    0.783890
      5          1           0       -0.000000    1.473038    0.000000
      6          1           0       -0.000000   -1.473038   -0.000000
      7          1           0        0.000000    0.000000   -0.391945
      8          1           0        0.000000    1.473038   -0.783890
      9          1           0       -0.000000   -1.473038   -0.783890
     10          1           0        0.000000    0.000000   -1.175836
 ---------------------------------------------------------------------

 SCF Done:  E(RHF) =  -4.91288537006     A.U. after    8 cycles
 E2 =    -0.9047268646D-01 EUMP2 =    -0.50033580565192D+01

 The electronic state is 1-AG.
 Alpha  occ. eigenvalues --   -0.96028  -0.74492  -0.61985  -0.61069  -0.26910
 Alpha virt. eigenvalues --    0.05006   0.13351   0.74946   0.87799   0.96297

 Mulliken charges:
               1
     1  H   -0.022758
     2  H    0.257629
     3  H   -0.078015
     4  H   -0.022758
     5  H   -0.134097
     6  H   -0.134097
     7  H   -0.078015
     8  H   -0.022758
     9  H   -0.022758
    10  H    0.257629
 Sum of Mulliken charges =   0.00000

 Dipole moment (field-independent basis, Debye):
    X=              0.0000    Y=              0.0000    Z=             -0.0000  Tot=              0.0000
 Quadrupole moment (field-independent basis, Debye-Ang):
   XX=            -12.6045   YY=            -19.9823   ZZ=            -11.9986
   XY=             -0.0000   XZ=             -0.0000   YZ=              0.0000

 Normal termination of Gaussian 09 at Thu Feb  9 16:27:45 2017.
