 Gaussian 09, Revision E.01,
 Gaussian 09:  ES64L-G09RevE.01 30-Nov-2015

 ----------------------------------------------------------------------
 #rhf/gen scf(symm,tight,novaracc,noincfock,fulldiag) stable(crhf) geom
 =nocrowd test
 ----------------------------------------------------------------------

 hf stability analysis of h10 triangular lattice, y= 0.7725416295777047
 8
 ----------------------------------------------------------------------
 Symbolic Z-matrix:
 Charge =  0 Multiplicity = 1

                         Standard orientation:
 ---------------------------------------------------------------------
 Center     Atomic      Atomic             Coordinates (Angstroms)
 Number     Number       Type             X           Y           Z
 ---------------------------------------------------------------------
      1          1           0        0.000000    0.772542    1.494677
      2          1           0       -0.000000   -0.000000    2.242016
      3          1           0       -0.000000   -0.000000    0.747339
      4          1           0       -0.000000   -0.772542    1.494677
      5          1           0       -0.000000    0.772542    0.000000
      6          1           0       -0.000000   -0.772542   -0.000000
      7          1           0        0.000000    0.000000   -0.747339
      8          1           0        0.000000    0.772542   -1.494677
      9          1           0       -0.000000   -0.772542   -1.494677
     10          1           0        0.000000    0.000000   -2.242016
 ---------------------------------------------------------------------

 SCF Done:  E(RHF) =  -4.87444223115     A.U. after    8 cycles
 E2 =    -0.9708482181D-01 EUMP2 =    -0.49715270529635D+01

 The electronic state is 1-AG.
 Alpha  occ. eigenvalues --   -0.91544  -0.74790  -0.51369  -0.47345  -0.28237
 Alpha virt. eigenvalues --   -0.00902   0.15512   0.36423   0.49546   0.55107

 Mulliken charges:
               1
     1  H   -0.201449
     2  H    0.215232
     3  H    0.142753
     4  H   -0.201449
     5  H    0.044913
     6  H    0.044913
     7  H    0.142753
     8  H   -0.201449
     9  H   -0.201449
    10  H    0.215232
 Sum of Mulliken charges =  -0.00000

 Dipole moment (field-independent basis, Debye):
    X=              0.0000    Y=              0.0000    Z=              0.0000  Tot=              0.0000
 Quadrupole moment (field-independent basis, Debye-Ang):
   XX=            -12.9949   YY=            -18.4130   ZZ=            -11.6715
   XY=             -0.0000   XZ=             -0.0000   YZ=             -0.0000

 Normal termination of Gaussian 09 at Thu Feb  9 16:07:20 2017.
