 Gaussian 09, Revision E.01,
 Gaussian 09:  ES64L-G09RevE.01 30-Nov-2015

 ----------------------------------------------------------------------
 #rhf/gen scf(symm,tight,novaracc,noincfock,fulldiag) stable(crhf) geom
 =nocrowd test
 ----------------------------------------------------------------------

 ----------------------------------------------------------------------
 hf stability analysis of h10 triangular lattice, y= 2.1453430186402151
 ----------------------------------------------------------------------
 Symbolic Z-matrix:
 Charge =  0 Multiplicity = 1

                         Standard orientation:
 ---------------------------------------------------------------------
 Center     Atomic      Atomic             Coordinates (Angstroms)
 Number     Number       Type             X           Y           Z
 ---------------------------------------------------------------------
      1          1           0        0.000000    2.145343    0.538236
      2          1           0        0.000000    0.000000    0.807354
      3          1           0        0.000000    0.000000    0.269118
      4          1           0       -0.000000   -2.145343    0.538236
      5          1           0       -0.000000    2.145343   -0.000000
      6          1           0       -0.000000   -2.145343    0.000000
      7          1           0        0.000000   -0.000000   -0.269118
      8          1           0        0.000000    2.145343   -0.538236
      9          1           0       -0.000000   -2.145343   -0.538236
     10          1           0        0.000000   -0.000000   -0.807354
 ---------------------------------------------------------------------

 SCF Done:  E(RHF) =  -3.78994874538     A.U. after    7 cycles
 E2 =    -0.1971773967D+00 EUMP2 =    -0.39871261420531D+01

 The electronic state is 1-AG.
 Alpha  occ. eigenvalues --   -1.02861  -0.88337  -0.87806  -0.54583  -0.15675
 Alpha virt. eigenvalues --   -0.01765   0.48097   1.31282   1.33496   2.07696

 Mulliken charges:
               1
     1  H    0.228102
     2  H    0.248031
     3  H   -0.225096
     4  H    0.228102
     5  H   -0.479139
     6  H   -0.479139
     7  H   -0.225096
     8  H    0.228102
     9  H    0.228102
    10  H    0.248031
 Sum of Mulliken charges =  -0.00000

 Dipole moment (field-independent basis, Debye):
    X=              0.0000    Y=              0.0000    Z=             -0.0000  Tot=              0.0000
 Quadrupole moment (field-independent basis, Debye-Ang):
   XX=            -12.2799   YY=            -14.6040   ZZ=            -14.5781
   XY=              0.0000   XZ=              0.0000   YZ=              0.0000

 Normal termination of Gaussian 09 at Thu Feb  9 16:33:09 2017.
