 Gaussian 09, Revision E.01,
 Gaussian 09:  ES64L-G09RevE.01 30-Nov-2015

 ----------------------------------------------------------------------
 #rhf/gen scf(symm,tight,novaracc,noincfock,fulldiag) stable(crhf) geom
 =nocrowd test
 ----------------------------------------------------------------------

 ----------------------------------------------------------------------
 hf stability analysis of h10 triangular lattice, y= 1.0808235704374589
 ----------------------------------------------------------------------
 Symbolic Z-matrix:
 Charge =  0 Multiplicity = 1

                         Standard orientation:
 ---------------------------------------------------------------------
 Center     Atomic      Atomic             Coordinates (Angstroms)
 Number     Number       Type             X           Y           Z
 ---------------------------------------------------------------------
      1          1           0       -0.000000    1.080824    1.068352
      2          1           0       -0.000000    0.000000    1.602529
      3          1           0       -0.000000    0.000000    0.534176
      4          1           0       -0.000000   -1.080824    1.068352
      5          1           0       -0.000000    1.080824   -0.000000
      6          1           0       -0.000000   -1.080824   -0.000000
      7          1           0        0.000000    0.000000   -0.534176
      8          1           0        0.000000    1.080824   -1.068352
      9          1           0       -0.000000   -1.080824   -1.068352
     10          1           0        0.000000    0.000000   -1.602529
 ---------------------------------------------------------------------

 SCF Done:  E(RHF) =  -4.86390801739     A.U. after   11 cycles
 E2 =    -0.1087513867D+00 EUMP2 =    -0.49726594040889D+01

 The electronic state is 1-AG.
 Alpha  occ. eigenvalues --   -0.97408  -0.70923  -0.64646  -0.35173  -0.34300
 Alpha virt. eigenvalues --    0.00080   0.25337   0.32824   0.39705   0.65252

 Mulliken charges:
               1
     1  H   -0.049617
     2  H   -0.079482
     3  H    0.121631
     4  H   -0.049617
     5  H    0.057083
     6  H    0.057083
     7  H    0.121631
     8  H   -0.049617
     9  H   -0.049617
    10  H   -0.079482
 Sum of Mulliken charges =  -0.00000

 Dipole moment (field-independent basis, Debye):
    X=             -0.0000    Y=              0.0000    Z=             -0.0000  Tot=              0.0000
 Quadrupole moment (field-independent basis, Debye-Ang):
   XX=            -12.7780   YY=            -14.2305   ZZ=            -20.1601
   XY=             -0.0000   XZ=              0.0000   YZ=             -0.0000

 Normal termination of Gaussian 09 at Thu Feb  9 16:19:45 2017.
