 Gaussian 09, Revision E.01,
 Gaussian 09:  ES64L-G09RevE.01 30-Nov-2015

 ----------------------------------------------------------------------
 #rhf/gen scf(symm,tight,novaracc,noincfock,fulldiag) stable(crhf) geom
 =nocrowd test
 ----------------------------------------------------------------------

 hf stability analysis of h10 triangular lattice, y= 0.9715957050503719
 6
 ----------------------------------------------------------------------
 Symbolic Z-matrix:
 Charge =  0 Multiplicity = 1

                         Standard orientation:
 ---------------------------------------------------------------------
 Center     Atomic      Atomic             Coordinates (Angstroms)
 Number     Number       Type             X           Y           Z
 ---------------------------------------------------------------------
      1          1           0        0.000000    0.971596    1.188458
      2          1           0        0.000000    0.000000    1.782687
      3          1           0        0.000000    0.000000    0.594229
      4          1           0       -0.000000   -0.971596    1.188458
      5          1           0       -0.000000    0.971596    0.000000
      6          1           0       -0.000000   -0.971596    0.000000
      7          1           0        0.000000   -0.000000   -0.594229
      8          1           0        0.000000    0.971596   -1.188458
      9          1           0       -0.000000   -0.971596   -1.188458
     10          1           0        0.000000   -0.000000   -1.782687
 ---------------------------------------------------------------------

 SCF Done:  E(RHF) =  -4.95842312076     A.U. after    8 cycles
 E2 =    -0.1000154361D+00 EUMP2 =    -0.50584385568177D+01

 The electronic state is 1-AG.
 Alpha  occ. eigenvalues --   -0.96403  -0.73257  -0.59742  -0.41537  -0.33663
 Alpha virt. eigenvalues --    0.14631   0.18891   0.25176   0.42165   0.58682

 Mulliken charges:
               1
     1  H   -0.106788
     2  H    0.028019
     3  H    0.100305
     4  H   -0.106788
     5  H    0.085253
     6  H    0.085253
     7  H    0.100305
     8  H   -0.106788
     9  H   -0.106788
    10  H    0.028019
 Sum of Mulliken charges =   0.00000

 Dipole moment (field-independent basis, Debye):
    X=              0.0000    Y=             -0.0000    Z=             -0.0000  Tot=              0.0000
 Quadrupole moment (field-independent basis, Debye-Ang):
   XX=            -12.8628   YY=            -15.7994   ZZ=            -18.1590
   XY=             -0.0000   XZ=              0.0000   YZ=             -0.0000

 Normal termination of Gaussian 09 at Thu Feb  9 16:16:08 2017.
