 Gaussian 09, Revision E.01,
 Gaussian 09:  ES64L-G09RevE.01 30-Nov-2015

 ----------------------------------------------------------------------
 #rhf/gen scf(symm,tight,novaracc,noincfock,fulldiag) stable(crhf) geom
 =nocrowd test
 ----------------------------------------------------------------------

 hf stability analysis of h10 triangular lattice, y= 0.9366229528369836
 0
 ----------------------------------------------------------------------
 Symbolic Z-matrix:
 Charge =  0 Multiplicity = 1

                         Standard orientation:
 ---------------------------------------------------------------------
 Center     Atomic      Atomic             Coordinates (Angstroms)
 Number     Number       Type             X           Y           Z
 ---------------------------------------------------------------------
      1          1           0        0.000000    0.936623    1.232834
      2          1           0        0.000000    0.000000    1.849251
      3          1           0        0.000000    0.000000    0.616417
      4          1           0       -0.000000   -0.936623    1.232834
      5          1           0       -0.000000    0.936623    0.000000
      6          1           0       -0.000000   -0.936623   -0.000000
      7          1           0        0.000000   -0.000000   -0.616417
      8          1           0        0.000000    0.936623   -1.232834
      9          1           0       -0.000000   -0.936623   -1.232834
     10          1           0        0.000000   -0.000000   -1.849251
 ---------------------------------------------------------------------

 SCF Done:  E(RHF) =  -4.96854393311     A.U. after    8 cycles
 E2 =    -0.9832688824D-01 EUMP2 =    -0.50668708213579D+01

 The electronic state is 1-AG.
 Alpha  occ. eigenvalues --   -0.95886  -0.73860  -0.57938  -0.43451  -0.33154
 Alpha virt. eigenvalues --    0.15185   0.19940   0.23020   0.44963   0.55845

 Mulliken charges:
               1
     1  H   -0.121455
     2  H    0.059656
     3  H    0.098546
     4  H   -0.121455
     5  H    0.084709
     6  H    0.084709
     7  H    0.098546
     8  H   -0.121455
     9  H   -0.121455
    10  H    0.059656
 Sum of Mulliken charges =  -0.00000

 Dipole moment (field-independent basis, Debye):
    X=              0.0000    Y=              0.0000    Z=              0.0000  Tot=              0.0000
 Quadrupole moment (field-independent basis, Debye-Ang):
   XX=            -12.8869   YY=            -16.2800   ZZ=            -17.3240
   XY=             -0.0000   XZ=              0.0000   YZ=              0.0000

 Normal termination of Gaussian 09 at Thu Feb  9 16:14:52 2017.
