 Gaussian 09, Revision E.01,
 Gaussian 09:  ES64L-G09RevE.01 30-Nov-2015

 ----------------------------------------------------------------------
 #rhf/gen scf(symm,tight,novaracc,noincfock,fulldiag) stable(crhf) geom
 =nocrowd test
 ----------------------------------------------------------------------

 ----------------------------------------------------------------------
 hf stability analysis of h10 triangular lattice, y= 1.4428645490710084
 ----------------------------------------------------------------------
 Symbolic Z-matrix:
 Charge =  0 Multiplicity = 1

                         Standard orientation:
 ---------------------------------------------------------------------
 Center     Atomic      Atomic             Coordinates (Angstroms)
 Number     Number       Type             X           Y           Z
 ---------------------------------------------------------------------
      1          1           0       -0.000000    1.442865    0.800283
      2          1           0       -0.000000    0.000000    1.200425
      3          1           0       -0.000000    0.000000    0.400142
      4          1           0       -0.000000   -1.442865    0.800283
      5          1           0       -0.000000    1.442865    0.000000
      6          1           0       -0.000000   -1.442865   -0.000000
      7          1           0        0.000000    0.000000   -0.400142
      8          1           0        0.000000    1.442865   -0.800283
      9          1           0       -0.000000   -1.442865   -0.800283
     10          1           0        0.000000    0.000000   -1.200425
 ---------------------------------------------------------------------

 SCF Done:  E(RHF) =  -4.93025163120     A.U. after    8 cycles
 E2 =    -0.8925346379D-01 EUMP2 =    -0.50195050949856D+01

 The electronic state is 1-AG.
 Alpha  occ. eigenvalues --   -0.95826  -0.73742  -0.62508  -0.59076  -0.27440
 Alpha virt. eigenvalues --    0.05948   0.11652   0.72343   0.86189   0.91722

 Mulliken charges:
               1
     1  H   -0.033535
     2  H    0.263801
     3  H   -0.073824
     4  H   -0.033535
     5  H   -0.122907
     6  H   -0.122907
     7  H   -0.073824
     8  H   -0.033535
     9  H   -0.033535
    10  H    0.263801
 Sum of Mulliken charges =   0.00000

 Dipole moment (field-independent basis, Debye):
    X=              0.0000    Y=             -0.0000    Z=             -0.0000  Tot=              0.0000
 Quadrupole moment (field-independent basis, Debye-Ang):
   XX=            -12.6096   YY=            -20.2112   ZZ=            -11.7475
   XY=             -0.0000   XZ=             -0.0000   YZ=              0.0000

 Normal termination of Gaussian 09 at Thu Feb  9 16:27:20 2017.
