 Gaussian 09, Revision E.01,
 Gaussian 09:  ES64L-G09RevE.01 30-Nov-2015

 ----------------------------------------------------------------------
 #rhf/gen scf(symm,tight,novaracc,noincfock,fulldiag) stable(crhf) geom
 =nocrowd test
 ----------------------------------------------------------------------

 ----------------------------------------------------------------------
 hf stability analysis of h10 triangular lattice, y= 1.8932739204348596
 ----------------------------------------------------------------------
 Symbolic Z-matrix:
 Charge =  0 Multiplicity = 1

                         Standard orientation:
 ---------------------------------------------------------------------
 Center     Atomic      Atomic             Coordinates (Angstroms)
 Number     Number       Type             X           Y           Z
 ---------------------------------------------------------------------
      1          1           0        0.000000    1.893274    0.609896
      2          1           0        0.000000    0.000000    0.914844
      3          1           0        0.000000    0.000000    0.304948
      4          1           0       -0.000000   -1.893274    0.609896
      5          1           0       -0.000000    1.893274   -0.000000
      6          1           0       -0.000000   -1.893274    0.000000
      7          1           0        0.000000   -0.000000   -0.304948
      8          1           0        0.000000    1.893274   -0.609896
      9          1           0       -0.000000   -1.893274   -0.609896
     10          1           0        0.000000   -0.000000   -0.914844
 ---------------------------------------------------------------------

 SCF Done:  E(RHF) =  -4.33274173194     A.U. after    7 cycles
 E2 =    -0.1437837960D+00 EUMP2 =    -0.44765255279012D+01

 The electronic state is 1-AG.
 Alpha  occ. eigenvalues --   -0.99272  -0.83608  -0.80950  -0.56378  -0.19537
 Alpha virt. eigenvalues --   -0.01617   0.36067   1.10409   1.14632   1.64231

 Mulliken charges:
               1
     1  H    0.136627
     2  H    0.216996
     3  H   -0.158421
     4  H    0.136627
     5  H   -0.331829
     6  H   -0.331829
     7  H   -0.158421
     8  H    0.136627
     9  H    0.136627
    10  H    0.216996
 Sum of Mulliken charges =   0.00000

 Dipole moment (field-independent basis, Debye):
    X=              0.0000    Y=             -0.0000    Z=              0.0000  Tot=              0.0000
 Quadrupole moment (field-independent basis, Debye-Ang):
   XX=            -12.4273   YY=            -16.3730   ZZ=            -14.0805
   XY=             -0.0000   XZ=              0.0000   YZ=              0.0000

 Normal termination of Gaussian 09 at Thu Feb  9 16:31:45 2017.
