 Gaussian 09, Revision E.01,
 Gaussian 09:  ES64L-G09RevE.01 30-Nov-2015

 ----------------------------------------------------------------------
 #rhf/gen scf(symm,tight,novaracc,noincfock,fulldiag) stable(crhf) geom
 =nocrowd test
 ----------------------------------------------------------------------

 hf stability analysis of h10 triangular lattice, y= 0.7664958762004193
 7
 ----------------------------------------------------------------------
 Symbolic Z-matrix:
 Charge =  0 Multiplicity = 1

                         Standard orientation:
 ---------------------------------------------------------------------
 Center     Atomic      Atomic             Coordinates (Angstroms)
 Number     Number       Type             X           Y           Z
 ---------------------------------------------------------------------
      1          1           0        0.000000    0.766496    1.506467
      2          1           0        0.000000    0.000000    2.259700
      3          1           0        0.000000    0.000000    0.753233
      4          1           0       -0.000000   -0.766496    1.506467
      5          1           0       -0.000000    0.766496    0.000000
      6          1           0       -0.000000   -0.766496    0.000000
      7          1           0        0.000000    0.000000   -0.753233
      8          1           0        0.000000    0.766496   -1.506467
      9          1           0       -0.000000   -0.766496   -1.506467
     10          1           0        0.000000    0.000000   -2.259700
 ---------------------------------------------------------------------

 SCF Done:  E(RHF) =  -4.86641382063     A.U. after    8 cycles
 E2 =    -0.9725828625D-01 EUMP2 =    -0.49636721068862D+01

 The electronic state is 1-AG.
 Alpha  occ. eigenvalues --   -0.91309  -0.74745  -0.51615  -0.46870  -0.27955
 Alpha virt. eigenvalues --   -0.01397   0.15339   0.35597   0.50649   0.55157

 Mulliken charges:
               1
     1  H   -0.205018
     2  H    0.221269
     3  H    0.146938
     4  H   -0.205018
     5  H    0.041829
     6  H    0.041829
     7  H    0.146938
     8  H   -0.205018
     9  H   -0.205018
    10  H    0.221269
 Sum of Mulliken charges =  -0.00000

 Dipole moment (field-independent basis, Debye):
    X=              0.0000    Y=             -0.0000    Z=             -0.0000  Tot=              0.0000
 Quadrupole moment (field-independent basis, Debye-Ang):
   XX=            -12.9987   YY=            -18.4866   ZZ=            -11.3911
   XY=             -0.0000   XZ=             -0.0000   YZ=              0.0000

 Normal termination of Gaussian 09 at Thu Feb  9 16:07:01 2017.
