 Gaussian 09, Revision E.01,
 Gaussian 09:  ES64L-G09RevE.01 30-Nov-2015

 ----------------------------------------------------------------------
 #rhf/gen scf(symm,tight,novaracc,noincfock,fulldiag) stable(crhf) geom
 =nocrowd test
 ----------------------------------------------------------------------

 ----------------------------------------------------------------------
 hf stability analysis of h10 triangular lattice, y= 1.2804199040119650
 ----------------------------------------------------------------------
 Symbolic Z-matrix:
 Charge =  0 Multiplicity = 1

                         Standard orientation:
 ---------------------------------------------------------------------
 Center     Atomic      Atomic             Coordinates (Angstroms)
 Number     Number       Type             X           Y           Z
 ---------------------------------------------------------------------
      1          1           0       -0.000000    1.280420    0.901814
      2          1           0       -0.000000    0.000000    1.352721
      3          1           0       -0.000000    0.000000    0.450907
      4          1           0       -0.000000   -1.280420    0.901814
      5          1           0       -0.000000    1.280420   -0.000000
      6          1           0       -0.000000   -1.280420    0.000000
      7          1           0        0.000000   -0.000000   -0.450907
      8          1           0        0.000000    1.280420   -0.901814
      9          1           0       -0.000000   -1.280420   -0.901814
     10          1           0        0.000000   -0.000000   -1.352721
 ---------------------------------------------------------------------

 SCF Done:  E(RHF) =  -4.93858472845     A.U. after    8 cycles
 E2 =    -0.8984942586D-01 EUMP2 =    -0.50284341543067D+01

 The electronic state is 1-AG.
 Alpha  occ. eigenvalues --   -0.94624  -0.69316  -0.65534  -0.46686  -0.29993
 Alpha virt. eigenvalues --    0.02578   0.12350   0.58262   0.67964   0.78202

 Mulliken charges:
               1
     1  H   -0.081285
     2  H    0.291383
     3  H   -0.050069
     4  H   -0.081285
     5  H   -0.078744
     6  H   -0.078744
     7  H   -0.050069
     8  H   -0.081285
     9  H   -0.081285
    10  H    0.291383
 Sum of Mulliken charges =  -0.00000

 Dipole moment (field-independent basis, Debye):
    X=              0.0000    Y=             -0.0000    Z=             -0.0000  Tot=              0.0000
 Quadrupole moment (field-independent basis, Debye-Ang):
   XX=            -12.6114   YY=            -21.2091   ZZ=            -10.1475
   XY=             -0.0000   XZ=             -0.0000   YZ=              0.0000

 Normal termination of Gaussian 09 at Thu Feb  9 16:24:37 2017.
