 Gaussian 09, Revision E.01,
 Gaussian 09:  ES64L-G09RevE.01 30-Nov-2015

 ----------------------------------------------------------------------
 #rhf/gen scf(symm,tight,novaracc,noincfock,fulldiag) stable(crhf) geom
 =nocrowd test
 ----------------------------------------------------------------------

 hf stability analysis of h10 triangular lattice, y= 0.8604100239471103
 0
 ----------------------------------------------------------------------
 Symbolic Z-matrix:
 Charge =  0 Multiplicity = 1

                         Standard orientation:
 ---------------------------------------------------------------------
 Center     Atomic      Atomic             Coordinates (Angstroms)
 Number     Number       Type             X           Y           Z
 ---------------------------------------------------------------------
      1          1           0        0.000000    0.860410    1.342035
      2          1           0       -0.000000    0.000000    2.013053
      3          1           0       -0.000000    0.000000    0.671018
      4          1           0       -0.000000   -0.860410    1.342035
      5          1           0       -0.000000    0.860410    0.000000
      6          1           0       -0.000000   -0.860410   -0.000000
      7          1           0        0.000000   -0.000000   -0.671018
      8          1           0        0.000000    0.860410   -1.342035
      9          1           0       -0.000000   -0.860410   -1.342035
     10          1           0        0.000000   -0.000000   -2.013053
 ---------------------------------------------------------------------

 SCF Done:  E(RHF) =  -4.95425021552     A.U. after    8 cycles
 E2 =    -0.9636951957D-01 EUMP2 =    -0.50506197350970D+01

 The electronic state is 1-AG.
 Alpha  occ. eigenvalues --   -0.94312  -0.74750  -0.53508  -0.47385  -0.31455
 Alpha virt. eigenvalues --    0.07197   0.18929   0.32711   0.48167   0.51073

 Mulliken charges:
               1
     1  H   -0.155259
     2  H    0.130002
     3  H    0.105409
     4  H   -0.155259
     5  H    0.075107
     6  H    0.075107
     7  H    0.105409
     8  H   -0.155259
     9  H   -0.155259
    10  H    0.130002
 Sum of Mulliken charges =   0.00000

 Dipole moment (field-independent basis, Debye):
    X=              0.0000    Y=             -0.0000    Z=              0.0000  Tot=              0.0000
 Quadrupole moment (field-independent basis, Debye-Ang):
   XX=            -12.9379   YY=            -17.2970   ZZ=            -15.1089
   XY=             -0.0000   XZ=             -0.0000   YZ=             -0.0000

 Normal termination of Gaussian 09 at Thu Feb  9 16:11:37 2017.
