 Gaussian 09, Revision E.01,
 Gaussian 09:  ES64L-G09RevE.01 30-Nov-2015

 ----------------------------------------------------------------------
 #rhf/gen scf(symm,tight,novaracc,noincfock,fulldiag) stable(crhf) geom
 =nocrowd test
 ----------------------------------------------------------------------

 hf stability analysis of h10 triangular lattice, y= 0.8496712252064737
 6
 ----------------------------------------------------------------------
 Symbolic Z-matrix:
 Charge =  0 Multiplicity = 1

                         Standard orientation:
 ---------------------------------------------------------------------
 Center     Atomic      Atomic             Coordinates (Angstroms)
 Number     Number       Type             X           Y           Z
 ---------------------------------------------------------------------
      1          1           0        0.000000    0.849671    1.358997
      2          1           0        0.000000    0.000000    2.038495
      3          1           0        0.000000    0.000000    0.679498
      4          1           0       -0.000000   -0.849671    1.358997
      5          1           0       -0.000000    0.849671   -0.000000
      6          1           0       -0.000000   -0.849671    0.000000
      7          1           0        0.000000   -0.000000   -0.679498
      8          1           0        0.000000    0.849671   -1.358997
      9          1           0       -0.000000   -0.849671   -1.358997
     10          1           0        0.000000   -0.000000   -2.038495
 ---------------------------------------------------------------------

 SCF Done:  E(RHF) =  -4.94816136404     A.U. after    7 cycles
 E2 =    -0.9628308681D-01 EUMP2 =    -0.50444444508499D+01

 The electronic state is 1-AG.
 Alpha  occ. eigenvalues --   -0.94034  -0.74818  -0.52822  -0.47908  -0.31142
 Alpha virt. eigenvalues --    0.06128   0.18429   0.34618   0.46943   0.51819

 Mulliken charges:
               1
     1  H   -0.160400
     2  H    0.140160
     3  H    0.107952
     4  H   -0.160400
     5  H    0.072688
     6  H    0.072688
     7  H    0.107952
     8  H   -0.160400
     9  H   -0.160400
    10  H    0.140160
 Sum of Mulliken charges =  -0.00000

 Dipole moment (field-independent basis, Debye):
    X=              0.0000    Y=              0.0000    Z=              0.0000  Tot=              0.0000
 Quadrupole moment (field-independent basis, Debye-Ang):
   XX=            -12.9449   YY=            -17.4370   ZZ=            -14.7456
   XY=             -0.0000   XZ=             -0.0000   YZ=             -0.0000

 Normal termination of Gaussian 09 at Thu Feb  9 16:11:09 2017.
