 Gaussian 09, Revision E.01,
 Gaussian 09:  ES64L-G09RevE.01 30-Nov-2015

 ----------------------------------------------------------------------
 #rhf/gen scf(symm,tight,novaracc,noincfock,fulldiag) stable(crhf) geom
 =nocrowd test
 ----------------------------------------------------------------------

 ----------------------------------------------------------------------
 hf stability analysis of h10 triangular lattice, y= 1.2894163551668398
 ----------------------------------------------------------------------
 Symbolic Z-matrix:
 Charge =  0 Multiplicity = 1

                         Standard orientation:
 ---------------------------------------------------------------------
 Center     Atomic      Atomic             Coordinates (Angstroms)
 Number     Number       Type             X           Y           Z
 ---------------------------------------------------------------------
      1          1           0        0.000000    1.289416    0.895522
      2          1           0        0.000000   -0.000000    1.343283
      3          1           0        0.000000   -0.000000    0.447761
      4          1           0       -0.000000   -1.289416    0.895522
      5          1           0       -0.000000    1.289416    0.000000
      6          1           0       -0.000000   -1.289416   -0.000000
      7          1           0        0.000000    0.000000   -0.447761
      8          1           0        0.000000    1.289416   -0.895522
      9          1           0       -0.000000   -1.289416   -0.895522
     10          1           0        0.000000    0.000000   -1.343283
 ---------------------------------------------------------------------

 SCF Done:  E(RHF) =  -4.94235801431     A.U. after    8 cycles
 E2 =    -0.8945010145D-01 EUMP2 =    -0.50318081157525D+01

 The electronic state is 1-AG.
 Alpha  occ. eigenvalues --   -0.94693  -0.69579  -0.65356  -0.47448  -0.29872
 Alpha virt. eigenvalues --    0.03069   0.11939   0.59045   0.69241   0.78624

 Mulliken charges:
               1
     1  H   -0.079548
     2  H    0.290803
     3  H   -0.051796
     4  H   -0.079548
     5  H   -0.079910
     6  H   -0.079910
     7  H   -0.051796
     8  H   -0.079548
     9  H   -0.079548
    10  H    0.290803
 Sum of Mulliken charges =  -0.00000

 Dipole moment (field-independent basis, Debye):
    X=              0.0000    Y=             -0.0000    Z=              0.0000  Tot=              0.0000
 Quadrupole moment (field-independent basis, Debye-Ang):
   XX=            -12.6125   YY=            -21.1704   ZZ=            -10.2410
   XY=             -0.0000   XZ=             -0.0000   YZ=              0.0000

 Normal termination of Gaussian 09 at Thu Feb  9 16:24:47 2017.
