 Gaussian 09, Revision E.01,
 Gaussian 09:  ES64L-G09RevE.01 30-Nov-2015

 ----------------------------------------------------------------------
 #rhf/gen scf(symm,tight,novaracc,noincfock,fulldiag) stable(crhf) geom
 =nocrowd test
 ----------------------------------------------------------------------

 ----------------------------------------------------------------------
 hf stability analysis of h10 triangular lattice, y= 1.0322613290879032
 ----------------------------------------------------------------------
 Symbolic Z-matrix:
 Charge =  0 Multiplicity = 1

                         Standard orientation:
 ---------------------------------------------------------------------
 Center     Atomic      Atomic             Coordinates (Angstroms)
 Number     Number       Type             X           Y           Z
 ---------------------------------------------------------------------
      1          1           0       -0.000000    1.032261    1.118613
      2          1           0       -0.000000    0.000000    1.677919
      3          1           0       -0.000000    0.000000    0.559306
      4          1           0       -0.000000   -1.032261    1.118613
      5          1           0       -0.000000    1.032261    0.000000
      6          1           0       -0.000000   -1.032261   -0.000000
      7          1           0        0.000000    0.000000   -0.559306
      8          1           0        0.000000    1.032261   -1.118613
      9          1           0       -0.000000   -1.032261   -1.118613
     10          1           0        0.000000    0.000000   -1.677919
 ---------------------------------------------------------------------

 SCF Done:  E(RHF) =  -4.91708609913     A.U. after    9 cycles
 E2 =    -0.1041701965D+00 EUMP2 =    -0.50212562955919D+01

 The electronic state is 1-AG.
 Alpha  occ. eigenvalues --   -0.97053  -0.72008  -0.62588  -0.38085  -0.34201
 Alpha virt. eigenvalues --    0.06194   0.24273   0.29254   0.38780   0.62684

 Mulliken charges:
               1
     1  H   -0.080073
     2  H   -0.027779
     3  H    0.108706
     4  H   -0.080073
     5  H    0.079220
     6  H    0.079220
     7  H    0.108706
     8  H   -0.080073
     9  H   -0.080073
    10  H   -0.027779
 Sum of Mulliken charges =  -0.00000

 Dipole moment (field-independent basis, Debye):
    X=              0.0000    Y=              0.0000    Z=             -0.0000  Tot=              0.0000
 Quadrupole moment (field-independent basis, Debye-Ang):
   XX=            -12.8188   YY=            -14.9404   ZZ=            -19.3875
   XY=             -0.0000   XZ=              0.0000   YZ=              0.0000

 Normal termination of Gaussian 09 at Thu Feb  9 16:18:14 2017.
