 Gaussian 09, Revision E.01,
 Gaussian 09:  ES64L-G09RevE.01 30-Nov-2015

 ----------------------------------------------------------------------
 #rhf/gen scf(symm,tight,novaracc,noincfock,fulldiag) stable(crhf) geom
 =nocrowd test
 ----------------------------------------------------------------------

 hf stability analysis of h10 triangular lattice, y= 0.8627372259402686
 9
 ----------------------------------------------------------------------
 Symbolic Z-matrix:
 Charge =  0 Multiplicity = 1

                         Standard orientation:
 ---------------------------------------------------------------------
 Center     Atomic      Atomic             Coordinates (Angstroms)
 Number     Number       Type             X           Y           Z
 ---------------------------------------------------------------------
      1          1           0        0.000000    0.862737    1.338415
      2          1           0        0.000000    0.000000    2.007623
      3          1           0        0.000000    0.000000    0.669208
      4          1           0       -0.000000   -0.862737    1.338415
      5          1           0       -0.000000    0.862737   -0.000000
      6          1           0       -0.000000   -0.862737    0.000000
      7          1           0        0.000000   -0.000000   -0.669208
      8          1           0        0.000000    0.862737   -1.338415
      9          1           0       -0.000000   -0.862737   -1.338415
     10          1           0        0.000000   -0.000000   -2.007623
 ---------------------------------------------------------------------

 SCF Done:  E(RHF) =  -4.95543614310     A.U. after    8 cycles
 E2 =    -0.9639445545D-01 EUMP2 =    -0.50518305985445D+01

 The electronic state is 1-AG.
 Alpha  occ. eigenvalues --   -0.94371  -0.74733  -0.53655  -0.47271  -0.31521
 Alpha virt. eigenvalues --    0.07431   0.19040   0.32299   0.48429   0.50905

 Mulliken charges:
               1
     1  H   -0.154160
     2  H    0.127810
     3  H    0.104919
     4  H   -0.154160
     5  H    0.075592
     6  H    0.075592
     7  H    0.104919
     8  H   -0.154160
     9  H   -0.154160
    10  H    0.127810
 Sum of Mulliken charges =  -0.00000

 Dipole moment (field-independent basis, Debye):
    X=              0.0000    Y=             -0.0000    Z=              0.0000  Tot=              0.0000
 Quadrupole moment (field-independent basis, Debye-Ang):
   XX=            -12.9363   YY=            -17.2665   ZZ=            -15.1858
   XY=             -0.0000   XZ=             -0.0000   YZ=             -0.0000

 Normal termination of Gaussian 09 at Thu Feb  9 16:11:44 2017.
