 Gaussian 09, Revision E.01,
 Gaussian 09:  ES64L-G09RevE.01 30-Nov-2015

 ----------------------------------------------------------------------
 #rhf/gen scf(symm,tight,novaracc,noincfock,fulldiag) stable(crhf) geom
 =nocrowd test
 ----------------------------------------------------------------------

 ----------------------------------------------------------------------
 hf stability analysis of h10 triangular lattice, y= 1.0714165029145688
 ----------------------------------------------------------------------
 Symbolic Z-matrix:
 Charge =  0 Multiplicity = 1

                         Standard orientation:
 ---------------------------------------------------------------------
 Center     Atomic      Atomic             Coordinates (Angstroms)
 Number     Number       Type             X           Y           Z
 ---------------------------------------------------------------------
      1          1           0        0.000000    1.071416    1.077733
      2          1           0        0.000000    0.000000    1.616599
      3          1           0        0.000000    0.000000    0.538866
      4          1           0       -0.000000   -1.071416    1.077733
      5          1           0       -0.000000    1.071416   -0.000000
      6          1           0       -0.000000   -1.071416    0.000000
      7          1           0        0.000000   -0.000000   -0.538866
      8          1           0        0.000000    1.071416   -1.077733
      9          1           0       -0.000000   -1.071416   -1.077733
     10          1           0        0.000000   -0.000000   -1.616599
 ---------------------------------------------------------------------

 SCF Done:  E(RHF) =  -4.87546109997     A.U. after   10 cycles
 E2 =    -0.1077644126D+00 EUMP2 =    -0.49832255125755D+01

 The electronic state is 1-AG.
 Alpha  occ. eigenvalues --   -0.97347  -0.71129  -0.64262  -0.35755  -0.34314
 Alpha virt. eigenvalues --    0.01220   0.25452   0.32102   0.39193   0.64783

 Mulliken charges:
               1
     1  H   -0.057355
     2  H   -0.068125
     3  H    0.118397
     4  H   -0.057355
     5  H    0.064438
     6  H    0.064438
     7  H    0.118397
     8  H   -0.057355
     9  H   -0.057355
    10  H   -0.068125
 Sum of Mulliken charges =  -0.00000

 Dipole moment (field-independent basis, Debye):
    X=             -0.0000    Y=              0.0000    Z=             -0.0000  Tot=              0.0000
 Quadrupole moment (field-independent basis, Debye-Ang):
   XX=            -12.7869   YY=            -14.3673   ZZ=            -20.0341
   XY=             -0.0000   XZ=              0.0000   YZ=              0.0000

 Normal termination of Gaussian 09 at Thu Feb  9 16:19:28 2017.
