 Gaussian 09, Revision E.01,
 Gaussian 09:  ES64L-G09RevE.01 30-Nov-2015

 ----------------------------------------------------------------------
 #rhf/gen scf(symm,tight,novaracc,noincfock,fulldiag) stable(crhf) geom
 =nocrowd test
 ----------------------------------------------------------------------

 hf stability analysis of h10 triangular lattice, y= 0.9870686609978258
 6
 ----------------------------------------------------------------------
 Symbolic Z-matrix:
 Charge =  0 Multiplicity = 1

                         Standard orientation:
 ---------------------------------------------------------------------
 Center     Atomic      Atomic             Coordinates (Angstroms)
 Number     Number       Type             X           Y           Z
 ---------------------------------------------------------------------
      1          1           0        0.000000    0.987069    1.169828
      2          1           0       -0.000000   -0.000000    1.754742
      3          1           0       -0.000000   -0.000000    0.584914
      4          1           0       -0.000000   -0.987069    1.169828
      5          1           0       -0.000000    0.987069    0.000000
      6          1           0       -0.000000   -0.987069   -0.000000
      7          1           0        0.000000    0.000000   -0.584914
      8          1           0        0.000000    0.987069   -1.169828
      9          1           0       -0.000000   -0.987069   -1.169828
     10          1           0        0.000000    0.000000   -1.754742
 ---------------------------------------------------------------------

 SCF Done:  E(RHF) =  -4.95069203988     A.U. after    8 cycles
 E2 =    -0.1009242311D+00 EUMP2 =    -0.50516162709862D+01

 The electronic state is 1-AG.
 Alpha  occ. eigenvalues --   -0.96596  -0.72960  -0.60500  -0.40672  -0.33840
 Alpha virt. eigenvalues --    0.12390   0.20462   0.26177   0.41046   0.59806

 Mulliken charges:
               1
     1  H   -0.100269
     2  H    0.014014
     3  H    0.101827
     4  H   -0.100269
     5  H    0.084697
     6  H    0.084697
     7  H    0.101827
     8  H   -0.100269
     9  H   -0.100269
    10  H    0.014014
 Sum of Mulliken charges =  -0.00000

 Dipole moment (field-independent basis, Debye):
    X=              0.0000    Y=             -0.0000    Z=             -0.0000  Tot=              0.0000
 Quadrupole moment (field-independent basis, Debye-Ang):
   XX=            -12.8519   YY=            -15.5836   ZZ=            -18.4975
   XY=             -0.0000   XZ=              0.0000   YZ=             -0.0000

 Normal termination of Gaussian 09 at Thu Feb  9 16:16:41 2017.
