 Gaussian 09, Revision E.01,
 Gaussian 09:  ES64L-G09RevE.01 30-Nov-2015

 ----------------------------------------------------------------------
 #rhf/gen scf(symm,tight,novaracc,noincfock,fulldiag) stable(crhf) geom
 =nocrowd test
 ----------------------------------------------------------------------

 ----------------------------------------------------------------------
 hf stability analysis of h10 triangular lattice, y= 1.2948927059181552
 ----------------------------------------------------------------------
 Symbolic Z-matrix:
 Charge =  0 Multiplicity = 1

                         Standard orientation:
 ---------------------------------------------------------------------
 Center     Atomic      Atomic             Coordinates (Angstroms)
 Number     Number       Type             X           Y           Z
 ---------------------------------------------------------------------
      1          1           0       -0.000000    1.294893    0.891735
      2          1           0       -0.000000    0.000000    1.337602
      3          1           0       -0.000000    0.000000    0.445867
      4          1           0       -0.000000   -1.294893    0.891735
      5          1           0       -0.000000    1.294893    0.000000
      6          1           0       -0.000000   -1.294893    0.000000
      7          1           0        0.000000    0.000000   -0.445867
      8          1           0        0.000000    1.294893   -0.891735
      9          1           0       -0.000000   -1.294893   -0.891735
     10          1           0        0.000000    0.000000   -1.337602
 ---------------------------------------------------------------------

 SCF Done:  E(RHF) =  -4.94439127807     A.U. after    8 cycles
 E2 =    -0.8923257016D-01 EUMP2 =    -0.50336238482231D+01

 The electronic state is 1-AG.
 Alpha  occ. eigenvalues --   -0.94735  -0.69739  -0.65249  -0.47907  -0.29797
 Alpha virt. eigenvalues --    0.03369   0.11691   0.59521   0.70020   0.78882

 Mulliken charges:
               1
     1  H   -0.078397
     2  H    0.290330
     3  H   -0.052790
     4  H   -0.078397
     5  H   -0.080745
     6  H   -0.080745
     7  H   -0.052790
     8  H   -0.078397
     9  H   -0.078397
    10  H    0.290330
 Sum of Mulliken charges =  -0.00000

 Dipole moment (field-independent basis, Debye):
    X=              0.0000    Y=              0.0000    Z=              0.0000  Tot=              0.0000
 Quadrupole moment (field-independent basis, Debye-Ang):
   XX=            -12.6132   YY=            -21.1452   ZZ=            -10.2983
   XY=             -0.0000   XZ=             -0.0000   YZ=             -0.0000

 Normal termination of Gaussian 09 at Thu Feb  9 16:24:54 2017.
