 Gaussian 09, Revision E.01,
 Gaussian 09:  ES64L-G09RevE.01 30-Nov-2015

 ----------------------------------------------------------------------
 #rhf/gen scf(symm,tight,novaracc,noincfock,fulldiag) stable(crhf) geom
 =nocrowd test
 ----------------------------------------------------------------------

 hf stability analysis of h10 triangular lattice, y= 0.9593618967412239
 6
 ----------------------------------------------------------------------
 Symbolic Z-matrix:
 Charge =  0 Multiplicity = 1

                         Standard orientation:
 ---------------------------------------------------------------------
 Center     Atomic      Atomic             Coordinates (Angstroms)
 Number     Number       Type             X           Y           Z
 ---------------------------------------------------------------------
      1          1           0       -0.000000    0.959362    1.203613
      2          1           0       -0.000000   -0.000000    1.805420
      3          1           0       -0.000000   -0.000000    0.601807
      4          1           0       -0.000000   -0.959362    1.203613
      5          1           0       -0.000000    0.959362    0.000000
      6          1           0       -0.000000   -0.959362   -0.000000
      7          1           0        0.000000    0.000000   -0.601807
      8          1           0        0.000000    0.959362   -1.203613
      9          1           0       -0.000000   -0.959362   -1.203613
     10          1           0        0.000000    0.000000   -1.805420
 ---------------------------------------------------------------------

 SCF Done:  E(RHF) =  -4.96313263558     A.U. after    8 cycles
 E2 =    -0.9936754941D-01 EUMP2 =    -0.50625001849925D+01

 The electronic state is 1-AG.
 Alpha  occ. eigenvalues --   -0.96235  -0.73480  -0.59125  -0.42214  -0.33503
 Alpha virt. eigenvalues --    0.16449   0.17609   0.24404   0.43113   0.57738

 Mulliken charges:
               1
     1  H   -0.111909
     2  H    0.039073
     3  H    0.099412
     4  H   -0.111909
     5  H    0.085334
     6  H    0.085334
     7  H    0.099412
     8  H   -0.111909
     9  H   -0.111909
    10  H    0.039073
 Sum of Mulliken charges =   0.00000

 Dipole moment (field-independent basis, Debye):
    X=              0.0000    Y=             -0.0000    Z=              0.0000  Tot=              0.0000
 Quadrupole moment (field-independent basis, Debye-Ang):
   XX=            -12.8713   YY=            -15.9686   ZZ=            -17.8783
   XY=             -0.0000   XZ=              0.0000   YZ=              0.0000

 Normal termination of Gaussian 09 at Thu Feb  9 16:15:43 2017.
