 Gaussian 09, Revision E.01,
 Gaussian 09:  ES64L-G09RevE.01 30-Nov-2015

 ----------------------------------------------------------------------
 #rhf/gen scf(symm,tight,novaracc,noincfock,fulldiag) stable(crhf) geom
 =nocrowd test
 ----------------------------------------------------------------------

 hf stability analysis of h10 triangular lattice, y= 0.8596363675198261
 9
 ----------------------------------------------------------------------
 Symbolic Z-matrix:
 Charge =  0 Multiplicity = 1

                         Standard orientation:
 ---------------------------------------------------------------------
 Center     Atomic      Atomic             Coordinates (Angstroms)
 Number     Number       Type             X           Y           Z
 ---------------------------------------------------------------------
      1          1           0        0.000000    0.859636    1.343243
      2          1           0        0.000000    0.000000    2.014865
      3          1           0        0.000000    0.000000    0.671621
      4          1           0       -0.000000   -0.859636    1.343243
      5          1           0       -0.000000    0.859636   -0.000000
      6          1           0       -0.000000   -0.859636    0.000000
      7          1           0        0.000000   -0.000000   -0.671621
      8          1           0        0.000000    0.859636   -1.343243
      9          1           0       -0.000000   -0.859636   -1.343243
     10          1           0        0.000000   -0.000000   -2.014865
 ---------------------------------------------------------------------

 SCF Done:  E(RHF) =  -4.95384543298     A.U. after    8 cycles
 E2 =    -0.9636171866D-01 EUMP2 =    -0.50502071516394D+01

 The electronic state is 1-AG.
 Alpha  occ. eigenvalues --   -0.94293  -0.74755  -0.53459  -0.47423  -0.31433
 Alpha virt. eigenvalues --    0.07120   0.18892   0.32848   0.48080   0.51128

 Mulliken charges:
               1
     1  H   -0.155626
     2  H    0.130732
     3  H    0.105577
     4  H   -0.155626
     5  H    0.074943
     6  H    0.074943
     7  H    0.105577
     8  H   -0.155626
     9  H   -0.155626
    10  H    0.130732
 Sum of Mulliken charges =   0.00000

 Dipole moment (field-independent basis, Debye):
    X=              0.0000    Y=              0.0000    Z=             -0.0000  Tot=              0.0000
 Quadrupole moment (field-independent basis, Debye-Ang):
   XX=            -12.9384   YY=            -17.3071   ZZ=            -15.0832
   XY=             -0.0000   XZ=             -0.0000   YZ=              0.0000

 Normal termination of Gaussian 09 at Thu Feb  9 16:11:36 2017.
