 Gaussian 09, Revision E.01,
 Gaussian 09:  ES64L-G09RevE.01 30-Nov-2015

 ----------------------------------------------------------------------
 #rhf/gen scf(symm,tight,novaracc,noincfock,fulldiag) stable(crhf) geom
 =nocrowd test
 ----------------------------------------------------------------------

 ----------------------------------------------------------------------
 hf stability analysis of h10 triangular lattice, y= 1.0205721581109972
 ----------------------------------------------------------------------
 Symbolic Z-matrix:
 Charge =  0 Multiplicity = 1

                         Standard orientation:
 ---------------------------------------------------------------------
 Center     Atomic      Atomic             Coordinates (Angstroms)
 Number     Number       Type             X           Y           Z
 ---------------------------------------------------------------------
      1          1           0        0.000000    1.020572    1.131425
      2          1           0       -0.000000    0.000000    1.697137
      3          1           0       -0.000000    0.000000    0.565712
      4          1           0       -0.000000   -1.020572    1.131425
      5          1           0       -0.000000    1.020572    0.000000
      6          1           0       -0.000000   -1.020572    0.000000
      7          1           0        0.000000   -0.000000   -0.565712
      8          1           0        0.000000    1.020572   -1.131425
      9          1           0       -0.000000   -1.020572   -1.131425
     10          1           0        0.000000   -0.000000   -1.697137
 ---------------------------------------------------------------------

 SCF Done:  E(RHF) =  -4.92731672543     A.U. after    9 cycles
 E2 =    -0.1032433475D+00 EUMP2 =    -0.50305600729659D+01

 The electronic state is 1-AG.
 Alpha  occ. eigenvalues --   -0.96949  -0.72264  -0.62065  -0.38763  -0.34130
 Alpha virt. eigenvalues --    0.07748   0.23461   0.28437   0.39160   0.61993

 Mulliken charges:
               1
     1  H   -0.085587
     2  H   -0.016737
     3  H    0.106567
     4  H   -0.085587
     5  H    0.081344
     6  H    0.081344
     7  H    0.106567
     8  H   -0.085587
     9  H   -0.085587
    10  H   -0.016737
 Sum of Mulliken charges =   0.00000

 Dipole moment (field-independent basis, Debye):
    X=              0.0000    Y=              0.0000    Z=              0.0000  Tot=              0.0000
 Quadrupole moment (field-independent basis, Debye-Ang):
   XX=            -12.8276   YY=            -15.1087   ZZ=            -19.1709
   XY=             -0.0000   XZ=              0.0000   YZ=             -0.0000

 Normal termination of Gaussian 09 at Thu Feb  9 16:17:50 2017.
