 Gaussian 09, Revision E.01,
 Gaussian 09:  ES64L-G09RevE.01 30-Nov-2015

 ----------------------------------------------------------------------
 #rhf/gen scf(symm,tight,novaracc,noincfock,fulldiag) stable(crhf) geom
 =nocrowd test
 ----------------------------------------------------------------------

 hf stability analysis of h10 triangular lattice, y= 0.9225735451415472
 1
 ----------------------------------------------------------------------
 Symbolic Z-matrix:
 Charge =  0 Multiplicity = 1

                         Standard orientation:
 ---------------------------------------------------------------------
 Center     Atomic      Atomic             Coordinates (Angstroms)
 Number     Number       Type             X           Y           Z
 ---------------------------------------------------------------------
      1          1           0        0.000000    0.922574    1.251608
      2          1           0        0.000000   -0.000000    1.877412
      3          1           0        0.000000   -0.000000    0.625804
      4          1           0       -0.000000   -0.922574    1.251608
      5          1           0       -0.000000    0.922574    0.000000
      6          1           0       -0.000000   -0.922574   -0.000000
      7          1           0        0.000000    0.000000   -0.625804
      8          1           0        0.000000    0.922574   -1.251608
      9          1           0       -0.000000   -0.922574   -1.251608
     10          1           0        0.000000    0.000000   -1.877412
 ---------------------------------------------------------------------

 SCF Done:  E(RHF) =  -4.96968852766     A.U. after    8 cycles
 E2 =    -0.9778927803D-01 EUMP2 =    -0.50674778056939D+01

 The electronic state is 1-AG.
 Alpha  occ. eigenvalues --   -0.95645  -0.74072  -0.57175  -0.44203  -0.32905
 Alpha virt. eigenvalues --    0.13680   0.22172   0.22200   0.46132   0.54584

 Mulliken charges:
               1
     1  H   -0.127425
     2  H    0.072435
     3  H    0.098581
     4  H   -0.127425
     5  H    0.083832
     6  H    0.083832
     7  H    0.098581
     8  H   -0.127425
     9  H   -0.127425
    10  H    0.072435
 Sum of Mulliken charges =  -0.00000

 Dipole moment (field-independent basis, Debye):
    X=              0.0000    Y=              0.0000    Z=             -0.0000  Tot=              0.0000
 Quadrupole moment (field-independent basis, Debye-Ang):
   XX=            -12.8964   YY=            -16.4705   ZZ=            -16.9590
   XY=             -0.0000   XZ=              0.0000   YZ=             -0.0000

 Normal termination of Gaussian 09 at Thu Feb  9 16:14:18 2017.
