 Gaussian 09, Revision E.01,
 Gaussian 09:  ES64L-G09RevE.01 30-Nov-2015

 ----------------------------------------------------------------------
 #rhf/gen scf(symm,tight,novaracc,noincfock,fulldiag) stable(crhf) geom
 =nocrowd test
 ----------------------------------------------------------------------

 hf stability analysis of h10 triangular lattice, y= 0.9744610999233596
 1
 ----------------------------------------------------------------------
 Symbolic Z-matrix:
 Charge =  0 Multiplicity = 1

                         Standard orientation:
 ---------------------------------------------------------------------
 Center     Atomic      Atomic             Coordinates (Angstroms)
 Number     Number       Type             X           Y           Z
 ---------------------------------------------------------------------
      1          1           0       -0.000000    0.974461    1.184963
      2          1           0        0.000000    0.000000    1.777445
      3          1           0        0.000000    0.000000    0.592482
      4          1           0       -0.000000   -0.974461    1.184963
      5          1           0       -0.000000    0.974461    0.000000
      6          1           0       -0.000000   -0.974461   -0.000000
      7          1           0        0.000000    0.000000   -0.592482
      8          1           0        0.000000    0.974461   -1.184963
      9          1           0       -0.000000   -0.974461   -1.184963
     10          1           0        0.000000    0.000000   -1.777445
 ---------------------------------------------------------------------

 SCF Done:  E(RHF) =  -4.95714021009     A.U. after    8 cycles
 E2 =    -0.1001761655D+00 EUMP2 =    -0.50573163755502D+01

 The electronic state is 1-AG.
 Alpha  occ. eigenvalues --   -0.96440  -0.73204  -0.59884  -0.41378  -0.33698
 Alpha virt. eigenvalues --    0.14211   0.19187   0.25359   0.41950   0.58896

 Mulliken charges:
               1
     1  H   -0.105586
     2  H    0.025429
     3  H    0.100555
     4  H   -0.105586
     5  H    0.085189
     6  H    0.085189
     7  H    0.100555
     8  H   -0.105586
     9  H   -0.105586
    10  H    0.025429
 Sum of Mulliken charges =  -0.00000

 Dipole moment (field-independent basis, Debye):
    X=              0.0000    Y=              0.0000    Z=              0.0000  Tot=              0.0000
 Quadrupole moment (field-independent basis, Debye-Ang):
   XX=            -12.8608   YY=            -15.7596   ZZ=            -18.2231
   XY=             -0.0000   XZ=              0.0000   YZ=              0.0000

 Normal termination of Gaussian 09 at Thu Feb  9 16:16:14 2017.
