 Gaussian 09, Revision E.01,
 Gaussian 09:  ES64L-G09RevE.01 30-Nov-2015

 ----------------------------------------------------------------------
 #rhf/gen scf(symm,tight,novaracc,noincfock,fulldiag) stable(crhf) geom
 =nocrowd test
 ----------------------------------------------------------------------

 ----------------------------------------------------------------------
 hf stability analysis of h10 triangular lattice, y= 1.7913063954686912
 ----------------------------------------------------------------------
 Symbolic Z-matrix:
 Charge =  0 Multiplicity = 1

                         Standard orientation:
 ---------------------------------------------------------------------
 Center     Atomic      Atomic             Coordinates (Angstroms)
 Number     Number       Type             X           Y           Z
 ---------------------------------------------------------------------
      1          1           0        0.000000    1.791306    0.644614
      2          1           0        0.000000    0.000000    0.966921
      3          1           0        0.000000    0.000000    0.322307
      4          1           0       -0.000000   -1.791306    0.644614
      5          1           0       -0.000000    1.791306    0.000000
      6          1           0       -0.000000   -1.791306   -0.000000
      7          1           0        0.000000   -0.000000   -0.322307
      8          1           0        0.000000    1.791306   -0.644614
      9          1           0       -0.000000   -1.791306   -0.644614
     10          1           0        0.000000   -0.000000   -0.966921
 ---------------------------------------------------------------------

 SCF Done:  E(RHF) =  -4.51881547660     A.U. after    7 cycles
 E2 =    -0.1253421177D+00 EUMP2 =    -0.46441575942963D+01

 The electronic state is 1-AG.
 Alpha  occ. eigenvalues --   -0.98262  -0.81559  -0.77274  -0.57425  -0.21236
 Alpha virt. eigenvalues --   -0.00923   0.30806   1.01925   1.07473   1.47144

 Mulliken charges:
               1
     1  H    0.098219
     2  H    0.216533
     3  H   -0.135125
     4  H    0.098219
     5  H   -0.277847
     6  H   -0.277847
     7  H   -0.135125
     8  H    0.098219
     9  H    0.098219
    10  H    0.216533
 Sum of Mulliken charges =  -0.00000

 Dipole moment (field-independent basis, Debye):
    X=              0.0000    Y=             -0.0000    Z=              0.0000  Tot=              0.0000
 Quadrupole moment (field-independent basis, Debye-Ang):
   XX=            -12.4830   YY=            -17.2393   ZZ=            -13.7658
   XY=             -0.0000   XZ=              0.0000   YZ=              0.0000

 Normal termination of Gaussian 09 at Thu Feb  9 16:31:02 2017.
