 Gaussian 09, Revision E.01,
 Gaussian 09:  ES64L-G09RevE.01 30-Nov-2015

 ----------------------------------------------------------------------
 #rhf/gen scf(symm,tight,novaracc,noincfock,fulldiag) stable(crhf) geom
 =nocrowd test
 ----------------------------------------------------------------------

 ----------------------------------------------------------------------
 hf stability analysis of h10 triangular lattice, y= 1.8574471710024862
 ----------------------------------------------------------------------
 Symbolic Z-matrix:
 Charge =  0 Multiplicity = 1

                         Standard orientation:
 ---------------------------------------------------------------------
 Center     Atomic      Atomic             Coordinates (Angstroms)
 Number     Number       Type             X           Y           Z
 ---------------------------------------------------------------------
      1          1           0        0.000000    1.857447    0.621660
      2          1           0        0.000000    0.000000    0.932490
      3          1           0        0.000000    0.000000    0.310830
      4          1           0       -0.000000   -1.857447    0.621660
      5          1           0       -0.000000    1.857447    0.000000
      6          1           0       -0.000000   -1.857447   -0.000000
      7          1           0        0.000000    0.000000   -0.310830
      8          1           0        0.000000    1.857447   -0.621660
      9          1           0       -0.000000   -1.857447   -0.621660
     10          1           0        0.000000    0.000000   -0.932490
 ---------------------------------------------------------------------

 SCF Done:  E(RHF) =  -4.40066589299     A.U. after    7 cycles
 E2 =    -0.1369973943D+00 EUMP2 =    -0.45376632872545D+01

 The electronic state is 1-AG.
 Alpha  occ. eigenvalues --   -0.98890  -0.82897  -0.79728  -0.56722  -0.20125
 Alpha virt. eigenvalues --   -0.01424   0.34243   1.07434   1.12079   1.58192

 Mulliken charges:
               1
     1  H    0.123230
     2  H    0.215996
     3  H   -0.149984
     4  H    0.123230
     5  H   -0.312472
     6  H   -0.312472
     7  H   -0.149984
     8  H    0.123230
     9  H    0.123230
    10  H    0.215996
 Sum of Mulliken charges =  -0.00000

 Dipole moment (field-independent basis, Debye):
    X=              0.0000    Y=              0.0000    Z=             -0.0000  Tot=              0.0000
 Quadrupole moment (field-independent basis, Debye-Ang):
   XX=            -12.4474   YY=            -16.6703   ZZ=            -13.9797
   XY=             -0.0000   XZ=              0.0000   YZ=             -0.0000

 Normal termination of Gaussian 09 at Thu Feb  9 16:31:30 2017.
