 Gaussian 09, Revision E.01,
 Gaussian 09:  ES64L-G09RevE.01 30-Nov-2015

 ----------------------------------------------------------------------
 #rhf/gen scf(symm,tight,novaracc,noincfock,fulldiag) stable(crhf) geom
 =nocrowd test
 ----------------------------------------------------------------------

 hf stability analysis of h10 triangular lattice, y= 0.7986528468853468
 8
 ----------------------------------------------------------------------
 Symbolic Z-matrix:
 Charge =  0 Multiplicity = 1

                         Standard orientation:
 ---------------------------------------------------------------------
 Center     Atomic      Atomic             Coordinates (Angstroms)
 Number     Number       Type             X           Y           Z
 ---------------------------------------------------------------------
      1          1           0        0.000000    0.798653    1.445810
      2          1           0        0.000000   -0.000000    2.168716
      3          1           0        0.000000   -0.000000    0.722905
      4          1           0       -0.000000   -0.798653    1.445810
      5          1           0       -0.000000    0.798653    0.000000
      6          1           0       -0.000000   -0.798653   -0.000000
      7          1           0        0.000000    0.000000   -0.722905
      8          1           0        0.000000    0.798653   -1.445810
      9          1           0       -0.000000   -0.798653   -1.445810
     10          1           0        0.000000    0.000000   -2.168716
 ---------------------------------------------------------------------

 SCF Done:  E(RHF) =  -4.90532899664     A.U. after    8 cycles
 E2 =    -0.9652635222D-01 EUMP2 =    -0.50018553488633D+01

 The electronic state is 1-AG.
 Alpha  occ. eigenvalues --   -0.92489  -0.74909  -0.50261  -0.49315  -0.29358
 Alpha virt. eigenvalues --    0.01335   0.16358   0.39688   0.44931   0.54496

 Mulliken charges:
               1
     1  H   -0.186656
     2  H    0.189402
     3  H    0.127314
     4  H   -0.186656
     5  H    0.056596
     6  H    0.056596
     7  H    0.127314
     8  H   -0.186656
     9  H   -0.186656
    10  H    0.189402
 Sum of Mulliken charges =   0.00000

 Dipole moment (field-independent basis, Debye):
    X=              0.0000    Y=             -0.0000    Z=             -0.0000  Tot=              0.0000
 Quadrupole moment (field-independent basis, Debye-Ang):
   XX=            -12.9782   YY=            -18.0894   ZZ=            -12.8118
   XY=             -0.0000   XZ=             -0.0000   YZ=              0.0000

 Normal termination of Gaussian 09 at Thu Feb  9 16:08:41 2017.
