 Gaussian 09, Revision E.01,
 Gaussian 09:  ES64L-G09RevE.01 30-Nov-2015

 ----------------------------------------------------------------------
 #rhf/gen scf(symm,tight,novaracc,noincfock,fulldiag) stable(crhf) geom
 =nocrowd test
 ----------------------------------------------------------------------

 ----------------------------------------------------------------------
 hf stability analysis of h10 triangular lattice, y= 1.2443115627637849
 ----------------------------------------------------------------------
 Symbolic Z-matrix:
 Charge =  0 Multiplicity = 1

                         Standard orientation:
 ---------------------------------------------------------------------
 Center     Atomic      Atomic             Coordinates (Angstroms)
 Number     Number       Type             X           Y           Z
 ---------------------------------------------------------------------
      1          1           0       -0.000000    1.244312    0.927983
      2          1           0       -0.000000    0.000000    1.391975
      3          1           0       -0.000000    0.000000    0.463992
      4          1           0       -0.000000   -1.244312    0.927983
      5          1           0       -0.000000    1.244312    0.000000
      6          1           0       -0.000000   -1.244312   -0.000000
      7          1           0        0.000000   -0.000000   -0.463992
      8          1           0        0.000000    1.244312   -0.927983
      9          1           0       -0.000000   -1.244312   -0.927983
     10          1           0        0.000000   -0.000000   -1.391975
 ---------------------------------------------------------------------

 SCF Done:  E(RHF) =  -4.91794672366     A.U. after    9 cycles
 E2 =    -0.9204910709D-01 EUMP2 =    -0.50099958307477D+01

 The electronic state is 1-AG.
 Alpha  occ. eigenvalues --   -0.94358  -0.68244  -0.66265  -0.43541  -0.30444
 Alpha virt. eigenvalues --    0.00651   0.14057   0.55106   0.62879   0.76507

 Mulliken charges:
               1
     1  H   -0.085585
     2  H    0.290078
     3  H   -0.041411
     4  H   -0.085585
     5  H   -0.077496
     6  H   -0.077496
     7  H   -0.041411
     8  H   -0.085585
     9  H   -0.085585
    10  H    0.290078
 Sum of Mulliken charges =  -0.00000

 Dipole moment (field-independent basis, Debye):
    X=              0.0000    Y=             -0.0000    Z=             -0.0000  Tot=              0.0000
 Quadrupole moment (field-independent basis, Debye-Ang):
   XX=            -12.6050   YY=            -21.3198   ZZ=             -9.7981
   XY=             -0.0000   XZ=             -0.0000   YZ=             -0.0000

 Normal termination of Gaussian 09 at Thu Feb  9 16:23:53 2017.
