 Gaussian 09, Revision E.01,
 Gaussian 09:  ES64L-G09RevE.01 30-Nov-2015

 ----------------------------------------------------------------------
 #rhf/gen scf(symm,tight,novaracc,noincfock,fulldiag) stable(crhf) geom
 =nocrowd test
 ----------------------------------------------------------------------

 ----------------------------------------------------------------------
 hf stability analysis of h10 triangular lattice, y= 1.1101850963965334
 ----------------------------------------------------------------------
 Symbolic Z-matrix:
 Charge =  0 Multiplicity = 1

                         Standard orientation:
 ---------------------------------------------------------------------
 Center     Atomic      Atomic             Coordinates (Angstroms)
 Number     Number       Type             X           Y           Z
 ---------------------------------------------------------------------
      1          1           0       -0.000000    1.110185    1.040097
      2          1           0       -0.000000    0.000000    1.560146
      3          1           0       -0.000000    0.000000    0.520049
      4          1           0       -0.000000   -1.110185    1.040097
      5          1           0       -0.000000    1.110185   -0.000000
      6          1           0       -0.000000   -1.110185    0.000000
      7          1           0        0.000000   -0.000000   -0.520049
      8          1           0        0.000000    1.110185   -1.040097
      9          1           0       -0.000000   -1.110185   -1.040097
     10          1           0        0.000000   -0.000000   -1.560146
 ---------------------------------------------------------------------

 SCF Done:  E(RHF) =  -4.82581740779     A.U. after   11 cycles
 E2 =    -0.1116958813D+00 EUMP2 =    -0.49375132891246D+01

 The electronic state is 1-AG.
 Alpha  occ. eigenvalues --   -0.97437  -0.70373  -0.65718  -0.33814  -0.33151
 Alpha virt. eigenvalues --   -0.03198   0.23886   0.35696   0.42139   0.66907

 Mulliken charges:
               1
     1  H    0.005638
     2  H   -0.125009
     3  H    0.134770
     4  H    0.005638
     5  H   -0.021037
     6  H   -0.021037
     7  H    0.134770
     8  H    0.005638
     9  H    0.005638
    10  H   -0.125009
 Sum of Mulliken charges =  -0.00000

 Dipole moment (field-independent basis, Debye):
    X=             -0.0000    Y=             -0.0000    Z=             -0.0000  Tot=              0.0000
 Quadrupole moment (field-independent basis, Debye-Ang):
   XX=            -12.7280   YY=            -14.0773   ZZ=            -19.8590
   XY=             -0.0000   XZ=              0.0000   YZ=              0.0000

 Normal termination of Gaussian 09 at Thu Feb  9 16:20:36 2017.
