 Gaussian 09, Revision E.01,
 Gaussian 09:  ES64L-G09RevE.01 30-Nov-2015

 ----------------------------------------------------------------------
 #rhf/gen scf(symm,tight,novaracc,noincfock,fulldiag) stable(crhf) geom
 =nocrowd test
 ----------------------------------------------------------------------

 hf stability analysis of h10 triangular lattice, y= 0.8930723147927892
 6
 ----------------------------------------------------------------------
 Symbolic Z-matrix:
 Charge =  0 Multiplicity = 1

                         Standard orientation:
 ---------------------------------------------------------------------
 Center     Atomic      Atomic             Coordinates (Angstroms)
 Number     Number       Type             X           Y           Z
 ---------------------------------------------------------------------
      1          1           0        0.000000    0.893072    1.292953
      2          1           0        0.000000    0.000000    1.939430
      3          1           0        0.000000    0.000000    0.646476
      4          1           0       -0.000000   -0.893072    1.292953
      5          1           0       -0.000000    0.893072    0.000000
      6          1           0       -0.000000   -0.893072    0.000000
      7          1           0        0.000000    0.000000   -0.646476
      8          1           0        0.000000    0.893072   -1.292953
      9          1           0       -0.000000   -0.893072   -1.292953
     10          1           0        0.000000    0.000000   -1.939430
 ---------------------------------------------------------------------

 SCF Done:  E(RHF) =  -4.96655617266     A.U. after    8 cycles
 E2 =    -0.9692057187D-01 EUMP2 =    -0.50634767445248D+01

 The electronic state is 1-AG.
 Alpha  occ. eigenvalues --   -0.95069  -0.74450  -0.55497  -0.45744  -0.32291
 Alpha virt. eigenvalues --    0.10553   0.20571   0.27044   0.48566   0.51703

 Mulliken charges:
               1
     1  H   -0.140282
     2  H    0.099516
     3  H    0.100316
     4  H   -0.140282
     5  H    0.080733
     6  H    0.080733
     7  H    0.100316
     8  H   -0.140282
     9  H   -0.140282
    10  H    0.099516
 Sum of Mulliken charges =   0.00000

 Dipole moment (field-independent basis, Debye):
    X=              0.0000    Y=             -0.0000    Z=              0.0000  Tot=              0.0000
 Quadrupole moment (field-independent basis, Debye-Ang):
   XX=            -12.9162   YY=            -16.8660   ZZ=            -16.1316
   XY=             -0.0000   XZ=             -0.0000   YZ=             -0.0000

 Normal termination of Gaussian 09 at Thu Feb  9 16:13:04 2017.
