 Gaussian 09, Revision E.01,
 Gaussian 09:  ES64L-G09RevE.01 30-Nov-2015

 ----------------------------------------------------------------------
 #rhf/gen scf(symm,tight,novaracc,noincfock,fulldiag) stable(crhf) geom
 =nocrowd test
 ----------------------------------------------------------------------

 ----------------------------------------------------------------------
 hf stability analysis of h10 triangular lattice, y= 1.3450195894037844
 ----------------------------------------------------------------------
 Symbolic Z-matrix:
 Charge =  0 Multiplicity = 1

                         Standard orientation:
 ---------------------------------------------------------------------
 Center     Atomic      Atomic             Coordinates (Angstroms)
 Number     Number       Type             X           Y           Z
 ---------------------------------------------------------------------
      1          1           0       -0.000000    1.345020    0.858501
      2          1           0        0.000000   -0.000000    1.287751
      3          1           0        0.000000   -0.000000    0.429250
      4          1           0       -0.000000   -1.345020    0.858501
      5          1           0       -0.000000    1.345020    0.000000
      6          1           0       -0.000000   -1.345020   -0.000000
      7          1           0        0.000000    0.000000   -0.429250
      8          1           0        0.000000    1.345020   -0.858501
      9          1           0       -0.000000   -1.345020   -0.858501
     10          1           0        0.000000    0.000000   -1.287751
 ---------------------------------------------------------------------

 SCF Done:  E(RHF) =  -4.95401411697     A.U. after    8 cycles
 E2 =    -0.8804311929D-01 EUMP2 =    -0.50420572362586D+01

 The electronic state is 1-AG.
 Alpha  occ. eigenvalues --   -0.95123  -0.71160  -0.64288  -0.51960  -0.29060
 Alpha virt. eigenvalues --    0.06151   0.09537   0.63872   0.77232   0.81266

 Mulliken charges:
               1
     1  H   -0.065475
     2  H    0.283241
     3  H   -0.060616
     4  H   -0.065475
     5  H   -0.091676
     6  H   -0.091676
     7  H   -0.060616
     8  H   -0.065475
     9  H   -0.065475
    10  H    0.283241
 Sum of Mulliken charges =  -0.00000

 Dipole moment (field-independent basis, Debye):
    X=              0.0000    Y=             -0.0000    Z=             -0.0000  Tot=              0.0000
 Quadrupole moment (field-independent basis, Debye-Ang):
   XX=            -12.6163   YY=            -20.8741   ZZ=            -10.8217
   XY=             -0.0000   XZ=             -0.0000   YZ=              0.0000

 Normal termination of Gaussian 09 at Thu Feb  9 16:25:48 2017.
