 Gaussian 09, Revision E.01,
 Gaussian 09:  ES64L-G09RevE.01 30-Nov-2015

 ----------------------------------------------------------------------
 #rhf/gen scf(symm,tight,novaracc,noincfock,fulldiag) stable(crhf) geom
 =nocrowd test
 ----------------------------------------------------------------------

 ----------------------------------------------------------------------
 hf stability analysis of h10 triangular lattice, y= 1.0855959745595780
 ----------------------------------------------------------------------
 Symbolic Z-matrix:
 Charge =  0 Multiplicity = 1

                         Standard orientation:
 ---------------------------------------------------------------------
 Center     Atomic      Atomic             Coordinates (Angstroms)
 Number     Number       Type             X           Y           Z
 ---------------------------------------------------------------------
      1          1           0        0.000000    1.085596    1.063656
      2          1           0        0.000000    0.000000    1.595484
      3          1           0        0.000000    0.000000    0.531828
      4          1           0       -0.000000   -1.085596    1.063656
      5          1           0       -0.000000    1.085596   -0.000000
      6          1           0       -0.000000   -1.085596    0.000000
      7          1           0        0.000000   -0.000000   -0.531828
      8          1           0        0.000000    1.085596   -1.063656
      9          1           0       -0.000000   -1.085596   -1.063656
     10          1           0        0.000000   -0.000000   -1.595484
 ---------------------------------------------------------------------

 SCF Done:  E(RHF) =  -4.85785124604     A.U. after   11 cycles
 E2 =    -0.1092706911D+00 EUMP2 =    -0.49671219371872D+01

 The electronic state is 1-AG.
 Alpha  occ. eigenvalues --   -0.97438  -0.70821  -0.64839  -0.34872  -0.34283
 Alpha virt. eigenvalues --   -0.00490   0.25223   0.33200   0.40017   0.65489

 Mulliken charges:
               1
     1  H   -0.044926
     2  H   -0.085733
     3  H    0.123492
     4  H   -0.044926
     5  H    0.052092
     6  H    0.052092
     7  H    0.123492
     8  H   -0.044926
     9  H   -0.044926
    10  H   -0.085733
 Sum of Mulliken charges =  -0.00000

 Dipole moment (field-independent basis, Debye):
    X=             -0.0000    Y=              0.0000    Z=              0.0000  Tot=              0.0000
 Quadrupole moment (field-independent basis, Debye-Ang):
   XX=            -12.7731   YY=            -14.1630   ZZ=            -20.2141
   XY=             -0.0000   XZ=              0.0000   YZ=             -0.0000

 Normal termination of Gaussian 09 at Thu Feb  9 16:19:54 2017.
