 Gaussian 09, Revision E.01,
 Gaussian 09:  ES64L-G09RevE.01 30-Nov-2015

 ----------------------------------------------------------------------
 #rhf/gen scf(symm,tight,novaracc,noincfock,fulldiag) stable(crhf) geom
 =nocrowd test
 ----------------------------------------------------------------------

 ----------------------------------------------------------------------
 hf stability analysis of h10 triangular lattice, y= 2.1229520373144530
 ----------------------------------------------------------------------
 Symbolic Z-matrix:
 Charge =  0 Multiplicity = 1

                         Standard orientation:
 ---------------------------------------------------------------------
 Center     Atomic      Atomic             Coordinates (Angstroms)
 Number     Number       Type             X           Y           Z
 ---------------------------------------------------------------------
      1          1           0        0.000000    2.122952    0.543913
      2          1           0        0.000000    0.000000    0.815869
      3          1           0        0.000000    0.000000    0.271956
      4          1           0       -0.000000   -2.122952    0.543913
      5          1           0       -0.000000    2.122952    0.000000
      6          1           0       -0.000000   -2.122952    0.000000
      7          1           0        0.000000    0.000000   -0.271956
      8          1           0        0.000000    2.122952   -0.543913
      9          1           0       -0.000000   -2.122952   -0.543913
     10          1           0        0.000000    0.000000   -0.815869
 ---------------------------------------------------------------------

 SCF Done:  E(RHF) =  -3.84221066136     A.U. after    7 cycles
 E2 =    -0.1922201515D+00 EUMP2 =    -0.40344308128964D+01

 The electronic state is 1-AG.
 Alpha  occ. eigenvalues --   -1.02481  -0.87936  -0.87301  -0.54704  -0.16001
 Alpha virt. eigenvalues --   -0.01820   0.47084   1.29429   1.31768   2.03765

 Mulliken charges:
               1
     1  H    0.220120
     2  H    0.243731
     3  H   -0.218670
     4  H    0.220120
     5  H   -0.465302
     6  H   -0.465302
     7  H   -0.218670
     8  H    0.220120
     9  H    0.220120
    10  H    0.243731
 Sum of Mulliken charges =  -0.00000

 Dipole moment (field-independent basis, Debye):
    X=              0.0000    Y=             -0.0000    Z=             -0.0000  Tot=              0.0000
 Quadrupole moment (field-independent basis, Debye-Ang):
   XX=            -12.2931   YY=            -14.7355   ZZ=            -14.5451
   XY=             -0.0000   XZ=              0.0000   YZ=             -0.0000

 Normal termination of Gaussian 09 at Thu Feb  9 16:33:03 2017.
