 Gaussian 09, Revision E.01,
 Gaussian 09:  ES64L-G09RevE.01 30-Nov-2015

 ----------------------------------------------------------------------
 #rhf/gen scf(symm,tight,novaracc,noincfock,fulldiag) stable(crhf) geom
 =nocrowd test
 ----------------------------------------------------------------------

 ----------------------------------------------------------------------
 hf stability analysis of h10 triangular lattice, y= 1.0520078515824418
 ----------------------------------------------------------------------
 Symbolic Z-matrix:
 Charge =  0 Multiplicity = 1

                         Standard orientation:
 ---------------------------------------------------------------------
 Center     Atomic      Atomic             Coordinates (Angstroms)
 Number     Number       Type             X           Y           Z
 ---------------------------------------------------------------------
      1          1           0       -0.000000    1.052008    1.097616
      2          1           0        0.000000    0.000000    1.646424
      3          1           0        0.000000    0.000000    0.548808
      4          1           0       -0.000000   -1.052008    1.097616
      5          1           0       -0.000000    1.052008   -0.000000
      6          1           0       -0.000000   -1.052008    0.000000
      7          1           0        0.000000   -0.000000   -0.548808
      8          1           0        0.000000    1.052008   -1.097616
      9          1           0       -0.000000   -1.052008   -1.097616
     10          1           0        0.000000   -0.000000   -1.646424
 ---------------------------------------------------------------------

 SCF Done:  E(RHF) =  -4.89746484902     A.U. after    9 cycles
 E2 =    -0.1058838835D+00 EUMP2 =    -0.50033487324995D+01

 The electronic state is 1-AG.
 Alpha  occ. eigenvalues --   -0.97211  -0.71566  -0.63446  -0.36923  -0.34285
 Alpha virt. eigenvalues --    0.03641   0.25199   0.30666   0.38634   0.63779

 Mulliken charges:
               1
     1  H   -0.069794
     2  H   -0.047211
     3  H    0.113010
     4  H   -0.069794
     5  H    0.073789
     6  H    0.073789
     7  H    0.113010
     8  H   -0.069794
     9  H   -0.069794
    10  H   -0.047211
 Sum of Mulliken charges =  -0.00000

 Dipole moment (field-independent basis, Debye):
    X=             -0.0000    Y=             -0.0000    Z=              0.0000  Tot=              0.0000
 Quadrupole moment (field-independent basis, Debye-Ang):
   XX=            -12.8034   YY=            -14.6527   ZZ=            -19.7309
   XY=             -0.0000   XZ=              0.0000   YZ=             -0.0000

 Normal termination of Gaussian 09 at Thu Feb  9 16:18:52 2017.
