 Gaussian 09, Revision E.01,
 Gaussian 09:  ES64L-G09RevE.01 30-Nov-2015

 ----------------------------------------------------------------------
 #rhf/gen scf(symm,tight,novaracc,noincfock,fulldiag) stable(crhf) geom
 =nocrowd test
 ----------------------------------------------------------------------

 ----------------------------------------------------------------------
 hf stability analysis of h10 triangular lattice, y= 2.4265770196459231
 ----------------------------------------------------------------------
 Symbolic Z-matrix:
 Charge =  0 Multiplicity = 1

                         Standard orientation:
 ---------------------------------------------------------------------
 Center     Atomic      Atomic             Coordinates (Angstroms)
 Number     Number       Type             X           Y           Z
 ---------------------------------------------------------------------
      1          1           0       -0.000000    2.426577    0.475856
      2          1           0        0.000000   -0.000000    0.713784
      3          1           0        0.000000   -0.000000    0.237928
      4          1           0       -0.000000   -2.426577    0.475856
      5          1           0       -0.000000    2.426577    0.000000
      6          1           0       -0.000000   -2.426577   -0.000000
      7          1           0        0.000000    0.000000   -0.237928
      8          1           0        0.000000    2.426577   -0.475856
      9          1           0       -0.000000   -2.426577   -0.475856
     10          1           0        0.000000    0.000000   -0.713784
 ---------------------------------------------------------------------

 SCF Done:  E(RHF) =  -3.07945162786     A.U. after    7 cycles
 E2 =    -0.2591397015D+00 EUMP2 =    -0.33385913293479D+01

 The electronic state is 1-AG.
 Alpha  occ. eigenvalues --   -1.08256  -0.93093  -0.93065  -0.53440  -0.11772
 Alpha virt. eigenvalues --   -0.00364   0.60102   1.54605   1.55756   2.58483

 Mulliken charges:
               1
     1  H    0.328659
     2  H    0.320982
     3  H   -0.313736
     4  H    0.328659
     5  H   -0.664564
     6  H   -0.664564
     7  H   -0.313736
     8  H    0.328659
     9  H    0.328659
    10  H    0.320982
 Sum of Mulliken charges =  -0.00000

 Dipole moment (field-independent basis, Debye):
    X=              0.0000    Y=              0.0000    Z=             -0.0000  Tot=              0.0000
 Quadrupole moment (field-independent basis, Debye-Ang):
   XX=            -12.1190   YY=            -13.3438   ZZ=            -14.8899
   XY=              0.0000   XZ=              0.0000   YZ=             -0.0000

 Normal termination of Gaussian 09 at Thu Feb  9 16:34:14 2017.
