 Gaussian 09, Revision E.01,
 Gaussian 09:  ES64L-G09RevE.01 30-Nov-2015

 ----------------------------------------------------------------------
 #rhf/gen scf(symm,tight,novaracc,noincfock,fulldiag) stable(crhf) geom
 =nocrowd test
 ----------------------------------------------------------------------

 ----------------------------------------------------------------------
 hf stability analysis of h10 triangular lattice, y= 1.4379974234354114
 ----------------------------------------------------------------------
 Symbolic Z-matrix:
 Charge =  0 Multiplicity = 1

                         Standard orientation:
 ---------------------------------------------------------------------
 Center     Atomic      Atomic             Coordinates (Angstroms)
 Number     Number       Type             X           Y           Z
 ---------------------------------------------------------------------
      1          1           0       -0.000000    1.437997    0.802992
      2          1           0        0.000000    0.000000    1.204488
      3          1           0        0.000000    0.000000    0.401496
      4          1           0       -0.000000   -1.437997    0.802992
      5          1           0       -0.000000    1.437997   -0.000000
      6          1           0       -0.000000   -1.437997    0.000000
      7          1           0        0.000000   -0.000000   -0.401496
      8          1           0        0.000000    1.437997   -0.802992
      9          1           0       -0.000000   -1.437997   -0.802992
     10          1           0        0.000000   -0.000000   -1.204488
 ---------------------------------------------------------------------

 SCF Done:  E(RHF) =  -4.93263902744     A.U. after    8 cycles
 E2 =    -0.8909294952D-01 EUMP2 =    -0.50217319769680D+01

 The electronic state is 1-AG.
 Alpha  occ. eigenvalues --   -0.95793  -0.73619  -0.62594  -0.58746  -0.27525
 Alpha virt. eigenvalues --    0.06107   0.11378   0.71923   0.85934   0.90989

 Mulliken charges:
               1
     1  H   -0.035244
     2  H    0.264806
     3  H   -0.073161
     4  H   -0.035244
     5  H   -0.121157
     6  H   -0.121157
     7  H   -0.073161
     8  H   -0.035244
     9  H   -0.035244
    10  H    0.264806
 Sum of Mulliken charges =   0.00000

 Dipole moment (field-independent basis, Debye):
    X=              0.0000    Y=             -0.0000    Z=              0.0000  Tot=              0.0000
 Quadrupole moment (field-independent basis, Debye-Ang):
   XX=            -12.6103   YY=            -20.2472   ZZ=            -11.7055
   XY=             -0.0000   XZ=             -0.0000   YZ=              0.0000

 Normal termination of Gaussian 09 at Thu Feb  9 16:27:16 2017.
