 Gaussian 09, Revision E.01,
 Gaussian 09:  ES64L-G09RevE.01 30-Nov-2015

 ----------------------------------------------------------------------
 #rhf/gen scf(symm,tight,novaracc,noincfock,fulldiag) stable(crhf) geom
 =nocrowd test
 ----------------------------------------------------------------------

 hf stability analysis of h10 triangular lattice, y= 0.9900233955345416
 6
 ----------------------------------------------------------------------
 Symbolic Z-matrix:
 Charge =  0 Multiplicity = 1

                         Standard orientation:
 ---------------------------------------------------------------------
 Center     Atomic      Atomic             Coordinates (Angstroms)
 Number     Number       Type             X           Y           Z
 ---------------------------------------------------------------------
      1          1           0       -0.000000    0.990023    1.166337
      2          1           0       -0.000000    0.000000    1.749505
      3          1           0       -0.000000    0.000000    0.583168
      4          1           0       -0.000000   -0.990023    1.166337
      5          1           0       -0.000000    0.990023   -0.000000
      6          1           0       -0.000000   -0.990023    0.000000
      7          1           0        0.000000   -0.000000   -0.583168
      8          1           0        0.000000    0.990023   -1.166337
      9          1           0       -0.000000   -0.990023   -1.166337
     10          1           0        0.000000   -0.000000   -1.749505
 ---------------------------------------------------------------------

 SCF Done:  E(RHF) =  -4.94899271735     A.U. after    8 cycles
 E2 =    -0.1011092513D+00 EUMP2 =    -0.50501019685974D+01

 The electronic state is 1-AG.
 Alpha  occ. eigenvalues --   -0.96630  -0.72901  -0.60642  -0.40506  -0.33871
 Alpha virt. eigenvalues --    0.11969   0.20753   0.26372   0.40846   0.60013

 Mulliken charges:
               1
     1  H   -0.099014
     2  H    0.011332
     3  H    0.102166
     4  H   -0.099014
     5  H    0.084529
     6  H    0.084529
     7  H    0.102166
     8  H   -0.099014
     9  H   -0.099014
    10  H    0.011332
 Sum of Mulliken charges =   0.00000

 Dipole moment (field-independent basis, Debye):
    X=              0.0000    Y=             -0.0000    Z=              0.0000  Tot=              0.0000
 Quadrupole moment (field-independent basis, Debye-Ang):
   XX=            -12.8498   YY=            -15.5421   ZZ=            -18.5601
   XY=             -0.0000   XZ=              0.0000   YZ=             -0.0000

 Normal termination of Gaussian 09 at Thu Feb  9 16:16:48 2017.
