 Gaussian 09, Revision E.01,
 Gaussian 09:  ES64L-G09RevE.01 30-Nov-2015

 ----------------------------------------------------------------------
 #rhf/gen scf(symm,tight,novaracc,noincfock,fulldiag) stable(crhf) geom
 =nocrowd test
 ----------------------------------------------------------------------

 hf stability analysis of h10 triangular lattice, y= 0.9841311651395591
 2
 ----------------------------------------------------------------------
 Symbolic Z-matrix:
 Charge =  0 Multiplicity = 1

                         Standard orientation:
 ---------------------------------------------------------------------
 Center     Atomic      Atomic             Coordinates (Angstroms)
 Number     Number       Type             X           Y           Z
 ---------------------------------------------------------------------
      1          1           0       -0.000000    0.984131    1.173320
      2          1           0        0.000000   -0.000000    1.759980
      3          1           0        0.000000   -0.000000    0.586660
      4          1           0       -0.000000   -0.984131    1.173320
      5          1           0       -0.000000    0.984131    0.000000
      6          1           0       -0.000000   -0.984131    0.000000
      7          1           0        0.000000   -0.000000   -0.586660
      8          1           0        0.000000    0.984131   -1.173320
      9          1           0       -0.000000   -0.984131   -1.173320
     10          1           0        0.000000   -0.000000   -1.759980
 ---------------------------------------------------------------------

 SCF Done:  E(RHF) =  -4.95231089730     A.U. after    8 cycles
 E2 =    -0.1007439570D+00 EUMP2 =    -0.50530548543356D+01

 The electronic state is 1-AG.
 Alpha  occ. eigenvalues --   -0.96561  -0.73018  -0.60358  -0.40837  -0.33809
 Alpha virt. eigenvalues --    0.12810   0.20169   0.25985   0.41250   0.59599

 Mulliken charges:
               1
     1  H   -0.101514
     2  H    0.016677
     3  H    0.101506
     4  H   -0.101514
     5  H    0.084844
     6  H    0.084844
     7  H    0.101506
     8  H   -0.101514
     9  H   -0.101514
    10  H    0.016677
 Sum of Mulliken charges =   0.00000

 Dipole moment (field-independent basis, Debye):
    X=              0.0000    Y=             -0.0000    Z=              0.0000  Tot=              0.0000
 Quadrupole moment (field-independent basis, Debye-Ang):
   XX=            -12.8540   YY=            -15.6247   ZZ=            -18.4346
   XY=             -0.0000   XZ=              0.0000   YZ=             -0.0000

 Normal termination of Gaussian 09 at Thu Feb  9 16:16:35 2017.
