 Gaussian 09, Revision E.01,
 Gaussian 09:  ES64L-G09RevE.01 30-Nov-2015

 ----------------------------------------------------------------------
 #rhf/gen scf(symm,tight,novaracc,noincfock,fulldiag) stable(crhf) geom
 =nocrowd test
 ----------------------------------------------------------------------

 hf stability analysis of h10 triangular lattice, y= 0.9392996027124712
 6
 ----------------------------------------------------------------------
 Symbolic Z-matrix:
 Charge =  0 Multiplicity = 1

                         Standard orientation:
 ---------------------------------------------------------------------
 Center     Atomic      Atomic             Coordinates (Angstroms)
 Number     Number       Type             X           Y           Z
 ---------------------------------------------------------------------
      1          1           0       -0.000000    0.939300    1.229321
      2          1           0        0.000000    0.000000    1.843981
      3          1           0        0.000000    0.000000    0.614660
      4          1           0       -0.000000   -0.939300    1.229321
      5          1           0       -0.000000    0.939300    0.000000
      6          1           0       -0.000000   -0.939300    0.000000
      7          1           0        0.000000    0.000000   -0.614660
      8          1           0        0.000000    0.939300   -1.229321
      9          1           0       -0.000000   -0.939300   -1.229321
     10          1           0        0.000000    0.000000   -1.843981
 ---------------------------------------------------------------------

 SCF Done:  E(RHF) =  -4.96813455449     A.U. after    8 cycles
 E2 =    -0.9843841274D-01 EUMP2 =    -0.50665729672349D+01

 The electronic state is 1-AG.
 Alpha  occ. eigenvalues --   -0.95930  -0.73818  -0.58080  -0.43307  -0.33199
 Alpha virt. eigenvalues --    0.15471   0.19522   0.23180   0.44741   0.56077

 Mulliken charges:
               1
     1  H   -0.120326
     2  H    0.057228
     3  H    0.098591
     4  H   -0.120326
     5  H    0.084834
     6  H    0.084834
     7  H    0.098591
     8  H   -0.120326
     9  H   -0.120326
    10  H    0.057228
 Sum of Mulliken charges =  -0.00000

 Dipole moment (field-independent basis, Debye):
    X=              0.0000    Y=             -0.0000    Z=              0.0000  Tot=              0.0000
 Quadrupole moment (field-independent basis, Debye-Ang):
   XX=            -12.8851   YY=            -16.2436   ZZ=            -17.3916
   XY=             -0.0000   XZ=              0.0000   YZ=             -0.0000

 Normal termination of Gaussian 09 at Thu Feb  9 16:14:59 2017.
