 Gaussian 09, Revision E.01,
 Gaussian 09:  ES64L-G09RevE.01 30-Nov-2015

 ----------------------------------------------------------------------
 #rhf/gen scf(symm,tight,novaracc,noincfock,fulldiag) stable(crhf) geom
 =nocrowd test
 ----------------------------------------------------------------------

 ----------------------------------------------------------------------
 hf stability analysis of h10 triangular lattice, y= 1.9424216589372902
 ----------------------------------------------------------------------
 Symbolic Z-matrix:
 Charge =  0 Multiplicity = 1

                         Standard orientation:
 ---------------------------------------------------------------------
 Center     Atomic      Atomic             Coordinates (Angstroms)
 Number     Number       Type             X           Y           Z
 ---------------------------------------------------------------------
      1          1           0        0.000000    1.942422    0.594464
      2          1           0        0.000000    0.000000    0.891697
      3          1           0        0.000000    0.000000    0.297232
      4          1           0       -0.000000   -1.942422    0.594464
      5          1           0       -0.000000    1.942422   -0.000000
      6          1           0       -0.000000   -1.942422    0.000000
      7          1           0        0.000000   -0.000000   -0.297232
      8          1           0        0.000000    1.942422   -0.594464
      9          1           0       -0.000000   -1.942422   -0.594464
     10          1           0        0.000000   -0.000000   -0.891697
 ---------------------------------------------------------------------

 SCF Done:  E(RHF) =  -4.23544158690     A.U. after    7 cycles
 E2 =    -0.1535419628D+00 EUMP2 =    -0.43889835496880D+01

 The electronic state is 1-AG.
 Alpha  occ. eigenvalues --   -0.99847  -0.84567  -0.82515  -0.55944  -0.18748
 Alpha virt. eigenvalues --   -0.01801   0.38524   1.14485   1.18194   1.72572

 Mulliken charges:
               1
     1  H    0.154824
     2  H    0.219827
     3  H   -0.170428
     4  H    0.154824
     5  H   -0.359047
     6  H   -0.359047
     7  H   -0.170428
     8  H    0.154824
     9  H    0.154824
    10  H    0.219827
 Sum of Mulliken charges =  -0.00000

 Dipole moment (field-independent basis, Debye):
    X=              0.0000    Y=              0.0000    Z=              0.0000  Tot=              0.0000
 Quadrupole moment (field-independent basis, Debye-Ang):
   XX=            -12.3992   YY=            -15.9810   ZZ=            -14.2038
   XY=             -0.0000   XZ=              0.0000   YZ=              0.0000

 Normal termination of Gaussian 09 at Thu Feb  9 16:32:04 2017.
