 Gaussian 09, Revision E.01,
 Gaussian 09:  ES64L-G09RevE.01 30-Nov-2015

 ----------------------------------------------------------------------
 #rhf/gen scf(symm,tight,novaracc,noincfock,fulldiag) stable(crhf) geom
 =nocrowd test
 ----------------------------------------------------------------------

 ----------------------------------------------------------------------
 hf stability analysis of h10 triangular lattice, y= 1.2985770417758264
 ----------------------------------------------------------------------
 Symbolic Z-matrix:
 Charge =  0 Multiplicity = 1

                         Standard orientation:
 ---------------------------------------------------------------------
 Center     Atomic      Atomic             Coordinates (Angstroms)
 Number     Number       Type             X           Y           Z
 ---------------------------------------------------------------------
      1          1           0       -0.000000    1.298577    0.889205
      2          1           0        0.000000   -0.000000    1.333807
      3          1           0        0.000000   -0.000000    0.444602
      4          1           0       -0.000000   -1.298577    0.889205
      5          1           0       -0.000000    1.298577    0.000000
      6          1           0       -0.000000   -1.298577   -0.000000
      7          1           0        0.000000    0.000000   -0.444602
      8          1           0        0.000000    1.298577   -0.889205
      9          1           0       -0.000000   -1.298577   -0.889205
     10          1           0        0.000000    0.000000   -1.333807
 ---------------------------------------------------------------------

 SCF Done:  E(RHF) =  -4.94564778266     A.U. after    8 cycles
 E2 =    -0.8909669781D-01 EUMP2 =    -0.50347444804727D+01

 The electronic state is 1-AG.
 Alpha  occ. eigenvalues --   -0.94764  -0.69845  -0.65177  -0.48215  -0.29745
 Alpha virt. eigenvalues --    0.03572   0.11526   0.59841   0.70546   0.79055

 Mulliken charges:
               1
     1  H   -0.077587
     2  H    0.289967
     3  H   -0.053438
     4  H   -0.077587
     5  H   -0.081356
     6  H   -0.081356
     7  H   -0.053438
     8  H   -0.077587
     9  H   -0.077587
    10  H    0.289967
 Sum of Mulliken charges =  -0.00000

 Dipole moment (field-independent basis, Debye):
    X=              0.0000    Y=             -0.0000    Z=             -0.0000  Tot=              0.0000
 Quadrupole moment (field-independent basis, Debye-Ang):
   XX=            -12.6136   YY=            -21.1277   ZZ=            -10.3370
   XY=             -0.0000   XZ=             -0.0000   YZ=              0.0000

 Normal termination of Gaussian 09 at Thu Feb  9 16:24:58 2017.
