 Gaussian 09, Revision E.01,
 Gaussian 09:  ES64L-G09RevE.01 30-Nov-2015

 ----------------------------------------------------------------------
 #rhf/gen scf(symm,tight,novaracc,noincfock,fulldiag) stable(crhf) geom
 =nocrowd test
 ----------------------------------------------------------------------

 hf stability analysis of h10 triangular lattice, y= 0.9510602499003174
 6
 ----------------------------------------------------------------------
 Symbolic Z-matrix:
 Charge =  0 Multiplicity = 1

                         Standard orientation:
 ---------------------------------------------------------------------
 Center     Atomic      Atomic             Coordinates (Angstroms)
 Number     Number       Type             X           Y           Z
 ---------------------------------------------------------------------
      1          1           0        0.000000    0.951060    1.214119
      2          1           0        0.000000    0.000000    1.821179
      3          1           0        0.000000    0.000000    0.607060
      4          1           0       -0.000000   -0.951060    1.214119
      5          1           0       -0.000000    0.951060    0.000000
      6          1           0       -0.000000   -0.951060   -0.000000
      7          1           0        0.000000   -0.000000   -0.607060
      8          1           0        0.000000    0.951060   -1.214119
      9          1           0       -0.000000   -0.951060   -1.214119
     10          1           0        0.000000   -0.000000   -1.821179
 ---------------------------------------------------------------------

 SCF Done:  E(RHF) =  -4.96561473726     A.U. after    8 cycles
 E2 =    -0.9896307651D-01 EUMP2 =    -0.50645778137660D+01

 The electronic state is 1-AG.
 Alpha  occ. eigenvalues --   -0.96113  -0.73624  -0.58698  -0.42668  -0.33383
 Alpha virt. eigenvalues --    0.16728   0.17707   0.23891   0.43778   0.57068

 Mulliken charges:
               1
     1  H   -0.115385
     2  H    0.046578
     3  H    0.098972
     4  H   -0.115385
     5  H    0.085220
     6  H    0.085220
     7  H    0.098972
     8  H   -0.115385
     9  H   -0.115385
    10  H    0.046578
 Sum of Mulliken charges =  -0.00000

 Dipole moment (field-independent basis, Debye):
    X=              0.0000    Y=             -0.0000    Z=             -0.0000  Tot=              0.0000
 Quadrupole moment (field-independent basis, Debye-Ang):
   XX=            -12.8770   YY=            -16.0827   ZZ=            -17.6810
   XY=             -0.0000   XZ=              0.0000   YZ=             -0.0000

 Normal termination of Gaussian 09 at Thu Feb  9 16:15:26 2017.
