 Gaussian 09, Revision E.01,
 Gaussian 09:  ES64L-G09RevE.01 30-Nov-2015

 ----------------------------------------------------------------------
 #rhf/gen scf(symm,tight,novaracc,noincfock,fulldiag) stable(crhf) geom
 =nocrowd test
 ----------------------------------------------------------------------

 ----------------------------------------------------------------------
 hf stability analysis of h10 triangular lattice, y= 1.1835357532360211
 ----------------------------------------------------------------------
 Symbolic Z-matrix:
 Charge =  0 Multiplicity = 1

                         Standard orientation:
 ---------------------------------------------------------------------
 Center     Atomic      Atomic             Coordinates (Angstroms)
 Number     Number       Type             X           Y           Z
 ---------------------------------------------------------------------
      1          1           0        0.000000    1.183536    0.975636
      2          1           0        0.000000    0.000000    1.463455
      3          1           0        0.000000    0.000000    0.487818
      4          1           0       -0.000000   -1.183536    0.975636
      5          1           0       -0.000000    1.183536    0.000000
      6          1           0       -0.000000   -1.183536    0.000000
      7          1           0        0.000000   -0.000000   -0.487818
      8          1           0        0.000000    1.183536   -0.975636
      9          1           0       -0.000000   -1.183536   -0.975636
     10          1           0        0.000000   -0.000000   -1.463455
 ---------------------------------------------------------------------

 SCF Done:  E(RHF) =  -4.86432721394     A.U. after    9 cycles
 E2 =    -0.9891494330D-01 EUMP2 =    -0.49632421572434D+01

 The electronic state is 1-AG.
 Alpha  occ. eigenvalues --   -0.94126  -0.67636  -0.66464  -0.38015  -0.31065
 Alpha virt. eigenvalues --   -0.02231   0.17086   0.49524   0.54347   0.73494

 Mulliken charges:
               1
     1  H   -0.069808
     2  H    0.251642
     3  H   -0.011246
     4  H   -0.069808
     5  H   -0.100780
     6  H   -0.100780
     7  H   -0.011246
     8  H   -0.069808
     9  H   -0.069808
    10  H    0.251642
 Sum of Mulliken charges =  -0.00000

 Dipole moment (field-independent basis, Debye):
    X=              0.0000    Y=              0.0000    Z=              0.0000  Tot=              0.0000
 Quadrupole moment (field-independent basis, Debye-Ang):
   XX=            -12.5893   YY=            -21.0538   ZZ=             -9.6821
   XY=             -0.0000   XZ=             -0.0000   YZ=              0.0000

 Normal termination of Gaussian 09 at Thu Feb  9 16:22:30 2017.
