 Gaussian 09, Revision E.01,
 Gaussian 09:  ES64L-G09RevE.01 30-Nov-2015

 ----------------------------------------------------------------------
 #rhf/gen scf(symm,tight,novaracc,noincfock,fulldiag) stable(crhf) geom
 =nocrowd test
 ----------------------------------------------------------------------

 hf stability analysis of h10 triangular lattice, y= 0.8674200594573238
 1
 ----------------------------------------------------------------------
 Symbolic Z-matrix:
 Charge =  0 Multiplicity = 1

                         Standard orientation:
 ---------------------------------------------------------------------
 Center     Atomic      Atomic             Coordinates (Angstroms)
 Number     Number       Type             X           Y           Z
 ---------------------------------------------------------------------
      1          1           0        0.000000    0.867420    1.331190
      2          1           0        0.000000    0.000000    1.996784
      3          1           0        0.000000    0.000000    0.665595
      4          1           0       -0.000000   -0.867420    1.331190
      5          1           0       -0.000000    0.867420   -0.000000
      6          1           0       -0.000000   -0.867420    0.000000
      7          1           0        0.000000   -0.000000   -0.665595
      8          1           0        0.000000    0.867420   -1.331190
      9          1           0       -0.000000   -0.867420   -1.331190
     10          1           0        0.000000   -0.000000   -1.996784
 ---------------------------------------------------------------------

 SCF Done:  E(RHF) =  -4.95767845017     A.U. after    8 cycles
 E2 =    -0.9645131241D-01 EUMP2 =    -0.50541297625831D+01

 The electronic state is 1-AG.
 Alpha  occ. eigenvalues --   -0.94486  -0.74697  -0.53947  -0.47039  -0.31649
 Alpha virt. eigenvalues --    0.07905   0.19266   0.31474   0.48953   0.50562

 Mulliken charges:
               1
     1  H   -0.151965
     2  H    0.123409
     3  H    0.103995
     4  H   -0.151965
     5  H    0.076526
     6  H    0.076526
     7  H    0.103995
     8  H   -0.151965
     9  H   -0.151965
    10  H    0.123409
 Sum of Mulliken charges =  -0.00000

 Dipole moment (field-independent basis, Debye):
    X=              0.0000    Y=              0.0000    Z=             -0.0000  Tot=              0.0000
 Quadrupole moment (field-independent basis, Debye-Ang):
   XX=            -12.9332   YY=            -17.2051   ZZ=            -15.3385
   XY=             -0.0000   XZ=             -0.0000   YZ=             -0.0000

 Normal termination of Gaussian 09 at Thu Feb  9 16:11:57 2017.
