 Gaussian 09, Revision E.01,
 Gaussian 09:  ES64L-G09RevE.01 30-Nov-2015

 ----------------------------------------------------------------------
 #rhf/gen scf(symm,tight,novaracc,noincfock,fulldiag) stable(crhf) geom
 =nocrowd test
 ----------------------------------------------------------------------

 ----------------------------------------------------------------------
 hf stability analysis of h10 triangular lattice, y= 1.4914551041977033
 ----------------------------------------------------------------------
 Symbolic Z-matrix:
 Charge =  0 Multiplicity = 1

                         Standard orientation:
 ---------------------------------------------------------------------
 Center     Atomic      Atomic             Coordinates (Angstroms)
 Number     Number       Type             X           Y           Z
 ---------------------------------------------------------------------
      1          1           0        0.000000    1.491455    0.774211
      2          1           0        0.000000    0.000000    1.161316
      3          1           0        0.000000    0.000000    0.387105
      4          1           0       -0.000000   -1.491455    0.774211
      5          1           0       -0.000000    1.491455   -0.000000
      6          1           0       -0.000000   -1.491455    0.000000
      7          1           0        0.000000   -0.000000   -0.387105
      8          1           0        0.000000    1.491455   -0.774211
      9          1           0       -0.000000   -1.491455   -0.774211
     10          1           0        0.000000   -0.000000   -1.161316
 ---------------------------------------------------------------------

 SCF Done:  E(RHF) =  -4.90019784955     A.U. after    8 cycles
 E2 =    -0.9140440125D-01 EUMP2 =    -0.49916022508025D+01

 The electronic state is 1-AG.
 Alpha  occ. eigenvalues --   -0.96149  -0.74941  -0.62242  -0.61673  -0.26583
 Alpha virt. eigenvalues --    0.04468   0.14386   0.76532   0.88805   0.99113

 Mulliken charges:
               1
     1  H   -0.016048
     2  H    0.253947
     3  H   -0.080656
     4  H   -0.016048
     5  H   -0.141194
     6  H   -0.141194
     7  H   -0.080656
     8  H   -0.016048
     9  H   -0.016048
    10  H    0.253947
 Sum of Mulliken charges =  -0.00000

 Dipole moment (field-independent basis, Debye):
    X=              0.0000    Y=              0.0000    Z=             -0.0000  Tot=              0.0000
 Quadrupole moment (field-independent basis, Debye-Ang):
   XX=            -12.6007   YY=            -19.8381   ZZ=            -12.1436
   XY=             -0.0000   XZ=             -0.0000   YZ=              0.0000

 Normal termination of Gaussian 09 at Thu Feb  9 16:28:00 2017.
