 Gaussian 09, Revision E.01,
 Gaussian 09:  ES64L-G09RevE.01 30-Nov-2015

 ----------------------------------------------------------------------
 #rhf/gen scf(symm,tight,novaracc,noincfock,fulldiag) stable(crhf) geom
 =nocrowd test
 ----------------------------------------------------------------------

 ----------------------------------------------------------------------
 hf stability analysis of h10 triangular lattice, y= 1.1482009689904107
 ----------------------------------------------------------------------
 Symbolic Z-matrix:
 Charge =  0 Multiplicity = 1

                         Standard orientation:
 ---------------------------------------------------------------------
 Center     Atomic      Atomic             Coordinates (Angstroms)
 Number     Number       Type             X           Y           Z
 ---------------------------------------------------------------------
      1          1           0       -0.000000    1.148201    1.005661
      2          1           0       -0.000000    0.000000    1.508491
      3          1           0       -0.000000    0.000000    0.502830
      4          1           0       -0.000000   -1.148201    1.005661
      5          1           0       -0.000000    1.148201    0.000000
      6          1           0       -0.000000   -1.148201    0.000000
      7          1           0        0.000000   -0.000000   -0.502830
      8          1           0        0.000000    1.148201   -1.005661
      9          1           0       -0.000000   -1.148201   -1.005661
     10          1           0        0.000000   -0.000000   -1.508491
 ---------------------------------------------------------------------

 SCF Done:  E(RHF) =  -4.82855633837     A.U. after   10 cycles
 E2 =    -0.1054952474D+00 EUMP2 =    -0.49340515857673D+01

 The electronic state is 1-AG.
 Alpha  occ. eigenvalues --   -0.94563  -0.68673  -0.65651  -0.34828  -0.31474
 Alpha virt. eigenvalues --   -0.03279   0.19101   0.45330   0.49115   0.71291

 Mulliken charges:
               1
     1  H   -0.019048
     2  H    0.148229
     3  H    0.033629
     4  H   -0.019048
     5  H   -0.143762
     6  H   -0.143762
     7  H    0.033629
     8  H   -0.019048
     9  H   -0.019048
    10  H    0.148229
 Sum of Mulliken charges =  -0.00000

 Dipole moment (field-independent basis, Debye):
    X=              0.0000    Y=             -0.0000    Z=              0.0000  Tot=              0.0000
 Quadrupole moment (field-independent basis, Debye-Ang):
   XX=            -12.5876   YY=            -19.7003   ZZ=            -11.1551
   XY=             -0.0000   XZ=             -0.0000   YZ=              0.0000

 Normal termination of Gaussian 09 at Thu Feb  9 16:21:38 2017.
