 Gaussian 09, Revision E.01,
 Gaussian 09:  ES64L-G09RevE.01 30-Nov-2015

 ----------------------------------------------------------------------
 #rhf/gen scf(symm,tight,novaracc,noincfock,fulldiag) stable(crhf) geom
 =nocrowd test
 ----------------------------------------------------------------------

 ----------------------------------------------------------------------
 hf stability analysis of h10 triangular lattice, y= 1.5689314347387666
 ----------------------------------------------------------------------
 Symbolic Z-matrix:
 Charge =  0 Multiplicity = 1

                         Standard orientation:
 ---------------------------------------------------------------------
 Center     Atomic      Atomic             Coordinates (Angstroms)
 Number     Number       Type             X           Y           Z
 ---------------------------------------------------------------------
      1          1           0       -0.000000    1.568931    0.735979
      2          1           0       -0.000000    0.000000    1.103969
      3          1           0       -0.000000    0.000000    0.367989
      4          1           0       -0.000000   -1.568931    0.735979
      5          1           0       -0.000000    1.568931    0.000000
      6          1           0       -0.000000   -1.568931   -0.000000
      7          1           0        0.000000    0.000000   -0.367989
      8          1           0        0.000000    1.568931   -0.735979
      9          1           0       -0.000000   -1.568931   -0.735979
     10          1           0        0.000000    0.000000   -1.103969
 ---------------------------------------------------------------------

 SCF Done:  E(RHF) =  -4.83101518772     A.U. after    8 cycles
 E2 =    -0.9684992464D-01 EUMP2 =    -0.49278651123637D+01

 The electronic state is 1-AG.
 Alpha  occ. eigenvalues --   -0.96646  -0.76762  -0.66826  -0.60418  -0.25185
 Alpha virt. eigenvalues --    0.02497   0.18721   0.83171   0.93227   1.11146

 Mulliken charges:
               1
     1  H    0.012937
     2  H    0.239677
     3  H   -0.092608
     4  H    0.012937
     5  H   -0.172943
     6  H   -0.172943
     7  H   -0.092608
     8  H    0.012937
     9  H    0.012937
    10  H    0.239677
 Sum of Mulliken charges =  -0.00000

 Dipole moment (field-independent basis, Debye):
    X=              0.0000    Y=             -0.0000    Z=              0.0000  Tot=              0.0000
 Quadrupole moment (field-independent basis, Debye-Ang):
   XX=            -12.5795   YY=            -19.2004   ZZ=            -12.6889
   XY=             -0.0000   XZ=             -0.0000   YZ=              0.0000

 Normal termination of Gaussian 09 at Thu Feb  9 16:28:55 2017.
