 Gaussian 09, Revision E.01,
 Gaussian 09:  ES64L-G09RevE.01 30-Nov-2015

 ----------------------------------------------------------------------
 #rhf/gen scf(symm,tight,novaracc,noincfock,fulldiag) stable(crhf) geom
 =nocrowd test
 ----------------------------------------------------------------------

 hf stability analysis of h10 triangular lattice, y= 0.8071117745454875
 5
 ----------------------------------------------------------------------
 Symbolic Z-matrix:
 Charge =  0 Multiplicity = 1

                         Standard orientation:
 ---------------------------------------------------------------------
 Center     Atomic      Atomic             Coordinates (Angstroms)
 Number     Number       Type             X           Y           Z
 ---------------------------------------------------------------------
      1          1           0       -0.000000    0.807112    1.430658
      2          1           0       -0.000000    0.000000    2.145986
      3          1           0       -0.000000    0.000000    0.715329
      4          1           0       -0.000000   -0.807112    1.430658
      5          1           0       -0.000000    0.807112   -0.000000
      6          1           0       -0.000000   -0.807112   -0.000000
      7          1           0        0.000000   -0.000000   -0.715329
      8          1           0        0.000000    0.807112   -1.430658
      9          1           0       -0.000000   -0.807112   -1.430658
     10          1           0        0.000000   -0.000000   -2.145986
 ---------------------------------------------------------------------

 SCF Done:  E(RHF) =  -4.91402637712     A.U. after    8 cycles
 E2 =    -0.9640988259D-01 EUMP2 =    -0.50104362597163D+01

 The electronic state is 1-AG.
 Alpha  occ. eigenvalues --   -0.92772  -0.74923  -0.49927  -0.49887  -0.29689
 Alpha virt. eigenvalues --    0.02093   0.16665   0.40335   0.43806   0.54173

 Mulliken charges:
               1
     1  H   -0.182071
     2  H    0.181123
     3  H    0.123176
     4  H   -0.182071
     5  H    0.059844
     6  H    0.059844
     7  H    0.123176
     8  H   -0.182071
     9  H   -0.182071
    10  H    0.181123
 Sum of Mulliken charges =  -0.00000

 Dipole moment (field-independent basis, Debye):
    X=              0.0000    Y=             -0.0000    Z=              0.0000  Tot=              0.0000
 Quadrupole moment (field-independent basis, Debye-Ang):
   XX=            -12.9727   YY=            -17.9829   ZZ=            -13.1580
   XY=             -0.0000   XZ=             -0.0000   YZ=             -0.0000

 Normal termination of Gaussian 09 at Thu Feb  9 16:09:07 2017.
