 Gaussian 09, Revision E.01,
 Gaussian 09:  ES64L-G09RevE.01 30-Nov-2015

 ----------------------------------------------------------------------
 #rhf/gen scf(symm,tight,novaracc,noincfock,fulldiag) stable(crhf) geom
 =nocrowd test
 ----------------------------------------------------------------------

 ----------------------------------------------------------------------
 hf stability analysis of h10 triangular lattice, y= 1.1791580991657851
 ----------------------------------------------------------------------
 Symbolic Z-matrix:
 Charge =  0 Multiplicity = 1

                         Standard orientation:
 ---------------------------------------------------------------------
 Center     Atomic      Atomic             Coordinates (Angstroms)
 Number     Number       Type             X           Y           Z
 ---------------------------------------------------------------------
      1          1           0        0.000000    1.179158    0.979258
      2          1           0       -0.000000   -0.000000    1.468888
      3          1           0       -0.000000   -0.000000    0.489629
      4          1           0       -0.000000   -1.179158    0.979258
      5          1           0       -0.000000    1.179158    0.000000
      6          1           0       -0.000000   -1.179158   -0.000000
      7          1           0        0.000000    0.000000   -0.489629
      8          1           0        0.000000    1.179158   -0.979258
      9          1           0       -0.000000   -1.179158   -0.979258
     10          1           0        0.000000    0.000000   -1.468888
 ---------------------------------------------------------------------

 SCF Done:  E(RHF) =  -4.85977826736     A.U. after    9 cycles
 E2 =    -0.9963286921D-01 EUMP2 =    -0.49594111365758D+01

 The electronic state is 1-AG.
 Alpha  occ. eigenvalues --   -0.94139  -0.67749  -0.66346  -0.37614  -0.31106
 Alpha virt. eigenvalues --   -0.02400   0.17313   0.49079   0.53721   0.73255

 Mulliken charges:
               1
     1  H   -0.066172
     2  H    0.244495
     3  H   -0.007420
     4  H   -0.066172
     5  H   -0.104730
     6  H   -0.104730
     7  H   -0.007420
     8  H   -0.066172
     9  H   -0.066172
    10  H    0.244495
 Sum of Mulliken charges =  -0.00000

 Dipole moment (field-independent basis, Debye):
    X=              0.0000    Y=             -0.0000    Z=              0.0000  Tot=              0.0000
 Quadrupole moment (field-independent basis, Debye-Ang):
   XX=            -12.5882   YY=            -20.9754   ZZ=             -9.7459
   XY=             -0.0000   XZ=             -0.0000   YZ=              0.0000

 Normal termination of Gaussian 09 at Thu Feb  9 16:22:24 2017.
