 Gaussian 09, Revision E.01,
 Gaussian 09:  ES64L-G09RevE.01 30-Nov-2015

 ----------------------------------------------------------------------
 #rhf/gen scf(symm,tight,novaracc,noincfock,fulldiag) stable(crhf) geom
 =nocrowd test
 ----------------------------------------------------------------------

 ----------------------------------------------------------------------
 hf stability analysis of h10 triangular lattice, y= 1.6998107010233166
 ----------------------------------------------------------------------
 Symbolic Z-matrix:
 Charge =  0 Multiplicity = 1

                         Standard orientation:
 ---------------------------------------------------------------------
 Center     Atomic      Atomic             Coordinates (Angstroms)
 Number     Number       Type             X           Y           Z
 ---------------------------------------------------------------------
      1          1           0       -0.000000    1.699811    0.679311
      2          1           0       -0.000000    0.000000    1.018967
      3          1           0       -0.000000    0.000000    0.339656
      4          1           0       -0.000000   -1.699811    0.679311
      5          1           0       -0.000000    1.699811   -0.000000
      6          1           0       -0.000000   -1.699811    0.000000
      7          1           0        0.000000   -0.000000   -0.339656
      8          1           0        0.000000    1.699811   -0.679311
      9          1           0       -0.000000   -1.699811   -0.679311
     10          1           0        0.000000   -0.000000   -1.018967
 ---------------------------------------------------------------------

 SCF Done:  E(RHF) =  -4.66481517918     A.U. after    7 cycles
 E2 =    -0.1114458277D+00 EUMP2 =    -0.47762610068702D+01

 The electronic state is 1-AG.
 Alpha  occ. eigenvalues --   -0.97528  -0.79647  -0.73416  -0.58540  -0.22829
 Alpha virt. eigenvalues --    0.00128   0.25919   0.94259   1.01358   1.32098

 Mulliken charges:
               1
     1  H    0.063165
     2  H    0.222290
     3  H   -0.116184
     4  H    0.063165
     5  H   -0.232436
     6  H   -0.232436
     7  H   -0.116184
     8  H    0.063165
     9  H    0.063165
    10  H    0.222290
 Sum of Mulliken charges =  -0.00000

 Dipole moment (field-independent basis, Debye):
    X=              0.0000    Y=              0.0000    Z=             -0.0000  Tot=              0.0000
 Quadrupole moment (field-independent basis, Debye-Ang):
   XX=            -12.5279   YY=            -18.0512   ZZ=            -13.3984
   XY=             -0.0000   XZ=              0.0000   YZ=              0.0000

 Normal termination of Gaussian 09 at Thu Feb  9 16:30:15 2017.
