 Gaussian 09, Revision E.01,
 Gaussian 09:  ES64L-G09RevE.01 30-Nov-2015

 ----------------------------------------------------------------------
 #rhf/gen scf(symm,tight,novaracc,noincfock,fulldiag) stable(crhf) geom
 =nocrowd test
 ----------------------------------------------------------------------

 hf stability analysis of h10 triangular lattice, y= 0.8729323240483911
 6
 ----------------------------------------------------------------------
 Symbolic Z-matrix:
 Charge =  0 Multiplicity = 1

                         Standard orientation:
 ---------------------------------------------------------------------
 Center     Atomic      Atomic             Coordinates (Angstroms)
 Number     Number       Type             X           Y           Z
 ---------------------------------------------------------------------
      1          1           0       -0.000000    0.872932    1.322784
      2          1           0        0.000000   -0.000000    1.984175
      3          1           0        0.000000   -0.000000    0.661392
      4          1           0       -0.000000   -0.872932    1.322784
      5          1           0       -0.000000    0.872932    0.000000
      6          1           0       -0.000000   -0.872932   -0.000000
      7          1           0        0.000000    0.000000   -0.661392
      8          1           0        0.000000    0.872932   -1.322784
      9          1           0       -0.000000   -0.872932   -1.322784
     10          1           0        0.000000    0.000000   -1.984175
 ---------------------------------------------------------------------

 SCF Done:  E(RHF) =  -4.96007156563     A.U. after    8 cycles
 E2 =    -0.9652965793D-01 EUMP2 =    -0.50566012235612D+01

 The electronic state is 1-AG.
 Alpha  occ. eigenvalues --   -0.94618  -0.74651  -0.54288  -0.46765  -0.31796
 Alpha virt. eigenvalues --    0.08467   0.19537   0.30509   0.49561   0.50148

 Mulliken charges:
               1
     1  H   -0.149408
     2  H    0.118244
     3  H    0.103013
     4  H   -0.149408
     5  H    0.077558
     6  H    0.077558
     7  H    0.103013
     8  H   -0.149408
     9  H   -0.149408
    10  H    0.118244
 Sum of Mulliken charges =  -0.00000

 Dipole moment (field-independent basis, Debye):
    X=              0.0000    Y=             -0.0000    Z=             -0.0000  Tot=              0.0000
 Quadrupole moment (field-independent basis, Debye-Ang):
   XX=            -12.9296   YY=            -17.1326   ZZ=            -15.5151
   XY=             -0.0000   XZ=             -0.0000   YZ=              0.0000

 Normal termination of Gaussian 09 at Thu Feb  9 16:12:11 2017.
