 Gaussian 09, Revision E.01,
 Gaussian 09:  ES64L-G09RevE.01 30-Nov-2015

 ----------------------------------------------------------------------
 #rhf/gen scf(symm,tight,novaracc,noincfock,fulldiag) stable(crhf) geom
 =nocrowd test
 ----------------------------------------------------------------------

 ----------------------------------------------------------------------
 hf stability analysis of h10 triangular lattice, y= 1.2967315002879742
 ----------------------------------------------------------------------
 Symbolic Z-matrix:
 Charge =  0 Multiplicity = 1

                         Standard orientation:
 ---------------------------------------------------------------------
 Center     Atomic      Atomic             Coordinates (Angstroms)
 Number     Number       Type             X           Y           Z
 ---------------------------------------------------------------------
      1          1           0        0.000000    1.296731    0.890470
      2          1           0        0.000000    0.000000    1.335705
      3          1           0        0.000000    0.000000    0.445235
      4          1           0       -0.000000   -1.296731    0.890470
      5          1           0       -0.000000    1.296731   -0.000000
      6          1           0       -0.000000   -1.296731   -0.000000
      7          1           0        0.000000    0.000000   -0.445235
      8          1           0        0.000000    1.296731   -0.890470
      9          1           0       -0.000000   -1.296731   -0.890470
     10          1           0        0.000000    0.000000   -1.335705
 ---------------------------------------------------------------------

 SCF Done:  E(RHF) =  -4.94502954628     A.U. after    8 cycles
 E2 =    -0.8916372003D-01 EUMP2 =    -0.50341932663058D+01

 The electronic state is 1-AG.
 Alpha  occ. eigenvalues --   -0.94750  -0.69792  -0.65213  -0.48061  -0.29771
 Alpha virt. eigenvalues --    0.03470   0.11609   0.59681   0.70282   0.78968

 Mulliken charges:
               1
     1  H   -0.077996
     2  H    0.290153
     3  H   -0.053115
     4  H   -0.077996
     5  H   -0.081045
     6  H   -0.081045
     7  H   -0.053115
     8  H   -0.077996
     9  H   -0.077996
    10  H    0.290153
 Sum of Mulliken charges =  -0.00000

 Dipole moment (field-independent basis, Debye):
    X=              0.0000    Y=              0.0000    Z=              0.0000  Tot=              0.0000
 Quadrupole moment (field-independent basis, Debye-Ang):
   XX=            -12.6134   YY=            -21.1365   ZZ=            -10.3176
   XY=             -0.0000   XZ=             -0.0000   YZ=             -0.0000

 Normal termination of Gaussian 09 at Thu Feb  9 16:24:56 2017.
