 Gaussian 09, Revision E.01,
 Gaussian 09:  ES64L-G09RevE.01 30-Nov-2015

 ----------------------------------------------------------------------
 #rhf/gen scf(symm,tight,novaracc,noincfock,fulldiag) stable(crhf) geom
 =nocrowd test
 ----------------------------------------------------------------------

 hf stability analysis of h10 triangular lattice, y= 0.7793188866684501
 7
 ----------------------------------------------------------------------
 Symbolic Z-matrix:
 Charge =  0 Multiplicity = 1

                         Standard orientation:
 ---------------------------------------------------------------------
 Center     Atomic      Atomic             Coordinates (Angstroms)
 Number     Number       Type             X           Y           Z
 ---------------------------------------------------------------------
      1          1           0       -0.000000    0.779319    1.481679
      2          1           0       -0.000000   -0.000000    2.222519
      3          1           0       -0.000000   -0.000000    0.740840
      4          1           0       -0.000000   -0.779319    1.481679
      5          1           0       -0.000000    0.779319    0.000000
      6          1           0       -0.000000   -0.779319   -0.000000
      7          1           0        0.000000    0.000000   -0.740840
      8          1           0        0.000000    0.779319   -1.481679
      9          1           0       -0.000000   -0.779319   -1.481679
     10          1           0        0.000000    0.000000   -2.222519
 ---------------------------------------------------------------------

 SCF Done:  E(RHF) =  -4.88304831348     A.U. after    8 cycles
 E2 =    -0.9691041975D-01 EUMP2 =    -0.49799587332256D+01

 The electronic state is 1-AG.
 Alpha  occ. eigenvalues --   -0.91800  -0.74833  -0.51089  -0.47869  -0.28542
 Alpha virt. eigenvalues --   -0.00337   0.15717   0.37332   0.48310   0.55008

 Mulliken charges:
               1
     1  H   -0.197513
     2  H    0.208489
     3  H    0.138342
     4  H   -0.197513
     5  H    0.048196
     6  H    0.048196
     7  H    0.138342
     8  H   -0.197513
     9  H   -0.197513
    10  H    0.208489
 Sum of Mulliken charges =  -0.00000

 Dipole moment (field-independent basis, Debye):
    X=              0.0000    Y=             -0.0000    Z=              0.0000  Tot=              0.0000
 Quadrupole moment (field-independent basis, Debye-Ang):
   XX=            -12.9906   YY=            -18.3298   ZZ=            -11.9782
   XY=             -0.0000   XZ=             -0.0000   YZ=             -0.0000

 Normal termination of Gaussian 09 at Thu Feb  9 16:07:41 2017.
