 Gaussian 09, Revision E.01,
 Gaussian 09:  ES64L-G09RevE.01 30-Nov-2015

 ----------------------------------------------------------------------
 #rhf/gen scf(symm,tight,novaracc,noincfock,fulldiag) stable(crhf) geom
 =nocrowd test
 ----------------------------------------------------------------------

 ----------------------------------------------------------------------
 hf stability analysis of h10 triangular lattice, y= 1.1806129676413906
 ----------------------------------------------------------------------
 Symbolic Z-matrix:
 Charge =  0 Multiplicity = 1

                         Standard orientation:
 ---------------------------------------------------------------------
 Center     Atomic      Atomic             Coordinates (Angstroms)
 Number     Number       Type             X           Y           Z
 ---------------------------------------------------------------------
      1          1           0       -0.000000    1.180613    0.978052
      2          1           0       -0.000000    0.000000    1.467078
      3          1           0       -0.000000    0.000000    0.489026
      4          1           0       -0.000000   -1.180613    0.978052
      5          1           0       -0.000000    1.180613    0.000000
      6          1           0       -0.000000   -1.180613   -0.000000
      7          1           0        0.000000   -0.000000   -0.489026
      8          1           0        0.000000    1.180613   -0.978052
      9          1           0       -0.000000   -1.180613   -0.978052
     10          1           0        0.000000   -0.000000   -1.467078
 ---------------------------------------------------------------------

 SCF Done:  E(RHF) =  -4.86129460470     A.U. after    9 cycles
 E2 =    -0.9939034381D-01 EUMP2 =    -0.49606849485071D+01

 The electronic state is 1-AG.
 Alpha  occ. eigenvalues --   -0.94134  -0.67711  -0.66385  -0.37747  -0.31092
 Alpha virt. eigenvalues --   -0.02345   0.17237   0.49228   0.53929   0.73335

 Mulliken charges:
               1
     1  H   -0.067443
     2  H    0.246988
     3  H   -0.008732
     4  H   -0.067443
     5  H   -0.103371
     6  H   -0.103371
     7  H   -0.008732
     8  H   -0.067443
     9  H   -0.067443
    10  H    0.246988
 Sum of Mulliken charges =  -0.00000

 Dipole moment (field-independent basis, Debye):
    X=              0.0000    Y=             -0.0000    Z=              0.0000  Tot=              0.0000
 Quadrupole moment (field-independent basis, Debye-Ang):
   XX=            -12.5885   YY=            -21.0031   ZZ=             -9.7226
   XY=             -0.0000   XZ=             -0.0000   YZ=             -0.0000

 Normal termination of Gaussian 09 at Thu Feb  9 16:22:26 2017.
