 Gaussian 09, Revision E.01,
 Gaussian 09:  ES64L-G09RevE.01 30-Nov-2015

 ----------------------------------------------------------------------
 #rhf/gen scf(symm,tight,novaracc,noincfock,fulldiag) stable(crhf) geom
 =nocrowd test
 ----------------------------------------------------------------------

 ----------------------------------------------------------------------
 hf stability analysis of h10 triangular lattice, y= 1.1152554799229231
 ----------------------------------------------------------------------
 Symbolic Z-matrix:
 Charge =  0 Multiplicity = 1

                         Standard orientation:
 ---------------------------------------------------------------------
 Center     Atomic      Atomic             Coordinates (Angstroms)
 Number     Number       Type             X           Y           Z
 ---------------------------------------------------------------------
      1          1           0        0.000000    1.115255    1.035369
      2          1           0        0.000000    0.000000    1.553053
      3          1           0        0.000000    0.000000    0.517684
      4          1           0       -0.000000   -1.115255    1.035369
      5          1           0       -0.000000    1.115255   -0.000000
      6          1           0       -0.000000   -1.115255    0.000000
      7          1           0        0.000000   -0.000000   -0.517684
      8          1           0        0.000000    1.115255   -1.035369
      9          1           0       -0.000000   -1.115255   -1.035369
     10          1           0        0.000000   -0.000000   -1.553053
 ---------------------------------------------------------------------

 SCF Done:  E(RHF) =  -4.82021863233     A.U. after   12 cycles
 E2 =    -0.1112916759D+00 EUMP2 =    -0.49315103082525D+01

 The electronic state is 1-AG.
 Alpha  occ. eigenvalues --   -0.97118  -0.70249  -0.65739  -0.33351  -0.32779
 Alpha virt. eigenvalues --   -0.03512   0.23140   0.36971   0.42905   0.67507

 Mulliken charges:
               1
     1  H    0.031858
     2  H   -0.120220
     3  H    0.130389
     4  H    0.031858
     5  H   -0.073886
     6  H   -0.073886
     7  H    0.130389
     8  H    0.031858
     9  H    0.031858
    10  H   -0.120220
 Sum of Mulliken charges =  -0.00000

 Dipole moment (field-independent basis, Debye):
    X=             -0.0000    Y=              0.0000    Z=              0.0000  Tot=              0.0000
 Quadrupole moment (field-independent basis, Debye-Ang):
   XX=            -12.6973   YY=            -14.5698   ZZ=            -18.8200
   XY=             -0.0000   XZ=              0.0000   YZ=              0.0000

 Normal termination of Gaussian 09 at Thu Feb  9 16:20:45 2017.
