 Gaussian 09, Revision E.01,
 Gaussian 09:  ES64L-G09RevE.01 30-Nov-2015

 ----------------------------------------------------------------------
 #rhf/gen scf(symm,tight,novaracc,noincfock,fulldiag) stable(crhf) geom
 =nocrowd test
 ----------------------------------------------------------------------

 hf stability analysis of h10 triangular lattice, y= 0.8028687256160738
 1
 ----------------------------------------------------------------------
 Symbolic Z-matrix:
 Charge =  0 Multiplicity = 1

                         Standard orientation:
 ---------------------------------------------------------------------
 Center     Atomic      Atomic             Coordinates (Angstroms)
 Number     Number       Type             X           Y           Z
 ---------------------------------------------------------------------
      1          1           0        0.000000    0.802869    1.438218
      2          1           0        0.000000    0.000000    2.157328
      3          1           0        0.000000    0.000000    0.719109
      4          1           0       -0.000000   -0.802869    1.438218
      5          1           0       -0.000000    0.802869    0.000000
      6          1           0       -0.000000   -0.802869    0.000000
      7          1           0        0.000000   -0.000000   -0.719109
      8          1           0        0.000000    0.802869   -1.438218
      9          1           0       -0.000000   -0.802869   -1.438218
     10          1           0        0.000000   -0.000000   -2.157328
 ---------------------------------------------------------------------

 SCF Done:  E(RHF) =  -4.90974338884     A.U. after    8 cycles
 E2 =    -0.9646443847D-01 EUMP2 =    -0.50062078273161D+01

 The electronic state is 1-AG.
 Alpha  occ. eigenvalues --   -0.92631  -0.74918  -0.50076  -0.49622  -0.29525
 Alpha virt. eigenvalues --    0.01711   0.16509   0.40076   0.44307   0.54342

 Mulliken charges:
               1
     1  H   -0.184359
     2  H    0.185270
     3  H    0.125201
     4  H   -0.184359
     5  H    0.058246
     6  H    0.058246
     7  H    0.125201
     8  H   -0.184359
     9  H   -0.184359
    10  H    0.185270
 Sum of Mulliken charges =   0.00000

 Dipole moment (field-independent basis, Debye):
    X=              0.0000    Y=              0.0000    Z=              0.0000  Tot=              0.0000
 Quadrupole moment (field-independent basis, Debye-Ang):
   XX=            -12.9755   YY=            -18.0364   ZZ=            -12.9857
   XY=             -0.0000   XZ=             -0.0000   YZ=             -0.0000

 Normal termination of Gaussian 09 at Thu Feb  9 16:08:54 2017.
