 Gaussian 09, Revision E.01,
 Gaussian 09:  ES64L-G09RevE.01 30-Nov-2015

 ----------------------------------------------------------------------
 #rhf/gen scf(symm,tight,novaracc,noincfock,fulldiag) stable(crhf) geom
 =nocrowd test
 ----------------------------------------------------------------------

 ----------------------------------------------------------------------
 hf stability analysis of h10 triangular lattice, y= 1.6624140235022404
 ----------------------------------------------------------------------
 Symbolic Z-matrix:
 Charge =  0 Multiplicity = 1

                         Standard orientation:
 ---------------------------------------------------------------------
 Center     Atomic      Atomic             Coordinates (Angstroms)
 Number     Number       Type             X           Y           Z
 ---------------------------------------------------------------------
      1          1           0        0.000000    1.662414    0.694593
      2          1           0        0.000000    0.000000    1.041889
      3          1           0        0.000000    0.000000    0.347296
      4          1           0       -0.000000   -1.662414    0.694593
      5          1           0       -0.000000    1.662414    0.000000
      6          1           0       -0.000000   -1.662414    0.000000
      7          1           0        0.000000    0.000000   -0.347296
      8          1           0        0.000000    1.662414   -0.694593
      9          1           0       -0.000000   -1.662414   -0.694593
     10          1           0        0.000000    0.000000   -1.041889
 ---------------------------------------------------------------------

 SCF Done:  E(RHF) =  -4.71788403694     A.U. after    7 cycles
 E2 =    -0.1066087611D+00 EUMP2 =    -0.48244927980048D+01

 The electronic state is 1-AG.
 Alpha  occ. eigenvalues --   -0.97262  -0.78843  -0.71670  -0.59044  -0.23496
 Alpha virt. eigenvalues --    0.00693   0.23883   0.91107   0.98956   1.26038

 Mulliken charges:
               1
     1  H    0.048764
     2  H    0.226235
     3  H   -0.109012
     4  H    0.048764
     5  H   -0.214752
     6  H   -0.214752
     7  H   -0.109012
     8  H    0.048764
     9  H    0.048764
    10  H    0.226235
 Sum of Mulliken charges =  -0.00000

 Dipole moment (field-independent basis, Debye):
    X=              0.0000    Y=             -0.0000    Z=              0.0000  Tot=              0.0000
 Quadrupole moment (field-independent basis, Debye-Ang):
   XX=            -12.5444   YY=            -18.3845   ZZ=            -13.2199
   XY=             -0.0000   XZ=             -0.0000   YZ=             -0.0000

 Normal termination of Gaussian 09 at Thu Feb  9 16:29:55 2017.
