 Gaussian 09, Revision E.01,
 Gaussian 09:  ES64L-G09RevE.01 30-Nov-2015

 ----------------------------------------------------------------------
 #rhf/gen scf(symm,tight,novaracc,noincfock,fulldiag) stable(crhf) geom
 =nocrowd test
 ----------------------------------------------------------------------

 ----------------------------------------------------------------------
 hf stability analysis of h10 triangular lattice, y= 1.0904155379174589
 ----------------------------------------------------------------------
 Symbolic Z-matrix:
 Charge =  0 Multiplicity = 1

                         Standard orientation:
 ---------------------------------------------------------------------
 Center     Atomic      Atomic             Coordinates (Angstroms)
 Number     Number       Type             X           Y           Z
 ---------------------------------------------------------------------
      1          1           0       -0.000000    1.090416    1.058955
      2          1           0        0.000000    0.000000    1.588432
      3          1           0        0.000000    0.000000    0.529477
      4          1           0       -0.000000   -1.090416    1.058955
      5          1           0       -0.000000    1.090416   -0.000000
      6          1           0       -0.000000   -1.090416    0.000000
      7          1           0        0.000000   -0.000000   -0.529477
      8          1           0        0.000000    1.090416   -1.058955
      9          1           0       -0.000000   -1.090416   -1.058955
     10          1           0        0.000000   -0.000000   -1.588432
 ---------------------------------------------------------------------

 SCF Done:  E(RHF) =  -4.85161959582     A.U. after   11 cycles
 E2 =    -0.1098057680D+00 EUMP2 =    -0.49614253638692D+01

 The electronic state is 1-AG.
 Alpha  occ. eigenvalues --   -0.97466  -0.70721  -0.65030  -0.34562  -0.34255
 Alpha virt. eigenvalues --   -0.01057   0.25071   0.33592   0.40364   0.65729

 Mulliken charges:
               1
     1  H   -0.039399
     2  H   -0.092496
     3  H    0.125554
     4  H   -0.039399
     5  H    0.045741
     6  H    0.045741
     7  H    0.125554
     8  H   -0.039399
     9  H   -0.039399
    10  H   -0.092496
 Sum of Mulliken charges =  -0.00000

 Dipole moment (field-independent basis, Debye):
    X=             -0.0000    Y=              0.0000    Z=             -0.0000  Tot=              0.0000
 Quadrupole moment (field-independent basis, Debye-Ang):
   XX=            -12.7677   YY=            -14.0980   ZZ=            -20.2573
   XY=             -0.0000   XZ=              0.0000   YZ=              0.0000

 Normal termination of Gaussian 09 at Thu Feb  9 16:20:03 2017.
