 Gaussian 09, Revision E.01,
 Gaussian 09:  ES64L-G09RevE.01 30-Nov-2015

 ----------------------------------------------------------------------
 #rhf/gen scf(symm,tight,novaracc,noincfock,fulldiag) stable(crhf) geom
 =nocrowd test
 ----------------------------------------------------------------------

 ----------------------------------------------------------------------
 hf stability analysis of h10 triangular lattice, y= 1.2459728127807141
 ----------------------------------------------------------------------
 Symbolic Z-matrix:
 Charge =  0 Multiplicity = 1

                         Standard orientation:
 ---------------------------------------------------------------------
 Center     Atomic      Atomic             Coordinates (Angstroms)
 Number     Number       Type             X           Y           Z
 ---------------------------------------------------------------------
      1          1           0       -0.000000    1.245973    0.926746
      2          1           0        0.000000    0.000000    1.390119
      3          1           0        0.000000    0.000000    0.463373
      4          1           0       -0.000000   -1.245973    0.926746
      5          1           0       -0.000000    1.245973   -0.000000
      6          1           0       -0.000000   -1.245973    0.000000
      7          1           0        0.000000   -0.000000   -0.463373
      8          1           0        0.000000    1.245973   -0.926746
      9          1           0       -0.000000   -1.245973   -0.926746
     10          1           0        0.000000   -0.000000   -1.390119
 ---------------------------------------------------------------------

 SCF Done:  E(RHF) =  -4.91909009761     A.U. after    9 cycles
 E2 =    -0.9192413804D-01 EUMP2 =    -0.50110142356513D+01

 The electronic state is 1-AG.
 Alpha  occ. eigenvalues --   -0.94369  -0.68293  -0.66230  -0.43689  -0.30424
 Alpha virt. eigenvalues --    0.00737   0.13977   0.55252   0.63112   0.76585

 Mulliken charges:
               1
     1  H   -0.085512
     2  H    0.290315
     3  H   -0.041893
     4  H   -0.085512
     5  H   -0.077399
     6  H   -0.077399
     7  H   -0.041893
     8  H   -0.085512
     9  H   -0.085512
    10  H    0.290315
 Sum of Mulliken charges =  -0.00000

 Dipole moment (field-independent basis, Debye):
    X=              0.0000    Y=             -0.0000    Z=             -0.0000  Tot=              0.0000
 Quadrupole moment (field-independent basis, Debye-Ang):
   XX=            -12.6053   YY=            -21.3168   ZZ=             -9.8126
   XY=             -0.0000   XZ=             -0.0000   YZ=             -0.0000

 Normal termination of Gaussian 09 at Thu Feb  9 16:23:55 2017.
