 Gaussian 09, Revision E.01,
 Gaussian 09:  ES64L-G09RevE.01 30-Nov-2015

 ----------------------------------------------------------------------
 #rhf/gen scf(symm,tight,novaracc,noincfock,fulldiag) stable(crhf) geom
 =nocrowd test
 ----------------------------------------------------------------------

 ----------------------------------------------------------------------
 hf stability analysis of h10 triangular lattice, y= 1.1495662960871658
 ----------------------------------------------------------------------
 Symbolic Z-matrix:
 Charge =  0 Multiplicity = 1

                         Standard orientation:
 ---------------------------------------------------------------------
 Center     Atomic      Atomic             Coordinates (Angstroms)
 Number     Number       Type             X           Y           Z
 ---------------------------------------------------------------------
      1          1           0       -0.000000    1.149566    1.004466
      2          1           0       -0.000000   -0.000000    1.506699
      3          1           0       -0.000000   -0.000000    0.502233
      4          1           0       -0.000000   -1.149566    1.004466
      5          1           0       -0.000000    1.149566    0.000000
      6          1           0       -0.000000   -1.149566   -0.000000
      7          1           0        0.000000    0.000000   -0.502233
      8          1           0        0.000000    1.149566   -1.004466
      9          1           0       -0.000000   -1.149566   -1.004466
     10          1           0        0.000000    0.000000   -1.506699
 ---------------------------------------------------------------------

 SCF Done:  E(RHF) =  -4.82977832338     A.U. after   10 cycles
 E2 =    -0.1052278726D+00 EUMP2 =    -0.49350061959449D+01

 The electronic state is 1-AG.
 Alpha  occ. eigenvalues --   -0.94525  -0.68626  -0.65674  -0.34947  -0.31451
 Alpha virt. eigenvalues --   -0.03255   0.19009   0.45532   0.49329   0.71393

 Mulliken charges:
               1
     1  H   -0.022118
     2  H    0.154934
     3  H    0.031124
     4  H   -0.022118
     5  H   -0.141822
     6  H   -0.141822
     7  H    0.031124
     8  H   -0.022118
     9  H   -0.022118
    10  H    0.154934
 Sum of Mulliken charges =  -0.00000

 Dipole moment (field-independent basis, Debye):
    X=              0.0000    Y=              0.0000    Z=              0.0000  Tot=              0.0000
 Quadrupole moment (field-independent basis, Debye-Ang):
   XX=            -12.5870   YY=            -19.7983   ZZ=            -11.0352
   XY=             -0.0000   XZ=             -0.0000   YZ=             -0.0000

 Normal termination of Gaussian 09 at Thu Feb  9 16:21:40 2017.
