 Gaussian 09, Revision E.01,
 Gaussian 09:  ES64L-G09RevE.01 30-Nov-2015

 ----------------------------------------------------------------------
 #rhf/gen scf(symm,tight,novaracc,noincfock,fulldiag) stable(crhf) geom
 =nocrowd test
 ----------------------------------------------------------------------

 hf stability analysis of h10 triangular lattice, y= 0.8857377402267238
 0
 ----------------------------------------------------------------------
 Symbolic Z-matrix:
 Charge =  0 Multiplicity = 1

                         Standard orientation:
 ---------------------------------------------------------------------
 Center     Atomic      Atomic             Coordinates (Angstroms)
 Number     Number       Type             X           Y           Z
 ---------------------------------------------------------------------
      1          1           0        0.000000    0.885738    1.303660
      2          1           0        0.000000    0.000000    1.955489
      3          1           0        0.000000    0.000000    0.651830
      4          1           0       -0.000000   -0.885738    1.303660
      5          1           0       -0.000000    0.885738    0.000000
      6          1           0       -0.000000   -0.885738    0.000000
      7          1           0        0.000000    0.000000   -0.651830
      8          1           0        0.000000    0.885738   -1.303660
      9          1           0       -0.000000   -0.885738   -1.303660
     10          1           0        0.000000    0.000000   -1.955489
 ---------------------------------------------------------------------

 SCF Done:  E(RHF) =  -4.96460461545     A.U. after    8 cycles
 E2 =    -0.9675920601D-01 EUMP2 =    -0.50613638214619D+01

 The electronic state is 1-AG.
 Alpha  occ. eigenvalues --   -0.94911  -0.74529  -0.55063  -0.46119  -0.32119
 Alpha virt. eigenvalues --    0.09788   0.20187   0.28294   0.49153   0.50938

 Mulliken charges:
               1
     1  H   -0.143568
     2  H    0.106312
     3  H    0.101143
     4  H   -0.143568
     5  H    0.079682
     6  H    0.079682
     7  H    0.101143
     8  H   -0.143568
     9  H   -0.143568
    10  H    0.106312
 Sum of Mulliken charges =   0.00000

 Dipole moment (field-independent basis, Debye):
    X=              0.0000    Y=              0.0000    Z=              0.0000  Tot=              0.0000
 Quadrupole moment (field-independent basis, Debye-Ang):
   XX=            -12.9211   YY=            -16.9634   ZZ=            -15.9122
   XY=             -0.0000   XZ=             -0.0000   YZ=             -0.0000

 Normal termination of Gaussian 09 at Thu Feb  9 16:12:45 2017.
