 Gaussian 09, Revision E.01,
 Gaussian 09:  ES64L-G09RevE.01 30-Nov-2015

 ----------------------------------------------------------------------
 #rhf/gen scf(symm,tight,novaracc,noincfock,fulldiag) stable(crhf) geom
 =nocrowd test
 ----------------------------------------------------------------------

 ----------------------------------------------------------------------
 hf stability analysis of h10 triangular lattice, y= 1.6375832695042820
 ----------------------------------------------------------------------
 Symbolic Z-matrix:
 Charge =  0 Multiplicity = 1

                         Standard orientation:
 ---------------------------------------------------------------------
 Center     Atomic      Atomic             Coordinates (Angstroms)
 Number     Number       Type             X           Y           Z
 ---------------------------------------------------------------------
      1          1           0       -0.000000    1.637583    0.705125
      2          1           0       -0.000000    0.000000    1.057687
      3          1           0       -0.000000    0.000000    0.352562
      4          1           0       -0.000000   -1.637583    0.705125
      5          1           0       -0.000000    1.637583    0.000000
      6          1           0       -0.000000   -1.637583    0.000000
      7          1           0        0.000000    0.000000   -0.352562
      8          1           0        0.000000    1.637583   -0.705125
      9          1           0       -0.000000   -1.637583   -0.705125
     10          1           0        0.000000    0.000000   -1.057687
 ---------------------------------------------------------------------

 SCF Done:  E(RHF) =  -4.75077420433     A.U. after    7 cycles
 E2 =    -0.1036858911D+00 EUMP2 =    -0.48544600954612D+01

 The electronic state is 1-AG.
 Alpha  occ. eigenvalues --   -0.97093  -0.78301  -0.70452  -0.59393  -0.23942
 Alpha virt. eigenvalues --    0.01116   0.22522   0.89007   0.97394   1.22045

 Mulliken charges:
               1
     1  H    0.039207
     2  H    0.229330
     3  H   -0.104440
     4  H    0.039207
     5  H   -0.203304
     6  H   -0.203304
     7  H   -0.104440
     8  H    0.039207
     9  H    0.039207
    10  H    0.229330
 Sum of Mulliken charges =  -0.00000

 Dipole moment (field-independent basis, Debye):
    X=              0.0000    Y=              0.0000    Z=             -0.0000  Tot=              0.0000
 Quadrupole moment (field-independent basis, Debye-Ang):
   XX=            -12.5546   YY=            -18.6044   ZZ=            -13.0912
   XY=             -0.0000   XZ=             -0.0000   YZ=             -0.0000

 Normal termination of Gaussian 09 at Thu Feb  9 16:29:40 2017.
