 Gaussian 09, Revision E.01,
 Gaussian 09:  ES64L-G09RevE.01 30-Nov-2015

 ----------------------------------------------------------------------
 #rhf/gen scf(symm,tight,novaracc,noincfock,fulldiag) stable(crhf) geom
 =nocrowd test
 ----------------------------------------------------------------------

 ----------------------------------------------------------------------
 hf stability analysis of h10 triangular lattice, y= 1.4602585906744392
 ----------------------------------------------------------------------
 Symbolic Z-matrix:
 Charge =  0 Multiplicity = 1

                         Standard orientation:
 ---------------------------------------------------------------------
 Center     Atomic      Atomic             Coordinates (Angstroms)
 Number     Number       Type             X           Y           Z
 ---------------------------------------------------------------------
      1          1           0       -0.000000    1.460259    0.790751
      2          1           0       -0.000000   -0.000000    1.186126
      3          1           0       -0.000000   -0.000000    0.395375
      4          1           0       -0.000000   -1.460259    0.790751
      5          1           0       -0.000000    1.460259    0.000000
      6          1           0       -0.000000   -1.460259    0.000000
      7          1           0        0.000000   -0.000000   -0.395375
      8          1           0        0.000000    1.460259   -0.790751
      9          1           0       -0.000000   -1.460259   -0.790751
     10          1           0        0.000000   -0.000000   -1.186126
 ---------------------------------------------------------------------

 SCF Done:  E(RHF) =  -4.92077129066     A.U. after    8 cycles
 E2 =    -0.8990942006D-01 EUMP2 =    -0.50106807107189D+01

 The electronic state is 1-AG.
 Alpha  occ. eigenvalues --   -0.95943  -0.74177  -0.62205  -0.60236  -0.27136
 Alpha virt. eigenvalues --    0.05396   0.12631   0.73844   0.87112   0.94353

 Mulliken charges:
               1
     1  H   -0.027359
     2  H    0.260227
     3  H   -0.076221
     4  H   -0.027359
     5  H   -0.129288
     6  H   -0.129288
     7  H   -0.076221
     8  H   -0.027359
     9  H   -0.027359
    10  H    0.260227
 Sum of Mulliken charges =   0.00000

 Dipole moment (field-independent basis, Debye):
    X=              0.0000    Y=              0.0000    Z=              0.0000  Tot=              0.0000
 Quadrupole moment (field-independent basis, Debye-Ang):
   XX=            -12.6068   YY=            -20.0804   ZZ=            -11.8943
   XY=             -0.0000   XZ=             -0.0000   YZ=              0.0000

 Normal termination of Gaussian 09 at Thu Feb  9 16:27:35 2017.
