 Gaussian 09, Revision E.01,
 Gaussian 09:  ES64L-G09RevE.01 30-Nov-2015

 ----------------------------------------------------------------------
 #rhf/gen scf(symm,tight,novaracc,noincfock,fulldiag) stable(crhf) geom
 =nocrowd test
 ----------------------------------------------------------------------

 ----------------------------------------------------------------------
 hf stability analysis of h10 triangular lattice, y= 1.9596465302011721
 ----------------------------------------------------------------------
 Symbolic Z-matrix:
 Charge =  0 Multiplicity = 1

                         Standard orientation:
 ---------------------------------------------------------------------
 Center     Atomic      Atomic             Coordinates (Angstroms)
 Number     Number       Type             X           Y           Z
 ---------------------------------------------------------------------
      1          1           0       -0.000000    1.959647    0.589239
      2          1           0       -0.000000   -0.000000    0.883859
      3          1           0       -0.000000   -0.000000    0.294620
      4          1           0       -0.000000   -1.959647    0.589239
      5          1           0       -0.000000    1.959647    0.000000
      6          1           0       -0.000000   -1.959647   -0.000000
      7          1           0        0.000000    0.000000   -0.294620
      8          1           0        0.000000    1.959647   -0.589239
      9          1           0       -0.000000   -1.959647   -0.589239
     10          1           0        0.000000    0.000000   -0.883859
 ---------------------------------------------------------------------

 SCF Done:  E(RHF) =  -4.20027274148     A.U. after    7 cycles
 E2 =    -0.1570669968D+00 EUMP2 =    -0.43573397382742D+01

 The electronic state is 1-AG.
 Alpha  occ. eigenvalues --   -1.00063  -0.84899  -0.83034  -0.55803  -0.18476
 Alpha virt. eigenvalues --   -0.01845   0.39372   1.15912   1.19457   1.75511

 Mulliken charges:
               1
     1  H    0.161153
     2  H    0.221211
     3  H   -0.174752
     4  H    0.161153
     5  H   -0.368765
     6  H   -0.368765
     7  H   -0.174752
     8  H    0.161153
     9  H    0.161153
    10  H    0.221211
 Sum of Mulliken charges =  -0.00000

 Dipole moment (field-independent basis, Debye):
    X=              0.0000    Y=             -0.0000    Z=              0.0000  Tot=              0.0000
 Quadrupole moment (field-independent basis, Debye-Ang):
   XX=            -12.3892   YY=            -15.8485   ZZ=            -14.2434
   XY=             -0.0000   XZ=              0.0000   YZ=              0.0000

 Normal termination of Gaussian 09 at Thu Feb  9 16:32:10 2017.
