 Gaussian 09, Revision E.01,
 Gaussian 09:  ES64L-G09RevE.01 30-Nov-2015

 ----------------------------------------------------------------------
 #rhf/gen scf(symm,tight,novaracc,noincfock,fulldiag) stable(crhf) geom
 =nocrowd test
 ----------------------------------------------------------------------

 ----------------------------------------------------------------------
 hf stability analysis of h10 triangular lattice, y= 1.1879529318790409
 ----------------------------------------------------------------------
 Symbolic Z-matrix:
 Charge =  0 Multiplicity = 1

                         Standard orientation:
 ---------------------------------------------------------------------
 Center     Atomic      Atomic             Coordinates (Angstroms)
 Number     Number       Type             X           Y           Z
 ---------------------------------------------------------------------
      1          1           0       -0.000000    1.187953    0.972009
      2          1           0       -0.000000    0.000000    1.458013
      3          1           0       -0.000000    0.000000    0.486004
      4          1           0       -0.000000   -1.187953    0.972009
      5          1           0       -0.000000    1.187953    0.000000
      6          1           0       -0.000000   -1.187953   -0.000000
      7          1           0        0.000000   -0.000000   -0.486004
      8          1           0        0.000000    1.187953   -0.972009
      9          1           0       -0.000000   -1.187953   -0.972009
     10          1           0        0.000000   -0.000000   -1.458013
 ---------------------------------------------------------------------

 SCF Done:  E(RHF) =  -4.86886562027     A.U. after    9 cycles
 E2 =    -0.9822634188D-01 EUMP2 =    -0.49670919621465D+01

 The electronic state is 1-AG.
 Alpha  occ. eigenvalues --   -0.94120  -0.67525  -0.66585  -0.38421  -0.31024
 Alpha virt. eigenvalues --   -0.02052   0.16858   0.49962   0.54975   0.73731

 Mulliken charges:
               1
     1  H   -0.072944
     2  H    0.257861
     3  H   -0.014763
     4  H   -0.072944
     5  H   -0.097210
     6  H   -0.097210
     7  H   -0.014763
     8  H   -0.072944
     9  H   -0.072944
    10  H    0.257861
 Sum of Mulliken charges =  -0.00000

 Dipole moment (field-independent basis, Debye):
    X=              0.0000    Y=             -0.0000    Z=              0.0000  Tot=              0.0000
 Quadrupole moment (field-independent basis, Debye-Ang):
   XX=            -12.5905   YY=            -21.1187   ZZ=             -9.6357
   XY=             -0.0000   XZ=             -0.0000   YZ=              0.0000

 Normal termination of Gaussian 09 at Thu Feb  9 16:22:36 2017.
