 Gaussian 09, Revision E.01,
 Gaussian 09:  ES64L-G09RevE.01 30-Nov-2015

 ----------------------------------------------------------------------
 #rhf/gen scf(symm,tight,novaracc,noincfock,fulldiag) stable(crhf) geom
 =nocrowd test
 ----------------------------------------------------------------------

 ----------------------------------------------------------------------
 hf stability analysis of h10 triangular lattice, y= 1.7779960290897987
 ----------------------------------------------------------------------
 Symbolic Z-matrix:
 Charge =  0 Multiplicity = 1

                         Standard orientation:
 ---------------------------------------------------------------------
 Center     Atomic      Atomic             Coordinates (Angstroms)
 Number     Number       Type             X           Y           Z
 ---------------------------------------------------------------------
      1          1           0        0.000000    1.777996    0.649439
      2          1           0       -0.000000   -0.000000    0.974159
      3          1           0       -0.000000   -0.000000    0.324720
      4          1           0       -0.000000   -1.777996    0.649439
      5          1           0       -0.000000    1.777996    0.000000
      6          1           0       -0.000000   -1.777996   -0.000000
      7          1           0        0.000000    0.000000   -0.324720
      8          1           0        0.000000    1.777996   -0.649439
      9          1           0       -0.000000   -1.777996   -0.649439
     10          1           0        0.000000    0.000000   -0.974159
 ---------------------------------------------------------------------

 SCF Done:  E(RHF) =  -4.54137592293     A.U. after    7 cycles
 E2 =    -0.1231501146D+00 EUMP2 =    -0.46645260375392D+01

 The electronic state is 1-AG.
 Alpha  occ. eigenvalues --   -0.98146  -0.81286  -0.76747  -0.57577  -0.21464
 Alpha virt. eigenvalues --   -0.00797   0.30104   1.00814   1.06564   1.44937

 Mulliken charges:
               1
     1  H    0.093147
     2  H    0.217014
     3  H   -0.132250
     4  H    0.093147
     5  H   -0.271058
     6  H   -0.271058
     7  H   -0.132250
     8  H    0.093147
     9  H    0.093147
    10  H    0.217014
 Sum of Mulliken charges =  -0.00000

 Dipole moment (field-independent basis, Debye):
    X=              0.0000    Y=              0.0000    Z=             -0.0000  Tot=              0.0000
 Quadrupole moment (field-independent basis, Debye-Ang):
   XX=            -12.4899   YY=            -17.3562   ZZ=            -13.7179
   XY=             -0.0000   XZ=              0.0000   YZ=              0.0000

 Normal termination of Gaussian 09 at Thu Feb  9 16:30:55 2017.
