 Gaussian 09, Revision E.01,
 Gaussian 09:  ES64L-G09RevE.01 30-Nov-2015

 ----------------------------------------------------------------------
 #rhf/gen scf(symm,tight,novaracc,noincfock,fulldiag) stable(crhf) geom
 =nocrowd test
 ----------------------------------------------------------------------

 ----------------------------------------------------------------------
 hf stability analysis of h10 triangular lattice, y= 1.4477766504653917
 ----------------------------------------------------------------------
 Symbolic Z-matrix:
 Charge =  0 Multiplicity = 1

                         Standard orientation:
 ---------------------------------------------------------------------
 Center     Atomic      Atomic             Coordinates (Angstroms)
 Number     Number       Type             X           Y           Z
 ---------------------------------------------------------------------
      1          1           0       -0.000000    1.447777    0.797568
      2          1           0       -0.000000   -0.000000    1.196352
      3          1           0       -0.000000   -0.000000    0.398784
      4          1           0       -0.000000   -1.447777    0.797568
      5          1           0       -0.000000    1.447777    0.000000
      6          1           0       -0.000000   -1.447777   -0.000000
      7          1           0        0.000000    0.000000   -0.398784
      8          1           0        0.000000    1.447777   -0.797568
      9          1           0       -0.000000   -1.447777   -0.797568
     10          1           0        0.000000    0.000000   -1.196352
 ---------------------------------------------------------------------

 SCF Done:  E(RHF) =  -4.92772345529     A.U. after    8 cycles
 E2 =    -0.8942570433D-01 EUMP2 =    -0.50171491596197D+01

 The electronic state is 1-AG.
 Alpha  occ. eigenvalues --   -0.95859  -0.73865  -0.62422  -0.59407  -0.27355
 Alpha virt. eigenvalues --    0.05789   0.11929   0.72767   0.86448   0.92463

 Mulliken charges:
               1
     1  H   -0.031802
     2  H    0.262788
     3  H   -0.074496
     4  H   -0.031802
     5  H   -0.124689
     6  H   -0.124689
     7  H   -0.074496
     8  H   -0.031802
     9  H   -0.031802
    10  H    0.262788
 Sum of Mulliken charges =  -0.00000

 Dipole moment (field-independent basis, Debye):
    X=              0.0000    Y=             -0.0000    Z=             -0.0000  Tot=              0.0000
 Quadrupole moment (field-independent basis, Debye-Ang):
   XX=            -12.6089   YY=            -20.1746   ZZ=            -11.7895
   XY=             -0.0000   XZ=             -0.0000   YZ=             -0.0000

 Normal termination of Gaussian 09 at Thu Feb  9 16:27:24 2017.
