 Gaussian 09, Revision E.01,
 Gaussian 09:  ES64L-G09RevE.01 30-Nov-2015

 ----------------------------------------------------------------------
 #rhf/gen scf(symm,tight,novaracc,noincfock,fulldiag) stable(crhf) geom
 =nocrowd test
 ----------------------------------------------------------------------

 hf stability analysis of h10 triangular lattice, y= 0.8049868118336639
 4
 ----------------------------------------------------------------------
 Symbolic Z-matrix:
 Charge =  0 Multiplicity = 1

                         Standard orientation:
 ---------------------------------------------------------------------
 Center     Atomic      Atomic             Coordinates (Angstroms)
 Number     Number       Type             X           Y           Z
 ---------------------------------------------------------------------
      1          1           0        0.000000    0.804987    1.434434
      2          1           0        0.000000    0.000000    2.151651
      3          1           0        0.000000    0.000000    0.717217
      4          1           0       -0.000000   -0.804987    1.434434
      5          1           0       -0.000000    0.804987   -0.000000
      6          1           0       -0.000000   -0.804987    0.000000
      7          1           0        0.000000   -0.000000   -0.717217
      8          1           0        0.000000    0.804987   -1.434434
      9          1           0       -0.000000   -0.804987   -1.434434
     10          1           0        0.000000   -0.000000   -2.151651
 ---------------------------------------------------------------------

 SCF Done:  E(RHF) =  -4.91190144190     A.U. after    8 cycles
 E2 =    -0.9643623548D-01 EUMP2 =    -0.50083376773771D+01

 The electronic state is 1-AG.
 Alpha  occ. eigenvalues --   -0.92702  -0.74921  -0.49982  -0.49774  -0.29607
 Alpha virt. eigenvalues --    0.01901   0.16586   0.40227   0.44035   0.54260

 Mulliken charges:
               1
     1  H   -0.183214
     2  H    0.183198
     3  H    0.124178
     4  H   -0.183214
     5  H    0.059051
     6  H    0.059051
     7  H    0.124178
     8  H   -0.183214
     9  H   -0.183214
    10  H    0.183198
 Sum of Mulliken charges =   0.00000

 Dipole moment (field-independent basis, Debye):
    X=              0.0000    Y=             -0.0000    Z=             -0.0000  Tot=              0.0000
 Quadrupole moment (field-independent basis, Debye-Ang):
   XX=            -12.9741   YY=            -18.0097   ZZ=            -13.0720
   XY=             -0.0000   XZ=             -0.0000   YZ=             -0.0000

 Normal termination of Gaussian 09 at Thu Feb  9 16:09:01 2017.
