 Gaussian 09, Revision E.01,
 Gaussian 09:  ES64L-G09RevE.01 30-Nov-2015

 ----------------------------------------------------------------------
 #rhf/gen scf(symm,tight,novaracc,noincfock,fulldiag) stable(crhf) geom
 =nocrowd test
 ----------------------------------------------------------------------

 hf stability analysis of h10 triangular lattice, y= 0.9269238868211169
 3
 ----------------------------------------------------------------------
 Symbolic Z-matrix:
 Charge =  0 Multiplicity = 1

                         Standard orientation:
 ---------------------------------------------------------------------
 Center     Atomic      Atomic             Coordinates (Angstroms)
 Number     Number       Type             X           Y           Z
 ---------------------------------------------------------------------
      1          1           0        0.000000    0.926924    1.245734
      2          1           0        0.000000    0.000000    1.868601
      3          1           0        0.000000    0.000000    0.622867
      4          1           0       -0.000000   -0.926924    1.245734
      5          1           0       -0.000000    0.926924   -0.000000
      6          1           0       -0.000000   -0.926924    0.000000
      7          1           0        0.000000   -0.000000   -0.622867
      8          1           0        0.000000    0.926924   -1.245734
      9          1           0       -0.000000   -0.926924   -1.245734
     10          1           0        0.000000   -0.000000   -1.868601
 ---------------------------------------------------------------------

 SCF Done:  E(RHF) =  -4.96951486372     A.U. after    8 cycles
 E2 =    -0.9794718162D-01 EUMP2 =    -0.50674620453429D+01

 The electronic state is 1-AG.
 Alpha  occ. eigenvalues --   -0.95722  -0.74009  -0.57413  -0.43971  -0.32985
 Alpha virt. eigenvalues --    0.14146   0.21475   0.22451   0.45769   0.54982

 Mulliken charges:
               1
     1  H   -0.125568
     2  H    0.068472
     3  H    0.098520
     4  H   -0.125568
     5  H    0.084144
     6  H    0.084144
     7  H    0.098520
     8  H   -0.125568
     9  H   -0.125568
    10  H    0.068472
 Sum of Mulliken charges =  -0.00000

 Dipole moment (field-independent basis, Debye):
    X=              0.0000    Y=             -0.0000    Z=             -0.0000  Tot=              0.0000
 Quadrupole moment (field-independent basis, Debye-Ang):
   XX=            -12.8935   YY=            -16.4117   ZZ=            -17.0740
   XY=             -0.0000   XZ=              0.0000   YZ=             -0.0000

 Normal termination of Gaussian 09 at Thu Feb  9 16:14:29 2017.
