 Gaussian 09, Revision E.01,
 Gaussian 09:  ES64L-G09RevE.01 30-Nov-2015

 ----------------------------------------------------------------------
 #rhf/gen scf(symm,tight,novaracc,noincfock,fulldiag) stable(crhf) geom
 =nocrowd test
 ----------------------------------------------------------------------

 hf stability analysis of h10 triangular lattice, y= 0.8413687690539518
 6
 ----------------------------------------------------------------------
 Symbolic Z-matrix:
 Charge =  0 Multiplicity = 1

                         Standard orientation:
 ---------------------------------------------------------------------
 Center     Atomic      Atomic             Coordinates (Angstroms)
 Number     Number       Type             X           Y           Z
 ---------------------------------------------------------------------
      1          1           0        0.000000    0.841369    1.372407
      2          1           0       -0.000000    0.000000    2.058611
      3          1           0       -0.000000    0.000000    0.686204
      4          1           0       -0.000000   -0.841369    1.372407
      5          1           0       -0.000000    0.841369    0.000000
      6          1           0       -0.000000   -0.841369   -0.000000
      7          1           0        0.000000   -0.000000   -0.686204
      8          1           0        0.000000    0.841369   -1.372407
      9          1           0       -0.000000   -0.841369   -1.372407
     10          1           0        0.000000   -0.000000   -2.058611
 ---------------------------------------------------------------------

 SCF Done:  E(RHF) =  -4.94275838268     A.U. after    8 cycles
 E2 =    -0.9624866490D-01 EUMP2 =    -0.50390070475820D+01

 The electronic state is 1-AG.
 Alpha  occ. eigenvalues --   -0.93808  -0.74860  -0.52279  -0.48306  -0.30885
 Alpha virt. eigenvalues --    0.05314   0.18057   0.36092   0.45990   0.52360

 Mulliken charges:
               1
     1  H   -0.164458
     2  H    0.148061
     3  H    0.110250
     4  H   -0.164458
     5  H    0.070606
     6  H    0.070606
     7  H    0.110250
     8  H   -0.164458
     9  H   -0.164458
    10  H    0.148061
 Sum of Mulliken charges =  -0.00000

 Dipole moment (field-independent basis, Debye):
    X=              0.0000    Y=             -0.0000    Z=             -0.0000  Tot=              0.0000
 Quadrupole moment (field-independent basis, Debye-Ang):
   XX=            -12.9504   YY=            -17.5447   ZZ=            -14.4550
   XY=             -0.0000   XZ=             -0.0000   YZ=             -0.0000

 Normal termination of Gaussian 09 at Thu Feb  9 16:10:46 2017.
