 Gaussian 09, Revision E.01,
 Gaussian 09:  ES64L-G09RevE.01 30-Nov-2015

 ----------------------------------------------------------------------
 #rhf/gen scf(symm,tight,novaracc,noincfock,fulldiag) stable(crhf) geom
 =nocrowd test
 ----------------------------------------------------------------------

 hf stability analysis of h10 triangular lattice, y= 0.9910121780235632
 3
 ----------------------------------------------------------------------
 Symbolic Z-matrix:
 Charge =  0 Multiplicity = 1

                         Standard orientation:
 ---------------------------------------------------------------------
 Center     Atomic      Atomic             Coordinates (Angstroms)
 Number     Number       Type             X           Y           Z
 ---------------------------------------------------------------------
      1          1           0        0.000000    0.991012    1.165173
      2          1           0       -0.000000    0.000000    1.747759
      3          1           0       -0.000000    0.000000    0.582586
      4          1           0       -0.000000   -0.991012    1.165173
      5          1           0       -0.000000    0.991012   -0.000000
      6          1           0       -0.000000   -0.991012    0.000000
      7          1           0        0.000000   -0.000000   -0.582586
      8          1           0        0.000000    0.991012   -1.165173
      9          1           0       -0.000000   -0.991012   -1.165173
     10          1           0        0.000000   -0.000000   -1.747759
 ---------------------------------------------------------------------

 SCF Done:  E(RHF) =  -4.94840819956     A.U. after    8 cycles
 E2 =    -0.1011719956D+00 EUMP2 =    -0.50495801952049D+01

 The electronic state is 1-AG.
 Alpha  occ. eigenvalues --   -0.96642  -0.72882  -0.60690  -0.40450  -0.33881
 Alpha virt. eigenvalues --    0.11829   0.20849   0.26437   0.40780   0.60081

 Mulliken charges:
               1
     1  H   -0.098592
     2  H    0.010434
     3  H    0.102283
     4  H   -0.098592
     5  H    0.084467
     6  H    0.084467
     7  H    0.102283
     8  H   -0.098592
     9  H   -0.098592
    10  H    0.010434
 Sum of Mulliken charges =   0.00000

 Dipole moment (field-independent basis, Debye):
    X=              0.0000    Y=              0.0000    Z=              0.0000  Tot=              0.0000
 Quadrupole moment (field-independent basis, Debye-Ang):
   XX=            -12.8491   YY=            -15.5282   ZZ=            -18.5809
   XY=             -0.0000   XZ=              0.0000   YZ=             -0.0000

 Normal termination of Gaussian 09 at Thu Feb  9 16:16:50 2017.
