 Gaussian 09, Revision E.01,
 Gaussian 09:  ES64L-G09RevE.01 30-Nov-2015

 ----------------------------------------------------------------------
 #rhf/gen scf(symm,tight,novaracc,noincfock,fulldiag) stable(crhf) geom
 =nocrowd test
 ----------------------------------------------------------------------

 ----------------------------------------------------------------------
 hf stability analysis of h10 triangular lattice, y= 1.6171137289532584
 ----------------------------------------------------------------------
 Symbolic Z-matrix:
 Charge =  0 Multiplicity = 1

                         Standard orientation:
 ---------------------------------------------------------------------
 Center     Atomic      Atomic             Coordinates (Angstroms)
 Number     Number       Type             X           Y           Z
 ---------------------------------------------------------------------
      1          1           0       -0.000000    1.617114    0.714050
      2          1           0       -0.000000    0.000000    1.071076
      3          1           0       -0.000000    0.000000    0.357025
      4          1           0       -0.000000   -1.617114    0.714050
      5          1           0       -0.000000    1.617114    0.000000
      6          1           0       -0.000000   -1.617114    0.000000
      7          1           0        0.000000    0.000000   -0.357025
      8          1           0        0.000000    1.617114   -0.714050
      9          1           0       -0.000000   -1.617114   -0.714050
     10          1           0        0.000000    0.000000   -1.071076
 ---------------------------------------------------------------------

 SCF Done:  E(RHF) =  -4.77639580212     A.U. after    7 cycles
 E2 =    -0.1014542417D+00 EUMP2 =    -0.48778500437713D+01

 The electronic state is 1-AG.
 Alpha  occ. eigenvalues --   -0.96957  -0.77849  -0.69411  -0.59690  -0.24312
 Alpha virt. eigenvalues --    0.01494   0.21394   0.87272   0.96128   1.18773

 Mulliken charges:
               1
     1  H    0.031343
     2  H    0.232150
     3  H   -0.100788
     4  H    0.031343
     5  H   -0.194049
     6  H   -0.194049
     7  H   -0.100788
     8  H    0.031343
     9  H    0.031343
    10  H    0.232150
 Sum of Mulliken charges =  -0.00000

 Dipole moment (field-independent basis, Debye):
    X=              0.0000    Y=             -0.0000    Z=              0.0000  Tot=              0.0000
 Quadrupole moment (field-independent basis, Debye-Ang):
   XX=            -12.5626   YY=            -18.7842   ZZ=            -12.9786
   XY=             -0.0000   XZ=             -0.0000   YZ=              0.0000

 Normal termination of Gaussian 09 at Thu Feb  9 16:29:27 2017.
