 Gaussian 09, Revision E.01,
 Gaussian 09:  ES64L-G09RevE.01 30-Nov-2015

 ----------------------------------------------------------------------
 #rhf/gen scf(symm,tight,novaracc,noincfock,fulldiag) stable(crhf) geom
 =nocrowd test
 ----------------------------------------------------------------------

 ----------------------------------------------------------------------
 hf stability analysis of h10 triangular lattice, y= 2.1842543712115088
 ----------------------------------------------------------------------
 Symbolic Z-matrix:
 Charge =  0 Multiplicity = 1

                         Standard orientation:
 ---------------------------------------------------------------------
 Center     Atomic      Atomic             Coordinates (Angstroms)
 Number     Number       Type             X           Y           Z
 ---------------------------------------------------------------------
      1          1           0        0.000000    2.184254    0.528648
      2          1           0        0.000000   -0.000000    0.792971
      3          1           0        0.000000   -0.000000    0.264324
      4          1           0       -0.000000   -2.184254    0.528648
      5          1           0       -0.000000    2.184254    0.000000
      6          1           0       -0.000000   -2.184254   -0.000000
      7          1           0        0.000000    0.000000   -0.264324
      8          1           0        0.000000    2.184254   -0.528648
      9          1           0       -0.000000   -2.184254   -0.528648
     10          1           0        0.000000    0.000000   -0.792971
 ---------------------------------------------------------------------

 SCF Done:  E(RHF) =  -3.69747723389     A.U. after    7 cycles
 E2 =    -0.2058155552D+00 EUMP2 =    -0.39032927891270D+01

 The electronic state is 1-AG.
 Alpha  occ. eigenvalues --   -1.03544  -0.89025  -0.88647  -0.54387  -0.15114
 Alpha virt. eigenvalues --   -0.01644   0.49834   1.34504   1.36518   2.14563

 Mulliken charges:
               1
     1  H    0.241948
     2  H    0.256117
     3  H   -0.236491
     4  H    0.241948
     5  H   -0.503521
     6  H   -0.503521
     7  H   -0.236491
     8  H    0.241948
     9  H    0.241948
    10  H    0.256117
 Sum of Mulliken charges =  -0.00000

 Dipole moment (field-independent basis, Debye):
    X=              0.0000    Y=              0.0000    Z=              0.0000  Tot=              0.0000
 Quadrupole moment (field-independent basis, Debye-Ang):
   XX=            -12.2571   YY=            -14.3874   ZZ=            -14.6319
   XY=              0.0000   XZ=              0.0000   YZ=              0.0000

 Normal termination of Gaussian 09 at Thu Feb  9 16:33:19 2017.
