 Gaussian 09, Revision E.01,
 Gaussian 09:  ES64L-G09RevE.01 30-Nov-2015

 ----------------------------------------------------------------------
 #rhf/gen scf(symm,tight,novaracc,noincfock,fulldiag) stable(crhf) geom
 =nocrowd test
 ----------------------------------------------------------------------

 ----------------------------------------------------------------------
 hf stability analysis of h10 triangular lattice, y= 1.4861289010746450
 ----------------------------------------------------------------------
 Symbolic Z-matrix:
 Charge =  0 Multiplicity = 1

                         Standard orientation:
 ---------------------------------------------------------------------
 Center     Atomic      Atomic             Coordinates (Angstroms)
 Number     Number       Type             X           Y           Z
 ---------------------------------------------------------------------
      1          1           0        0.000000    1.486129    0.776985
      2          1           0        0.000000    0.000000    1.165478
      3          1           0        0.000000    0.000000    0.388493
      4          1           0       -0.000000   -1.486129    0.776985
      5          1           0       -0.000000    1.486129   -0.000000
      6          1           0       -0.000000   -1.486129    0.000000
      7          1           0        0.000000   -0.000000   -0.388493
      8          1           0        0.000000    1.486129   -0.776985
      9          1           0       -0.000000   -1.486129   -0.776985
     10          1           0        0.000000   -0.000000   -1.165478
 ---------------------------------------------------------------------

 SCF Done:  E(RHF) =  -4.90402468951     A.U. after    8 cycles
 E2 =    -0.9112044774D-01 EUMP2 =    -0.49951451372475D+01

 The electronic state is 1-AG.
 Alpha  occ. eigenvalues --   -0.96114  -0.74812  -0.61906  -0.61763  -0.26678
 Alpha virt. eigenvalues --    0.04621   0.14087   0.76073   0.88512   0.98296

 Mulliken charges:
               1
     1  H   -0.017998
     2  H    0.255003
     3  H   -0.079885
     4  H   -0.017998
     5  H   -0.139122
     6  H   -0.139122
     7  H   -0.079885
     8  H   -0.017998
     9  H   -0.017998
    10  H    0.255003
 Sum of Mulliken charges =  -0.00000

 Dipole moment (field-independent basis, Debye):
    X=              0.0000    Y=             -0.0000    Z=              0.0000  Tot=              0.0000
 Quadrupole moment (field-independent basis, Debye-Ang):
   XX=            -12.6018   YY=            -19.8802   ZZ=            -12.1023
   XY=             -0.0000   XZ=             -0.0000   YZ=             -0.0000

 Normal termination of Gaussian 09 at Thu Feb  9 16:27:55 2017.
