 Gaussian 09, Revision E.01,
 Gaussian 09:  ES64L-G09RevE.01 30-Nov-2015

 ----------------------------------------------------------------------
 #rhf/gen scf(symm,tight,novaracc,noincfock,fulldiag) stable(crhf) geom
 =nocrowd test
 ----------------------------------------------------------------------

 ----------------------------------------------------------------------
 hf stability analysis of h10 triangular lattice, y= 1.5845420675981361
 ----------------------------------------------------------------------
 Symbolic Z-matrix:
 Charge =  0 Multiplicity = 1

                         Standard orientation:
 ---------------------------------------------------------------------
 Center     Atomic      Atomic             Coordinates (Angstroms)
 Number     Number       Type             X           Y           Z
 ---------------------------------------------------------------------
      1          1           0       -0.000000    1.584542    0.728728
      2          1           0       -0.000000   -0.000000    1.093092
      3          1           0       -0.000000   -0.000000    0.364364
      4          1           0       -0.000000   -1.584542    0.728728
      5          1           0       -0.000000    1.584542    0.000000
      6          1           0       -0.000000   -1.584542   -0.000000
      7          1           0        0.000000    0.000000   -0.364364
      8          1           0        0.000000    1.584542   -0.728728
      9          1           0       -0.000000   -1.584542   -0.728728
     10          1           0        0.000000    0.000000   -1.093092
 ---------------------------------------------------------------------

 SCF Done:  E(RHF) =  -4.81422749232     A.U. after    7 cycles
 E2 =    -0.9824090850D-01 EUMP2 =    -0.49124684008259D+01

 The electronic state is 1-AG.
 Alpha  occ. eigenvalues --   -0.96746  -0.77118  -0.67685  -0.60178  -0.24902
 Alpha virt. eigenvalues --    0.02154   0.19590   0.84502   0.94155   1.13605

 Mulliken charges:
               1
     1  H    0.018879
     2  H    0.237109
     3  H   -0.095194
     4  H    0.018879
     5  H   -0.179674
     6  H   -0.179674
     7  H   -0.095194
     8  H    0.018879
     9  H    0.018879
    10  H    0.237109
 Sum of Mulliken charges =  -0.00000

 Dipole moment (field-independent basis, Debye):
    X=              0.0000    Y=             -0.0000    Z=             -0.0000  Tot=              0.0000
 Quadrupole moment (field-independent basis, Debye-Ang):
   XX=            -12.5743   YY=            -19.0669   ZZ=            -12.7867
   XY=             -0.0000   XZ=             -0.0000   YZ=              0.0000

 Normal termination of Gaussian 09 at Thu Feb  9 16:29:06 2017.
