 Gaussian 09, Revision E.01,
 Gaussian 09:  ES64L-G09RevE.01 30-Nov-2015

 ----------------------------------------------------------------------
 #rhf/gen scf(symm,tight,novaracc,noincfock,fulldiag) stable(crhf) geom
 =nocrowd test
 ----------------------------------------------------------------------

 ----------------------------------------------------------------------
 hf stability analysis of h10 triangular lattice, y= 2.1606615333566506
 ----------------------------------------------------------------------
 Symbolic Z-matrix:
 Charge =  0 Multiplicity = 1

                         Standard orientation:
 ---------------------------------------------------------------------
 Center     Atomic      Atomic             Coordinates (Angstroms)
 Number     Number       Type             X           Y           Z
 ---------------------------------------------------------------------
      1          1           0        0.000000    2.160662    0.534420
      2          1           0       -0.000000   -0.000000    0.801630
      3          1           0       -0.000000   -0.000000    0.267210
      4          1           0       -0.000000   -2.160662    0.534420
      5          1           0       -0.000000    2.160662    0.000000
      6          1           0       -0.000000   -2.160662   -0.000000
      7          1           0        0.000000    0.000000   -0.267210
      8          1           0        0.000000    2.160662   -0.534420
      9          1           0       -0.000000   -2.160662   -0.534420
     10          1           0        0.000000    0.000000   -0.801630
 ---------------------------------------------------------------------

 SCF Done:  E(RHF) =  -3.75379105268     A.U. after    7 cycles
 E2 =    -0.2005756125D+00 EUMP2 =    -0.39543666652040D+01

 The electronic state is 1-AG.
 Alpha  occ. eigenvalues --   -1.03126  -0.88609  -0.88143  -0.54504  -0.15453
 Alpha virt. eigenvalues --   -0.01721   0.48784   1.32550   1.34683   2.10394

 Mulliken charges:
               1
     1  H    0.233556
     2  H    0.251123
     3  H   -0.229547
     4  H    0.233556
     5  H   -0.488688
     6  H   -0.488688
     7  H   -0.229547
     8  H    0.233556
     9  H    0.233556
    10  H    0.251123
 Sum of Mulliken charges =  -0.00000

 Dipole moment (field-independent basis, Debye):
    X=              0.0000    Y=              0.0000    Z=             -0.0000  Tot=              0.0000
 Quadrupole moment (field-independent basis, Debye-Ang):
   XX=            -12.2709   YY=            -14.5169   ZZ=            -14.5998
   XY=              0.0000   XZ=              0.0000   YZ=             -0.0000

 Normal termination of Gaussian 09 at Thu Feb  9 16:33:13 2017.
