 Gaussian 09, Revision E.01,
 Gaussian 09:  ES64L-G09RevE.01 30-Nov-2015

 ----------------------------------------------------------------------
 #rhf/gen scf(symm,tight,novaracc,noincfock,fulldiag) stable(crhf) geom
 =nocrowd test
 ----------------------------------------------------------------------

 ----------------------------------------------------------------------
 hf stability analysis of h10 triangular lattice, y= 1.9954740303864316
 ----------------------------------------------------------------------
 Symbolic Z-matrix:
 Charge =  0 Multiplicity = 1

                         Standard orientation:
 ---------------------------------------------------------------------
 Center     Atomic      Atomic             Coordinates (Angstroms)
 Number     Number       Type             X           Y           Z
 ---------------------------------------------------------------------
      1          1           0        0.000000    1.995474    0.578660
      2          1           0        0.000000    0.000000    0.867990
      3          1           0        0.000000    0.000000    0.289330
      4          1           0       -0.000000   -1.995474    0.578660
      5          1           0       -0.000000    1.995474   -0.000000
      6          1           0       -0.000000   -1.995474    0.000000
      7          1           0        0.000000   -0.000000   -0.289330
      8          1           0        0.000000    1.995474   -0.578660
      9          1           0       -0.000000   -1.995474   -0.578660
     10          1           0        0.000000   -0.000000   -0.867990
 ---------------------------------------------------------------------

 SCF Done:  E(RHF) =  -4.12543705300     A.U. after    7 cycles
 E2 =    -0.1645444692D+00 EUMP2 =    -0.42899815221568D+01

 The electronic state is 1-AG.
 Alpha  occ. eigenvalues --   -1.00537  -0.85582  -0.84067  -0.55526  -0.17918
 Alpha virt. eigenvalues --   -0.01905   0.41114   1.18879   1.22109   1.81648

 Mulliken charges:
               1
     1  H    0.174240
     2  H    0.224726
     3  H   -0.183937
     4  H    0.174240
     5  H   -0.389268
     6  H   -0.389268
     7  H   -0.183937
     8  H    0.174240
     9  H    0.174240
    10  H    0.224726
 Sum of Mulliken charges =   0.00000

 Dipole moment (field-independent basis, Debye):
    X=              0.0000    Y=              0.0000    Z=              0.0000  Tot=              0.0000
 Quadrupole moment (field-independent basis, Debye-Ang):
   XX=            -12.3683   YY=            -15.5816   ZZ=            -14.3203
   XY=             -0.0000   XZ=              0.0000   YZ=              0.0000

 Normal termination of Gaussian 09 at Thu Feb  9 16:32:23 2017.
