 Gaussian 09, Revision E.01,
 Gaussian 09:  ES64L-G09RevE.01 30-Nov-2015

 ----------------------------------------------------------------------
 #rhf/gen scf(symm,tight,novaracc,noincfock,fulldiag) stable(crhf) geom
 =nocrowd test
 ----------------------------------------------------------------------

 ----------------------------------------------------------------------
 hf stability analysis of h10 triangular lattice, y= 1.4051278256041408
 ----------------------------------------------------------------------
 Symbolic Z-matrix:
 Charge =  0 Multiplicity = 1

                         Standard orientation:
 ---------------------------------------------------------------------
 Center     Atomic      Atomic             Coordinates (Angstroms)
 Number     Number       Type             X           Y           Z
 ---------------------------------------------------------------------
      1          1           0        0.000000    1.405128    0.821776
      2          1           0        0.000000   -0.000000    1.232664
      3          1           0        0.000000   -0.000000    0.410888
      4          1           0       -0.000000   -1.405128    0.821776
      5          1           0       -0.000000    1.405128    0.000000
      6          1           0       -0.000000   -1.405128   -0.000000
      7          1           0        0.000000    0.000000   -0.410888
      8          1           0        0.000000    1.405128   -0.821776
      9          1           0       -0.000000   -1.405128   -0.821776
     10          1           0        0.000000    0.000000   -1.232664
 ---------------------------------------------------------------------

 SCF Done:  E(RHF) =  -4.94559956781     A.U. after    8 cycles
 E2 =    -0.8827678393D-01 EUMP2 =    -0.50338763517485D+01

 The electronic state is 1-AG.
 Alpha  occ. eigenvalues --   -0.95564  -0.72775  -0.63180  -0.56452  -0.28086
 Alpha virt. eigenvalues --    0.07234   0.09526   0.69080   0.84239   0.86070

 Mulliken charges:
               1
     1  H   -0.046521
     2  H    0.271589
     3  H   -0.068749
     4  H   -0.046521
     5  H   -0.109799
     6  H   -0.109799
     7  H   -0.068749
     8  H   -0.046521
     9  H   -0.046521
    10  H    0.271589
 Sum of Mulliken charges =  -0.00000

 Dipole moment (field-independent basis, Debye):
    X=              0.0000    Y=              0.0000    Z=             -0.0000  Tot=              0.0000
 Quadrupole moment (field-independent basis, Debye-Ang):
   XX=            -12.6141   YY=            -20.4828   ZZ=            -11.4101
   XY=             -0.0000   XZ=             -0.0000   YZ=             -0.0000

 Normal termination of Gaussian 09 at Thu Feb  9 16:26:47 2017.
