 Gaussian 09, Revision E.01,
 Gaussian 09:  ES64L-G09RevE.01 30-Nov-2015

 ----------------------------------------------------------------------
 #rhf/gen scf(symm,tight,novaracc,noincfock,fulldiag) stable(crhf) geom
 =nocrowd test
 ----------------------------------------------------------------------

 hf stability analysis of h10 triangular lattice, y= 0.8421187798200454
 6
 ----------------------------------------------------------------------
 Symbolic Z-matrix:
 Charge =  0 Multiplicity = 1

                         Standard orientation:
 ---------------------------------------------------------------------
 Center     Atomic      Atomic             Coordinates (Angstroms)
 Number     Number       Type             X           Y           Z
 ---------------------------------------------------------------------
      1          1           0        0.000000    0.842119    1.371185
      2          1           0        0.000000    0.000000    2.056777
      3          1           0        0.000000    0.000000    0.685592
      4          1           0       -0.000000   -0.842119    1.371185
      5          1           0       -0.000000    0.842119    0.000000
      6          1           0       -0.000000   -0.842119    0.000000
      7          1           0        0.000000   -0.000000   -0.685592
      8          1           0        0.000000    0.842119   -1.371185
      9          1           0       -0.000000   -0.842119   -1.371185
     10          1           0        0.000000   -0.000000   -2.056777
 ---------------------------------------------------------------------

 SCF Done:  E(RHF) =  -4.94327141792     A.U. after    8 cycles
 E2 =    -0.9625060914D-01 EUMP2 =    -0.50395220270681D+01

 The electronic state is 1-AG.
 Alpha  occ. eigenvalues --   -0.93829  -0.74856  -0.52329  -0.48271  -0.30909
 Alpha virt. eigenvalues --    0.05387   0.18090   0.35959   0.46076   0.52312

 Mulliken charges:
               1
     1  H   -0.164089
     2  H    0.147345
     3  H    0.110030
     4  H   -0.164089
     5  H    0.070802
     6  H    0.070802
     7  H    0.110030
     8  H   -0.164089
     9  H   -0.164089
    10  H    0.147345
 Sum of Mulliken charges =  -0.00000

 Dipole moment (field-independent basis, Debye):
    X=              0.0000    Y=              0.0000    Z=             -0.0000  Tot=              0.0000
 Quadrupole moment (field-independent basis, Debye-Ang):
   XX=            -12.9499   YY=            -17.5349   ZZ=            -14.4816
   XY=             -0.0000   XZ=             -0.0000   YZ=              0.0000

 Normal termination of Gaussian 09 at Thu Feb  9 16:10:48 2017.
