 Gaussian 09, Revision E.01,
 Gaussian 09:  ES64L-G09RevE.01 30-Nov-2015

 ----------------------------------------------------------------------
 #rhf/gen scf(symm,tight,novaracc,noincfock,fulldiag) stable(crhf) geom
 =nocrowd test
 ----------------------------------------------------------------------

 hf stability analysis of h10 triangular lattice, y= 0.8368882343931486
 3
 ----------------------------------------------------------------------
 Symbolic Z-matrix:
 Charge =  0 Multiplicity = 1

                         Standard orientation:
 ---------------------------------------------------------------------
 Center     Atomic      Atomic             Coordinates (Angstroms)
 Number     Number       Type             X           Y           Z
 ---------------------------------------------------------------------
      1          1           0        0.000000    0.836888    1.379755
      2          1           0        0.000000    0.000000    2.069632
      3          1           0        0.000000    0.000000    0.689877
      4          1           0       -0.000000   -0.836888    1.379755
      5          1           0       -0.000000    0.836888    0.000000
      6          1           0       -0.000000   -0.836888    0.000000
      7          1           0        0.000000    0.000000   -0.689877
      8          1           0        0.000000    0.836888   -1.379755
      9          1           0       -0.000000   -0.836888   -1.379755
     10          1           0        0.000000    0.000000   -2.069632
 ---------------------------------------------------------------------

 SCF Done:  E(RHF) =  -4.93959020867     A.U. after    8 cycles
 E2 =    -0.9624188825D-01 EUMP2 =    -0.50358320969270D+01

 The electronic state is 1-AG.
 Alpha  occ. eigenvalues --   -0.93682  -0.74878  -0.51982  -0.48519  -0.30741
 Alpha virt. eigenvalues --    0.04880   0.17862   0.36881   0.45479   0.52637

 Mulliken charges:
               1
     1  H   -0.166681
     2  H    0.152343
     3  H    0.111617
     4  H   -0.166681
     5  H    0.069402
     6  H    0.069402
     7  H    0.111617
     8  H   -0.166681
     9  H   -0.166681
    10  H    0.152343
 Sum of Mulliken charges =  -0.00000

 Dipole moment (field-independent basis, Debye):
    X=              0.0000    Y=              0.0000    Z=             -0.0000  Tot=              0.0000
 Quadrupole moment (field-independent basis, Debye-Ang):
   XX=            -12.9533   YY=            -17.6025   ZZ=            -14.2944
   XY=             -0.0000   XZ=             -0.0000   YZ=              0.0000

 Normal termination of Gaussian 09 at Thu Feb  9 16:10:33 2017.
