 Gaussian 09, Revision E.01,
 Gaussian 09:  ES64L-G09RevE.01 30-Nov-2015

 ----------------------------------------------------------------------
 #rhf/gen scf(symm,tight,novaracc,noincfock,fulldiag) stable(crhf) geom
 =nocrowd test
 ----------------------------------------------------------------------

 ----------------------------------------------------------------------
 hf stability analysis of h10 triangular lattice, y= 1.6238565527068056
 ----------------------------------------------------------------------
 Symbolic Z-matrix:
 Charge =  0 Multiplicity = 1

                         Standard orientation:
 ---------------------------------------------------------------------
 Center     Atomic      Atomic             Coordinates (Angstroms)
 Number     Number       Type             X           Y           Z
 ---------------------------------------------------------------------
      1          1           0       -0.000000    1.623857    0.711085
      2          1           0       -0.000000    0.000000    1.066628
      3          1           0       -0.000000    0.000000    0.355543
      4          1           0       -0.000000   -1.623857    0.711085
      5          1           0       -0.000000    1.623857   -0.000000
      6          1           0       -0.000000   -1.623857    0.000000
      7          1           0        0.000000   -0.000000   -0.355543
      8          1           0        0.000000    1.623857   -0.711085
      9          1           0       -0.000000   -1.623857   -0.711085
     10          1           0        0.000000   -0.000000   -1.066628
 ---------------------------------------------------------------------

 SCF Done:  E(RHF) =  -4.76810885381     A.U. after    7 cycles
 E2 =    -0.1021714300D+00 EUMP2 =    -0.48702802837890D+01

 The electronic state is 1-AG.
 Alpha  occ. eigenvalues --   -0.97002  -0.77998  -0.69758  -0.59591  -0.24190
 Alpha virt. eigenvalues --    0.01366   0.21766   0.87844   0.96543   1.19849

 Mulliken charges:
               1
     1  H    0.033932
     2  H    0.231195
     3  H   -0.101979
     4  H    0.033932
     5  H   -0.197079
     6  H   -0.197079
     7  H   -0.101979
     8  H    0.033932
     9  H    0.033932
    10  H    0.231195
 Sum of Mulliken charges =  -0.00000

 Dipole moment (field-independent basis, Debye):
    X=              0.0000    Y=             -0.0000    Z=              0.0000  Tot=              0.0000
 Quadrupole moment (field-independent basis, Debye-Ang):
   XX=            -12.5600   YY=            -18.7252   ZZ=            -13.0164
   XY=             -0.0000   XZ=             -0.0000   YZ=              0.0000

 Normal termination of Gaussian 09 at Thu Feb  9 16:29:31 2017.
