 Gaussian 09, Revision E.01,
 Gaussian 09:  ES64L-G09RevE.01 30-Nov-2015

 ----------------------------------------------------------------------
 #rhf/gen scf(symm,tight,novaracc,noincfock,fulldiag) stable(crhf) geom
 =nocrowd test
 ----------------------------------------------------------------------

 ----------------------------------------------------------------------
 hf stability analysis of h10 triangular lattice, y= 1.0442341629298113
 ----------------------------------------------------------------------
 Symbolic Z-matrix:
 Charge =  0 Multiplicity = 1

                         Standard orientation:
 ---------------------------------------------------------------------
 Center     Atomic      Atomic             Coordinates (Angstroms)
 Number     Number       Type             X           Y           Z
 ---------------------------------------------------------------------
      1          1           0        0.000000    1.044234    1.105787
      2          1           0        0.000000    0.000000    1.658681
      3          1           0        0.000000    0.000000    0.552893
      4          1           0       -0.000000   -1.044234    1.105787
      5          1           0       -0.000000    1.044234   -0.000000
      6          1           0       -0.000000   -1.044234    0.000000
      7          1           0        0.000000   -0.000000   -0.552893
      8          1           0        0.000000    1.044234   -1.105787
      9          1           0       -0.000000   -1.044234   -1.105787
     10          1           0        0.000000   -0.000000   -1.658681
 ---------------------------------------------------------------------

 SCF Done:  E(RHF) =  -4.90553303682     A.U. after    9 cycles
 E2 =    -0.1051863285D+00 EUMP2 =    -0.50107193653146D+01

 The electronic state is 1-AG.
 Alpha  occ. eigenvalues --   -0.97151  -0.71741  -0.63112  -0.37383  -0.34258
 Alpha virt. eigenvalues --    0.04635   0.24910   0.30105   0.38609   0.63358

 Mulliken charges:
               1
     1  H   -0.074031
     2  H   -0.039409
     3  H    0.111200
     4  H   -0.074031
     5  H    0.076270
     6  H    0.076270
     7  H    0.111200
     8  H   -0.074031
     9  H   -0.074031
    10  H   -0.039409
 Sum of Mulliken charges =  -0.00000

 Dipole moment (field-independent basis, Debye):
    X=             -0.0000    Y=             -0.0000    Z=             -0.0000  Tot=              0.0000
 Quadrupole moment (field-independent basis, Debye-Ang):
   XX=            -12.8095   YY=            -14.7665   ZZ=            -19.5993
   XY=             -0.0000   XZ=              0.0000   YZ=             -0.0000

 Normal termination of Gaussian 09 at Thu Feb  9 16:18:37 2017.
