 Gaussian 09, Revision E.01,
 Gaussian 09:  ES64L-G09RevE.01 30-Nov-2015

 ----------------------------------------------------------------------
 #rhf/gen scf(symm,tight,novaracc,noincfock,fulldiag) stable(crhf) geom
 =nocrowd test
 ----------------------------------------------------------------------

 ----------------------------------------------------------------------
 hf stability analysis of h10 triangular lattice, y= 1.0354978937439347
 ----------------------------------------------------------------------
 Symbolic Z-matrix:
 Charge =  0 Multiplicity = 1

                         Standard orientation:
 ---------------------------------------------------------------------
 Center     Atomic      Atomic             Coordinates (Angstroms)
 Number     Number       Type             X           Y           Z
 ---------------------------------------------------------------------
      1          1           0        0.000000    1.035498    1.115116
      2          1           0       -0.000000    0.000000    1.672674
      3          1           0       -0.000000    0.000000    0.557558
      4          1           0       -0.000000   -1.035498    1.115116
      5          1           0       -0.000000    1.035498    0.000000
      6          1           0       -0.000000   -1.035498    0.000000
      7          1           0        0.000000    0.000000   -0.557558
      8          1           0        0.000000    1.035498   -1.115116
      9          1           0       -0.000000   -1.035498   -1.115116
     10          1           0        0.000000    0.000000   -1.672674
 ---------------------------------------------------------------------

 SCF Done:  E(RHF) =  -4.91406901700     A.U. after    9 cycles
 E2 =    -0.1044380900D+00 EUMP2 =    -0.50185071069557D+01

 The electronic state is 1-AG.
 Alpha  occ. eigenvalues --   -0.97080  -0.71937  -0.62731  -0.37896  -0.34218
 Alpha virt. eigenvalues --    0.05769   0.24466   0.29483   0.38711   0.62870

 Mulliken charges:
               1
     1  H   -0.078487
     2  H   -0.030885
     3  H    0.109348
     4  H   -0.078487
     5  H    0.078510
     6  H    0.078510
     7  H    0.109348
     8  H   -0.078487
     9  H   -0.078487
    10  H   -0.030885
 Sum of Mulliken charges =  -0.00000

 Dipole moment (field-independent basis, Debye):
    X=              0.0000    Y=              0.0000    Z=             -0.0000  Tot=              0.0000
 Quadrupole moment (field-independent basis, Debye-Ang):
   XX=            -12.8163   YY=            -14.8935   ZZ=            -19.4458
   XY=             -0.0000   XZ=              0.0000   YZ=              0.0000

 Normal termination of Gaussian 09 at Thu Feb  9 16:18:21 2017.
