 Gaussian 09, Revision E.01,
 Gaussian 09:  ES64L-G09RevE.01 30-Nov-2015

 ----------------------------------------------------------------------
 #rhf/gen scf(symm,tight,novaracc,noincfock,fulldiag) stable(crhf) geom
 =nocrowd test
 ----------------------------------------------------------------------

 hf stability analysis of h10 triangular lattice, y= 0.9783069766734869
 8
 ----------------------------------------------------------------------
 Symbolic Z-matrix:
 Charge =  0 Multiplicity = 1

                         Standard orientation:
 ---------------------------------------------------------------------
 Center     Atomic      Atomic             Coordinates (Angstroms)
 Number     Number       Type             X           Y           Z
 ---------------------------------------------------------------------
      1          1           0        0.000000    0.978307    1.180305
      2          1           0        0.000000    0.000000    1.770457
      3          1           0        0.000000    0.000000    0.590152
      4          1           0       -0.000000   -0.978307    1.180305
      5          1           0       -0.000000    0.978307   -0.000000
      6          1           0       -0.000000   -0.978307    0.000000
      7          1           0        0.000000   -0.000000   -0.590152
      8          1           0        0.000000    0.978307   -1.180305
      9          1           0       -0.000000   -0.978307   -1.180305
     10          1           0        0.000000   -0.000000   -1.770457
 ---------------------------------------------------------------------

 SCF Done:  E(RHF) =  -4.95531168001     A.U. after    8 cycles
 E2 =    -0.1003972832D+00 EUMP2 =    -0.50557089631871D+01

 The electronic state is 1-AG.
 Alpha  occ. eigenvalues --   -0.96489  -0.73130  -0.60074  -0.41163  -0.33743
 Alpha virt. eigenvalues --    0.13651   0.19581   0.25607   0.41667   0.59179

 Mulliken charges:
               1
     1  H   -0.103970
     2  H    0.021950
     3  H    0.100913
     4  H   -0.103970
     5  H    0.085077
     6  H    0.085077
     7  H    0.100913
     8  H   -0.103970
     9  H   -0.103970
    10  H    0.021950
 Sum of Mulliken charges =   0.00000

 Dipole moment (field-independent basis, Debye):
    X=              0.0000    Y=             -0.0000    Z=             -0.0000  Tot=              0.0000
 Quadrupole moment (field-independent basis, Debye-Ang):
   XX=            -12.8581   YY=            -15.7060   ZZ=            -18.3081
   XY=             -0.0000   XZ=              0.0000   YZ=             -0.0000

 Normal termination of Gaussian 09 at Thu Feb  9 16:16:23 2017.
