 Gaussian 09, Revision E.01,
 Gaussian 09:  ES64L-G09RevE.01 30-Nov-2015

 ----------------------------------------------------------------------
 #rhf/gen scf(symm,tight,novaracc,noincfock,fulldiag) stable(crhf) geom
 =nocrowd test
 ----------------------------------------------------------------------

 ----------------------------------------------------------------------
 hf stability analysis of h10 triangular lattice, y= 1.5105185869070827
 ----------------------------------------------------------------------
 Symbolic Z-matrix:
 Charge =  0 Multiplicity = 1

                         Standard orientation:
 ---------------------------------------------------------------------
 Center     Atomic      Atomic             Coordinates (Angstroms)
 Number     Number       Type             X           Y           Z
 ---------------------------------------------------------------------
      1          1           0        0.000000    1.510519    0.764440
      2          1           0       -0.000000   -0.000000    1.146660
      3          1           0       -0.000000   -0.000000    0.382220
      4          1           0       -0.000000   -1.510519    0.764440
      5          1           0       -0.000000    1.510519    0.000000
      6          1           0       -0.000000   -1.510519   -0.000000
      7          1           0        0.000000    0.000000   -0.382220
      8          1           0        0.000000    1.510519   -0.764440
      9          1           0       -0.000000   -1.510519   -0.764440
     10          1           0        0.000000    0.000000   -1.146660
 ---------------------------------------------------------------------

 SCF Done:  E(RHF) =  -4.88547891443     A.U. after    8 cycles
 E2 =    -0.9251682597D-01 EUMP2 =    -0.49779957403971D+01

 The electronic state is 1-AG.
 Alpha  occ. eigenvalues --   -0.96272  -0.75399  -0.63421  -0.61355  -0.26241
 Alpha virt. eigenvalues --    0.03940   0.15456   0.78170   0.89865   1.02046

 Mulliken charges:
               1
     1  H   -0.009017
     2  H    0.250233
     3  H   -0.083466
     4  H   -0.009017
     5  H   -0.148733
     6  H   -0.148733
     7  H   -0.083466
     8  H   -0.009017
     9  H   -0.009017
    10  H    0.250233
 Sum of Mulliken charges =  -0.00000

 Dipole moment (field-independent basis, Debye):
    X=              0.0000    Y=              0.0000    Z=             -0.0000  Tot=              0.0000
 Quadrupole moment (field-independent basis, Debye-Ang):
   XX=            -12.5962   YY=            -19.6856   ZZ=            -12.2874
   XY=             -0.0000   XZ=             -0.0000   YZ=              0.0000

 Normal termination of Gaussian 09 at Thu Feb  9 16:28:14 2017.
