 Gaussian 09, Revision E.01,
 Gaussian 09:  ES64L-G09RevE.01 30-Nov-2015

 ----------------------------------------------------------------------
 #rhf/gen scf(symm,tight,novaracc,noincfock,fulldiag) stable(crhf) geom
 =nocrowd test
 ----------------------------------------------------------------------

 hf stability analysis of h10 triangular lattice, y= 0.9649718738094806
 8
 ----------------------------------------------------------------------
 Symbolic Z-matrix:
 Charge =  0 Multiplicity = 1

                         Standard orientation:
 ---------------------------------------------------------------------
 Center     Atomic      Atomic             Coordinates (Angstroms)
 Number     Number       Type             X           Y           Z
 ---------------------------------------------------------------------
      1          1           0       -0.000000    0.964972    1.196616
      2          1           0       -0.000000   -0.000000    1.794924
      3          1           0       -0.000000   -0.000000    0.598308
      4          1           0       -0.000000   -0.964972    1.196616
      5          1           0       -0.000000    0.964972    0.000000
      6          1           0       -0.000000   -0.964972   -0.000000
      7          1           0        0.000000    0.000000   -0.598308
      8          1           0        0.000000    0.964972   -1.196616
      9          1           0       -0.000000   -0.964972   -1.196616
     10          1           0        0.000000    0.000000   -1.794924
 ---------------------------------------------------------------------

 SCF Done:  E(RHF) =  -4.96112795510     A.U. after    8 cycles
 E2 =    -0.9965695326D-01 EUMP2 =    -0.50607849083689D+01

 The electronic state is 1-AG.
 Alpha  occ. eigenvalues --   -0.96314  -0.73379  -0.59410  -0.41904  -0.33578
 Alpha virt. eigenvalues --    0.15610   0.18200   0.24756   0.42673   0.58177

 Mulliken charges:
               1
     1  H   -0.109562
     2  H    0.034004
     3  H    0.099787
     4  H   -0.109562
     5  H    0.085334
     6  H    0.085334
     7  H    0.099787
     8  H   -0.109562
     9  H   -0.109562
    10  H    0.034004
 Sum of Mulliken charges =   0.00000

 Dipole moment (field-independent basis, Debye):
    X=              0.0000    Y=             -0.0000    Z=             -0.0000  Tot=              0.0000
 Quadrupole moment (field-independent basis, Debye-Ang):
   XX=            -12.8674   YY=            -15.8911   ZZ=            -18.0085
   XY=             -0.0000   XZ=              0.0000   YZ=             -0.0000

 Normal termination of Gaussian 09 at Thu Feb  9 16:15:53 2017.
