 Gaussian 09, Revision E.01,
 Gaussian 09:  ES64L-G09RevE.01 30-Nov-2015

 ----------------------------------------------------------------------
 #rhf/gen scf(symm,tight,novaracc,noincfock,fulldiag) stable(crhf) geom
 =nocrowd test
 ----------------------------------------------------------------------

 ----------------------------------------------------------------------
 hf stability analysis of h10 triangular lattice, y= 1.1360822167095599
 ----------------------------------------------------------------------
 Symbolic Z-matrix:
 Charge =  0 Multiplicity = 1

                         Standard orientation:
 ---------------------------------------------------------------------
 Center     Atomic      Atomic             Coordinates (Angstroms)
 Number     Number       Type             X           Y           Z
 ---------------------------------------------------------------------
      1          1           0       -0.000000    1.136082    1.016388
      2          1           0       -0.000000    0.000000    1.524582
      3          1           0       -0.000000    0.000000    0.508194
      4          1           0       -0.000000   -1.136082    1.016388
      5          1           0       -0.000000    1.136082    0.000000
      6          1           0       -0.000000   -1.136082    0.000000
      7          1           0        0.000000    0.000000   -0.508194
      8          1           0        0.000000    1.136082   -1.016388
      9          1           0       -0.000000   -1.136082   -1.016388
     10          1           0        0.000000    0.000000   -1.524582
 ---------------------------------------------------------------------

 SCF Done:  E(RHF) =  -4.81944051369     A.U. after   12 cycles
 E2 =    -0.1076918782D+00 EUMP2 =    -0.49271323919206D+01

 The electronic state is 1-AG.
 Alpha  occ. eigenvalues --   -0.95045  -0.69142  -0.65504  -0.33796  -0.31764
 Alpha virt. eigenvalues --   -0.03433   0.20052   0.43233   0.47131   0.70269

 Mulliken charges:
               1
     1  H    0.012324
     2  H    0.073148
     3  H    0.060138
     4  H    0.012324
     5  H   -0.157933
     6  H   -0.157933
     7  H    0.060138
     8  H    0.012324
     9  H    0.012324
    10  H    0.073148
 Sum of Mulliken charges =   0.00000

 Dipole moment (field-independent basis, Debye):
    X=              0.0000    Y=              0.0000    Z=             -0.0000  Tot=              0.0000
 Quadrupole moment (field-independent basis, Debye-Ang):
   XX=            -12.5988   YY=            -18.5320   ZZ=            -12.6620
   XY=             -0.0000   XZ=              0.0000   YZ=             -0.0000

 Normal termination of Gaussian 09 at Thu Feb  9 16:21:19 2017.
