 Gaussian 09, Revision E.01,
 Gaussian 09:  ES64L-G09RevE.01 30-Nov-2015

 ----------------------------------------------------------------------
 #rhf/gen scf(symm,tight,novaracc,noincfock,fulldiag) stable(crhf) geom
 =nocrowd test
 ----------------------------------------------------------------------

 ----------------------------------------------------------------------
 hf stability analysis of h10 triangular lattice, y= 1.8475661216340147
 ----------------------------------------------------------------------
 Symbolic Z-matrix:
 Charge =  0 Multiplicity = 1

                         Standard orientation:
 ---------------------------------------------------------------------
 Center     Atomic      Atomic             Coordinates (Angstroms)
 Number     Number       Type             X           Y           Z
 ---------------------------------------------------------------------
      1          1           0        0.000000    1.847566    0.624985
      2          1           0        0.000000   -0.000000    0.937477
      3          1           0        0.000000   -0.000000    0.312492
      4          1           0       -0.000000   -1.847566    0.624985
      5          1           0       -0.000000    1.847566    0.000000
      6          1           0       -0.000000   -1.847566   -0.000000
      7          1           0        0.000000    0.000000   -0.312492
      8          1           0        0.000000    1.847566   -0.624985
      9          1           0       -0.000000   -1.847566   -0.624985
     10          1           0        0.000000    0.000000   -0.937477
 ---------------------------------------------------------------------

 SCF Done:  E(RHF) =  -4.41892993507     A.U. after    7 cycles
 E2 =    -0.1351805849D+00 EUMP2 =    -0.45541105199304D+01

 The electronic state is 1-AG.
 Alpha  occ. eigenvalues --   -0.98790  -0.82700  -0.79378  -0.56822  -0.20289
 Alpha virt. eigenvalues --   -0.01362   0.33736   1.06612   1.11382   1.56533

 Mulliken charges:
               1
     1  H    0.119516
     2  H    0.215879
     3  H   -0.147704
     4  H    0.119516
     5  H   -0.307207
     6  H   -0.307207
     7  H   -0.147704
     8  H    0.119516
     9  H    0.119516
    10  H    0.215879
 Sum of Mulliken charges =   0.00000

 Dipole moment (field-independent basis, Debye):
    X=              0.0000    Y=              0.0000    Z=             -0.0000  Tot=              0.0000
 Quadrupole moment (field-independent basis, Debye-Ang):
   XX=            -12.4528   YY=            -16.7538   ZZ=            -13.9502
   XY=             -0.0000   XZ=              0.0000   YZ=              0.0000

 Normal termination of Gaussian 09 at Thu Feb  9 16:31:26 2017.
