 Gaussian 09, Revision E.01,
 Gaussian 09:  ES64L-G09RevE.01 30-Nov-2015

 ----------------------------------------------------------------------
 #rhf/gen scf(symm,tight,novaracc,noincfock,fulldiag) stable(crhf) geom
 =nocrowd test
 ----------------------------------------------------------------------

 hf stability analysis of h10 triangular lattice, y= 0.7834165171194891
 2
 ----------------------------------------------------------------------
 Symbolic Z-matrix:
 Charge =  0 Multiplicity = 1

                         Standard orientation:
 ---------------------------------------------------------------------
 Center     Atomic      Atomic             Coordinates (Angstroms)
 Number     Number       Type             X           Y           Z
 ---------------------------------------------------------------------
      1          1           0        0.000000    0.783417    1.473929
      2          1           0        0.000000    0.000000    2.210894
      3          1           0        0.000000    0.000000    0.736965
      4          1           0       -0.000000   -0.783417    1.473929
      5          1           0       -0.000000    0.783417    0.000000
      6          1           0       -0.000000   -0.783417   -0.000000
      7          1           0        0.000000   -0.000000   -0.736965
      8          1           0        0.000000    0.783417   -1.473929
      9          1           0       -0.000000   -0.783417   -1.473929
     10          1           0        0.000000   -0.000000   -2.210894
 ---------------------------------------------------------------------

 SCF Done:  E(RHF) =  -4.88805063504     A.U. after    8 cycles
 E2 =    -0.9681510615D-01 EUMP2 =    -0.49848657411923D+01

 The electronic state is 1-AG.
 Alpha  occ. eigenvalues --   -0.91951  -0.74855  -0.50917  -0.48181  -0.28722
 Alpha virt. eigenvalues --    0.00010   0.15846   0.37868   0.47566   0.54927

 Mulliken charges:
               1
     1  H   -0.195167
     2  H    0.204425
     3  H    0.135815
     4  H   -0.195167
     5  H    0.050094
     6  H    0.050094
     7  H    0.135815
     8  H   -0.195167
     9  H   -0.195167
    10  H    0.204425
 Sum of Mulliken charges =   0.00000

 Dipole moment (field-independent basis, Debye):
    X=              0.0000    Y=             -0.0000    Z=              0.0000  Tot=              0.0000
 Quadrupole moment (field-independent basis, Debye-Ang):
   XX=            -12.9880   YY=            -18.2793   ZZ=            -12.1600
   XY=             -0.0000   XZ=             -0.0000   YZ=              0.0000

 Normal termination of Gaussian 09 at Thu Feb  9 16:07:54 2017.
