 Gaussian 09, Revision E.01,
 Gaussian 09:  ES64L-G09RevE.01 30-Nov-2015

 ----------------------------------------------------------------------
 #rhf/gen scf(symm,tight,novaracc,noincfock,fulldiag) stable(crhf) geom
 =nocrowd test
 ----------------------------------------------------------------------

 ----------------------------------------------------------------------
 hf stability analysis of h10 triangular lattice, y= 1.4756312273998002
 ----------------------------------------------------------------------
 Symbolic Z-matrix:
 Charge =  0 Multiplicity = 1

                         Standard orientation:
 ---------------------------------------------------------------------
 Center     Atomic      Atomic             Coordinates (Angstroms)
 Number     Number       Type             X           Y           Z
 ---------------------------------------------------------------------
      1          1           0       -0.000000    1.475631    0.782513
      2          1           0        0.000000   -0.000000    1.173770
      3          1           0        0.000000   -0.000000    0.391256
      4          1           0       -0.000000   -1.475631    0.782513
      5          1           0       -0.000000    1.475631    0.000000
      6          1           0       -0.000000   -1.475631    0.000000
      7          1           0        0.000000    0.000000   -0.391256
      8          1           0        0.000000    1.475631   -0.782513
      9          1           0       -0.000000   -1.475631   -0.782513
     10          1           0        0.000000    0.000000   -1.173770
 ---------------------------------------------------------------------

 SCF Done:  E(RHF) =  -4.91119256766     A.U. after    8 cycles
 E2 =    -0.9059531336D-01 EUMP2 =    -0.50017878810196D+01

 The electronic state is 1-AG.
 Alpha  occ. eigenvalues --   -0.96045  -0.74556  -0.61941  -0.61236  -0.26864
 Alpha virt. eigenvalues --    0.04929   0.13496   0.75169   0.87940   0.96692

 Mulliken charges:
               1
     1  H   -0.021819
     2  H    0.257106
     3  H   -0.078383
     4  H   -0.021819
     5  H   -0.135085
     6  H   -0.135085
     7  H   -0.078383
     8  H   -0.021819
     9  H   -0.021819
    10  H    0.257106
 Sum of Mulliken charges =   0.00000

 Dipole moment (field-independent basis, Debye):
    X=              0.0000    Y=              0.0000    Z=              0.0000  Tot=              0.0000
 Quadrupole moment (field-independent basis, Debye-Ang):
   XX=            -12.6040   YY=            -19.9622   ZZ=            -12.0193
   XY=             -0.0000   XZ=             -0.0000   YZ=              0.0000

 Normal termination of Gaussian 09 at Thu Feb  9 16:27:47 2017.
