 Gaussian 09, Revision E.01,
 Gaussian 09:  ES64L-G09RevE.01 30-Nov-2015

 ----------------------------------------------------------------------
 #rhf/gen scf(symm,tight,novaracc,noincfock,fulldiag) stable(crhf) geom
 =nocrowd test
 ----------------------------------------------------------------------

 ----------------------------------------------------------------------
 hf stability analysis of h10 triangular lattice, y= 1.4307794800386300
 ----------------------------------------------------------------------
 Symbolic Z-matrix:
 Charge =  0 Multiplicity = 1

                         Standard orientation:
 ---------------------------------------------------------------------
 Center     Atomic      Atomic             Coordinates (Angstroms)
 Number     Number       Type             X           Y           Z
 ---------------------------------------------------------------------
      1          1           0        0.000000    1.430779    0.807043
      2          1           0        0.000000    0.000000    1.210565
      3          1           0        0.000000    0.000000    0.403521
      4          1           0       -0.000000   -1.430779    0.807043
      5          1           0       -0.000000    1.430779   -0.000000
      6          1           0       -0.000000   -1.430779    0.000000
      7          1           0        0.000000   -0.000000   -0.403521
      8          1           0        0.000000    1.430779   -0.807043
      9          1           0       -0.000000   -1.430779   -0.807043
     10          1           0        0.000000   -0.000000   -1.210565
 ---------------------------------------------------------------------

 SCF Done:  E(RHF) =  -4.93596126502     A.U. after    8 cycles
 E2 =    -0.8887359286D-01 EUMP2 =    -0.50248348578762D+01

 The electronic state is 1-AG.
 Alpha  occ. eigenvalues --   -0.95743  -0.73436  -0.62721  -0.58252  -0.27649
 Alpha virt. eigenvalues --    0.06346   0.10971   0.71299   0.85557   0.89903

 Mulliken charges:
               1
     1  H   -0.037761
     2  H    0.266298
     3  H   -0.072183
     4  H   -0.037761
     5  H   -0.118593
     6  H   -0.118593
     7  H   -0.072183
     8  H   -0.037761
     9  H   -0.037761
    10  H    0.266298
 Sum of Mulliken charges =  -0.00000

 Dipole moment (field-independent basis, Debye):
    X=              0.0000    Y=             -0.0000    Z=             -0.0000  Tot=              0.0000
 Quadrupole moment (field-independent basis, Debye-Ang):
   XX=            -12.6113   YY=            -20.3000   ZZ=            -11.6423
   XY=             -0.0000   XZ=             -0.0000   YZ=              0.0000

 Normal termination of Gaussian 09 at Thu Feb  9 16:27:10 2017.
