 Gaussian 09, Revision E.01,
 Gaussian 09:  ES64L-G09RevE.01 30-Nov-2015

 ----------------------------------------------------------------------
 #rhf/gen scf(symm,tight,novaracc,noincfock,fulldiag) stable(crhf) geom
 =nocrowd test
 ----------------------------------------------------------------------

 ----------------------------------------------------------------------
 hf stability analysis of h10 triangular lattice, y= 1.0644781770328475
 ----------------------------------------------------------------------
 Symbolic Z-matrix:
 Charge =  0 Multiplicity = 1

                         Standard orientation:
 ---------------------------------------------------------------------
 Center     Atomic      Atomic             Coordinates (Angstroms)
 Number     Number       Type             X           Y           Z
 ---------------------------------------------------------------------
      1          1           0        0.000000    1.064478    1.084757
      2          1           0        0.000000    0.000000    1.627136
      3          1           0        0.000000    0.000000    0.542379
      4          1           0       -0.000000   -1.064478    1.084757
      5          1           0       -0.000000    1.064478    0.000000
      6          1           0       -0.000000   -1.064478   -0.000000
      7          1           0        0.000000   -0.000000   -0.542379
      8          1           0        0.000000    1.064478   -1.084757
      9          1           0       -0.000000   -1.064478   -1.084757
     10          1           0        0.000000   -0.000000   -1.627136
 ---------------------------------------------------------------------

 SCF Done:  E(RHF) =  -4.88362242784     A.U. after   10 cycles
 E2 =    -0.1070685243D+00 EUMP2 =    -0.49906909521713D+01

 The electronic state is 1-AG.
 Alpha  occ. eigenvalues --   -0.97300  -0.71285  -0.63973  -0.36176  -0.34311
 Alpha virt. eigenvalues --    0.02075   0.25439   0.31582   0.38912   0.64431

 Mulliken charges:
               1
     1  H   -0.062206
     2  H   -0.060345
     3  H    0.116303
     4  H   -0.062206
     5  H    0.068454
     6  H    0.068454
     7  H    0.116303
     8  H   -0.062206
     9  H   -0.062206
    10  H   -0.060345
 Sum of Mulliken charges =  -0.00000

 Dipole moment (field-independent basis, Debye):
    X=             -0.0000    Y=             -0.0000    Z=             -0.0000  Tot=              0.0000
 Quadrupole moment (field-independent basis, Debye-Ang):
   XX=            -12.7930   YY=            -14.4694   ZZ=            -19.9308
   XY=             -0.0000   XZ=              0.0000   YZ=             -0.0000

 Normal termination of Gaussian 09 at Thu Feb  9 16:19:16 2017.
