 Gaussian 09, Revision E.01,
 Gaussian 09:  ES64L-G09RevE.01 30-Nov-2015

 ----------------------------------------------------------------------
 #rhf/gen scf(symm,tight,novaracc,noincfock,fulldiag) stable(crhf) geom
 =nocrowd test
 ----------------------------------------------------------------------

 ----------------------------------------------------------------------
 hf stability analysis of h10 triangular lattice, y= 1.2611797784096244
 ----------------------------------------------------------------------
 Symbolic Z-matrix:
 Charge =  0 Multiplicity = 1

                         Standard orientation:
 ---------------------------------------------------------------------
 Center     Atomic      Atomic             Coordinates (Angstroms)
 Number     Number       Type             X           Y           Z
 ---------------------------------------------------------------------
      1          1           0        0.000000    1.261180    0.915572
      2          1           0        0.000000    0.000000    1.373358
      3          1           0        0.000000    0.000000    0.457786
      4          1           0       -0.000000   -1.261180    0.915572
      5          1           0       -0.000000    1.261180    0.000000
      6          1           0       -0.000000   -1.261180   -0.000000
      7          1           0        0.000000    0.000000   -0.457786
      8          1           0        0.000000    1.261180   -0.915572
      9          1           0       -0.000000   -1.261180   -0.915572
     10          1           0        0.000000    0.000000   -1.373358
 ---------------------------------------------------------------------

 SCF Done:  E(RHF) =  -4.92868779208     A.U. after    8 cycles
 E2 =    -0.9089308620D-01 EUMP2 =    -0.50195808782750D+01

 The electronic state is 1-AG.
 Alpha  occ. eigenvalues --   -0.94478  -0.68747  -0.65919  -0.45027  -0.30241
 Alpha virt. eigenvalues --    0.01541   0.13249   0.56585   0.65247   0.77301

 Mulliken charges:
               1
     1  H   -0.084210
     2  H    0.291576
     3  H   -0.045876
     4  H   -0.084210
     5  H   -0.077280
     6  H   -0.077280
     7  H   -0.045876
     8  H   -0.084210
     9  H   -0.084210
    10  H    0.291576
 Sum of Mulliken charges =  -0.00000

 Dipole moment (field-independent basis, Debye):
    X=              0.0000    Y=             -0.0000    Z=             -0.0000  Tot=              0.0000
 Quadrupole moment (field-independent basis, Debye-Ang):
   XX=            -12.6083   YY=            -21.2788   ZZ=             -9.9539
   XY=             -0.0000   XZ=             -0.0000   YZ=              0.0000

 Normal termination of Gaussian 09 at Thu Feb  9 16:24:14 2017.
