 Gaussian 09, Revision E.01,
 Gaussian 09:  ES64L-G09RevE.01 30-Nov-2015

 ----------------------------------------------------------------------
 #rhf/gen scf(symm,tight,novaracc,noincfock,fulldiag) stable(crhf) geom
 =nocrowd test
 ----------------------------------------------------------------------

 hf stability analysis of h10 triangular lattice, y= 0.9890365543110610
 8
 ----------------------------------------------------------------------
 Symbolic Z-matrix:
 Charge =  0 Multiplicity = 1

                         Standard orientation:
 ---------------------------------------------------------------------
 Center     Atomic      Atomic             Coordinates (Angstroms)
 Number     Number       Type             X           Y           Z
 ---------------------------------------------------------------------
      1          1           0        0.000000    0.989037    1.167500
      2          1           0       -0.000000    0.000000    1.751251
      3          1           0       -0.000000    0.000000    0.583750
      4          1           0       -0.000000   -0.989037    1.167500
      5          1           0       -0.000000    0.989037   -0.000000
      6          1           0       -0.000000   -0.989037    0.000000
      7          1           0        0.000000   -0.000000   -0.583750
      8          1           0        0.000000    0.989037   -1.167500
      9          1           0       -0.000000   -0.989037   -1.167500
     10          1           0        0.000000   -0.000000   -1.751251
 ---------------------------------------------------------------------

 SCF Done:  E(RHF) =  -4.94956816853     A.U. after    8 cycles
 E2 =    -0.1010470447D+00 EUMP2 =    -0.50506152132593D+01

 The electronic state is 1-AG.
 Alpha  occ. eigenvalues --   -0.96619  -0.72921  -0.60595  -0.40561  -0.33861
 Alpha virt. eigenvalues --    0.12109   0.20656   0.26307   0.40912   0.59944

 Mulliken charges:
               1
     1  H   -0.099434
     2  H    0.012228
     3  H    0.102051
     4  H   -0.099434
     5  H    0.084587
     6  H    0.084587
     7  H    0.102051
     8  H   -0.099434
     9  H   -0.099434
    10  H    0.012228
 Sum of Mulliken charges =  -0.00000

 Dipole moment (field-independent basis, Debye):
    X=              0.0000    Y=              0.0000    Z=              0.0000  Tot=              0.0000
 Quadrupole moment (field-independent basis, Debye-Ang):
   XX=            -12.8505   YY=            -15.5560   ZZ=            -18.5393
   XY=             -0.0000   XZ=              0.0000   YZ=              0.0000

 Normal termination of Gaussian 09 at Thu Feb  9 16:16:45 2017.
