 Gaussian 09, Revision E.01,
 Gaussian 09:  ES64L-G09RevE.01 30-Nov-2015

 ----------------------------------------------------------------------
 #rhf/gen scf(symm,tight,novaracc,noincfock,fulldiag) stable(crhf) geom
 =nocrowd test
 ----------------------------------------------------------------------

 ----------------------------------------------------------------------
 hf stability analysis of h10 triangular lattice, y= 1.0269137823584431
 ----------------------------------------------------------------------
 Symbolic Z-matrix:
 Charge =  0 Multiplicity = 1

                         Standard orientation:
 ---------------------------------------------------------------------
 Center     Atomic      Atomic             Coordinates (Angstroms)
 Number     Number       Type             X           Y           Z
 ---------------------------------------------------------------------
      1          1           0        0.000000    1.026914    1.124438
      2          1           0        0.000000    0.000000    1.686657
      3          1           0        0.000000    0.000000    0.562219
      4          1           0       -0.000000   -1.026914    1.124438
      5          1           0       -0.000000    1.026914   -0.000000
      6          1           0       -0.000000   -1.026914    0.000000
      7          1           0        0.000000   -0.000000   -0.562219
      8          1           0        0.000000    1.026914   -1.124438
      9          1           0       -0.000000   -1.026914   -1.124438
     10          1           0        0.000000   -0.000000   -1.686657
 ---------------------------------------------------------------------

 SCF Done:  E(RHF) =  -4.92189658579     A.U. after    9 cycles
 E2 =    -0.1037383549D+00 EUMP2 =    -0.50256349406918D+01

 The electronic state is 1-AG.
 Alpha  occ. eigenvalues --   -0.97006  -0.72126  -0.62350  -0.38396  -0.34171
 Alpha virt. eigenvalues --    0.06901   0.23922   0.28879   0.38930   0.62372

 Mulliken charges:
               1
     1  H   -0.082634
     2  H   -0.022697
     3  H    0.107694
     4  H   -0.082634
     5  H    0.080271
     6  H    0.080271
     7  H    0.107694
     8  H   -0.082634
     9  H   -0.082634
    10  H   -0.022697
 Sum of Mulliken charges =  -0.00000

 Dipole moment (field-independent basis, Debye):
    X=              0.0000    Y=             -0.0000    Z=              0.0000  Tot=              0.0000
 Quadrupole moment (field-independent basis, Debye-Ang):
   XX=            -12.8229   YY=            -15.0176   ZZ=            -19.2896
   XY=             -0.0000   XZ=              0.0000   YZ=              0.0000

 Normal termination of Gaussian 09 at Thu Feb  9 16:18:03 2017.
