 Gaussian 09, Revision E.01,
 Gaussian 09:  ES64L-G09RevE.01 30-Nov-2015

 ----------------------------------------------------------------------
 #rhf/gen scf(symm,tight,novaracc,noincfock,fulldiag) stable(crhf) geom
 =nocrowd test
 ----------------------------------------------------------------------

 ----------------------------------------------------------------------
 hf stability analysis of h10 triangular lattice, y= 1.7736219748641979
 ----------------------------------------------------------------------
 Symbolic Z-matrix:
 Charge =  0 Multiplicity = 1

                         Standard orientation:
 ---------------------------------------------------------------------
 Center     Atomic      Atomic             Coordinates (Angstroms)
 Number     Number       Type             X           Y           Z
 ---------------------------------------------------------------------
      1          1           0        0.000000    1.773622    0.651041
      2          1           0       -0.000000    0.000000    0.976562
      3          1           0       -0.000000    0.000000    0.325520
      4          1           0       -0.000000   -1.773622    0.651041
      5          1           0       -0.000000    1.773622   -0.000000
      6          1           0       -0.000000   -1.773622    0.000000
      7          1           0        0.000000   -0.000000   -0.325520
      8          1           0        0.000000    1.773622   -0.651041
      9          1           0       -0.000000   -1.773622   -0.651041
     10          1           0        0.000000   -0.000000   -0.976562
 ---------------------------------------------------------------------

 SCF Done:  E(RHF) =  -4.54869613174     A.U. after    7 cycles
 E2 =    -0.1224418249D+00 EUMP2 =    -0.46711379566414D+01

 The electronic state is 1-AG.
 Alpha  occ. eigenvalues --   -0.98109  -0.81195  -0.76572  -0.57627  -0.21540
 Alpha virt. eigenvalues --   -0.00754   0.29873   1.00448   1.06266   1.44214

 Mulliken charges:
               1
     1  H    0.091478
     2  H    0.217199
     3  H   -0.131314
     4  H    0.091478
     5  H   -0.268840
     6  H   -0.268840
     7  H   -0.131314
     8  H    0.091478
     9  H    0.091478
    10  H    0.217199
 Sum of Mulliken charges =  -0.00000

 Dipole moment (field-independent basis, Debye):
    X=              0.0000    Y=              0.0000    Z=              0.0000  Tot=              0.0000
 Quadrupole moment (field-independent basis, Debye-Ang):
   XX=            -12.4921   YY=            -17.3948   ZZ=            -13.7018
   XY=             -0.0000   XZ=              0.0000   YZ=              0.0000

 Normal termination of Gaussian 09 at Thu Feb  9 16:30:53 2017.
