 Gaussian 09, Revision E.01,
 Gaussian 09:  ES64L-G09RevE.01 30-Nov-2015

 ----------------------------------------------------------------------
 #rhf/gen scf(symm,tight,novaracc,noincfock,fulldiag) stable(crhf) geom
 =nocrowd test
 ----------------------------------------------------------------------

 hf stability analysis of h10 triangular lattice, y= 0.8014604468113287
 7
 ----------------------------------------------------------------------
 Symbolic Z-matrix:
 Charge =  0 Multiplicity = 1

                         Standard orientation:
 ---------------------------------------------------------------------
 Center     Atomic      Atomic             Coordinates (Angstroms)
 Number     Number       Type             X           Y           Z
 ---------------------------------------------------------------------
      1          1           0        0.000000    0.801460    1.440746
      2          1           0        0.000000   -0.000000    2.161118
      3          1           0        0.000000   -0.000000    0.720373
      4          1           0       -0.000000   -0.801460    1.440746
      5          1           0       -0.000000    0.801460    0.000000
      6          1           0       -0.000000   -0.801460   -0.000000
      7          1           0        0.000000    0.000000   -0.720373
      8          1           0        0.000000    0.801460   -1.440746
      9          1           0       -0.000000   -0.801460   -1.440746
     10          1           0        0.000000    0.000000   -2.161118
 ---------------------------------------------------------------------

 SCF Done:  E(RHF) =  -4.90828642105     A.U. after    8 cycles
 E2 =    -0.9648426297D-01 EUMP2 =    -0.50047706840174D+01

 The electronic state is 1-AG.
 Alpha  occ. eigenvalues --   -0.92584  -0.74915  -0.50138  -0.49520  -0.29469
 Alpha virt. eigenvalues --    0.01585   0.16458   0.39957   0.44505   0.54395

 Mulliken charges:
               1
     1  H   -0.185123
     2  H    0.186649
     3  H    0.125896
     4  H   -0.185123
     5  H    0.057702
     6  H    0.057702
     7  H    0.125896
     8  H   -0.185123
     9  H   -0.185123
    10  H    0.186649
 Sum of Mulliken charges =   0.00000

 Dipole moment (field-independent basis, Debye):
    X=              0.0000    Y=              0.0000    Z=             -0.0000  Tot=              0.0000
 Quadrupole moment (field-independent basis, Debye-Ang):
   XX=            -12.9764   YY=            -18.0541   ZZ=            -12.9279
   XY=             -0.0000   XZ=             -0.0000   YZ=             -0.0000

 Normal termination of Gaussian 09 at Thu Feb  9 16:08:50 2017.
