 Gaussian 09, Revision E.01,
 Gaussian 09:  ES64L-G09RevE.01 30-Nov-2015

 ----------------------------------------------------------------------
 #rhf/gen scf(symm,tight,novaracc,noincfock,fulldiag) stable(crhf) geom
 =nocrowd test
 ----------------------------------------------------------------------

 hf stability analysis of h10 triangular lattice, y= 0.9678001231605789
 5
 ----------------------------------------------------------------------
 Symbolic Z-matrix:
 Charge =  0 Multiplicity = 1

                         Standard orientation:
 ---------------------------------------------------------------------
 Center     Atomic      Atomic             Coordinates (Angstroms)
 Number     Number       Type             X           Y           Z
 ---------------------------------------------------------------------
      1          1           0        0.000000    0.967800    1.193119
      2          1           0       -0.000000    0.000000    1.789678
      3          1           0       -0.000000    0.000000    0.596559
      4          1           0       -0.000000   -0.967800    1.193119
      5          1           0       -0.000000    0.967800    0.000000
      6          1           0       -0.000000   -0.967800    0.000000
      7          1           0        0.000000    0.000000   -0.596559
      8          1           0        0.000000    0.967800   -1.193119
      9          1           0       -0.000000   -0.967800   -1.193119
     10          1           0        0.000000    0.000000   -1.789678
 ---------------------------------------------------------------------

 SCF Done:  E(RHF) =  -4.96001768355     A.U. after    8 cycles
 E2 =    -0.9980779091D-01 EUMP2 =    -0.50598254744592D+01

 The electronic state is 1-AG.
 Alpha  occ. eigenvalues --   -0.96352  -0.73328  -0.59552  -0.41748  -0.33615
 Alpha virt. eigenvalues --    0.15191   0.18496   0.24935   0.42454   0.58395

 Mulliken charges:
               1
     1  H   -0.108378
     2  H    0.031449
     3  H    0.099998
     4  H   -0.108378
     5  H    0.085310
     6  H    0.085310
     7  H    0.099998
     8  H   -0.108378
     9  H   -0.108378
    10  H    0.031449
 Sum of Mulliken charges =  -0.00000

 Dipole moment (field-independent basis, Debye):
    X=              0.0000    Y=              0.0000    Z=              0.0000  Tot=              0.0000
 Quadrupole moment (field-independent basis, Debye-Ang):
   XX=            -12.8654   YY=            -15.8520   ZZ=            -18.0732
   XY=             -0.0000   XZ=              0.0000   YZ=              0.0000

 Normal termination of Gaussian 09 at Thu Feb  9 16:15:59 2017.
