 Gaussian 09, Revision E.01,
 Gaussian 09:  ES64L-G09RevE.01 30-Nov-2015

 ----------------------------------------------------------------------
 #rhf/gen scf(symm,tight,novaracc,noincfock,fulldiag) stable(crhf) geom
 =nocrowd test
 ----------------------------------------------------------------------

 ----------------------------------------------------------------------
 hf stability analysis of h10 triangular lattice, y= 1.6071456321126634
 ----------------------------------------------------------------------
 Symbolic Z-matrix:
 Charge =  0 Multiplicity = 1

                         Standard orientation:
 ---------------------------------------------------------------------
 Center     Atomic      Atomic             Coordinates (Angstroms)
 Number     Number       Type             X           Y           Z
 ---------------------------------------------------------------------
      1          1           0       -0.000000    1.607146    0.718479
      2          1           0       -0.000000   -0.000000    1.077719
      3          1           0       -0.000000   -0.000000    0.359240
      4          1           0       -0.000000   -1.607146    0.718479
      5          1           0       -0.000000    1.607146    0.000000
      6          1           0       -0.000000   -1.607146   -0.000000
      7          1           0        0.000000    0.000000   -0.359240
      8          1           0        0.000000    1.607146   -0.718479
      9          1           0       -0.000000   -1.607146   -0.718479
     10          1           0        0.000000    0.000000   -1.077719
 ---------------------------------------------------------------------

 SCF Done:  E(RHF) =  -4.78836521856     A.U. after    7 cycles
 E2 =    -0.1004265107D+00 EUMP2 =    -0.48887917292974D+01

 The electronic state is 1-AG.
 Alpha  occ. eigenvalues --   -0.96892  -0.77626  -0.68892  -0.59837  -0.24492
 Alpha virt. eigenvalues --    0.01688   0.20843   0.86425   0.95519   1.17187

 Mulliken charges:
               1
     1  H    0.027521
     2  H    0.233608
     3  H   -0.099047
     4  H    0.027521
     5  H   -0.189603
     6  H   -0.189603
     7  H   -0.099047
     8  H    0.027521
     9  H    0.027521
    10  H    0.233608
 Sum of Mulliken charges =   0.00000

 Dipole moment (field-independent basis, Debye):
    X=              0.0000    Y=             -0.0000    Z=             -0.0000  Tot=              0.0000
 Quadrupole moment (field-independent basis, Debye-Ang):
   XX=            -12.5663   YY=            -18.8713   ZZ=            -12.9216
   XY=             -0.0000   XZ=             -0.0000   YZ=              0.0000

 Normal termination of Gaussian 09 at Thu Feb  9 16:29:21 2017.
