 Gaussian 09, Revision E.01,
 Gaussian 09:  ES64L-G09RevE.01 30-Nov-2015

 ----------------------------------------------------------------------
 #rhf/gen scf(symm,tight,novaracc,noincfock,fulldiag) stable(crhf) geom
 =nocrowd test
 ----------------------------------------------------------------------

 hf stability analysis of h10 triangular lattice, y= 0.9304301475609667
 6
 ----------------------------------------------------------------------
 Symbolic Z-matrix:
 Charge =  0 Multiplicity = 1

                         Standard orientation:
 ---------------------------------------------------------------------
 Center     Atomic      Atomic             Coordinates (Angstroms)
 Number     Number       Type             X           Y           Z
 ---------------------------------------------------------------------
      1          1           0        0.000000    0.930430    1.241039
      2          1           0        0.000000    0.000000    1.861559
      3          1           0        0.000000    0.000000    0.620520
      4          1           0       -0.000000   -0.930430    1.241039
      5          1           0       -0.000000    0.930430   -0.000000
      6          1           0       -0.000000   -0.930430    0.000000
      7          1           0        0.000000   -0.000000   -0.620520
      8          1           0        0.000000    0.930430   -1.241039
      9          1           0       -0.000000   -0.930430   -1.241039
     10          1           0        0.000000   -0.000000   -1.861559
 ---------------------------------------------------------------------

 SCF Done:  E(RHF) =  -4.96925674403     A.U. after    8 cycles
 E2 =    -0.9808003611D-01 EUMP2 =    -0.50673367801438D+01

 The electronic state is 1-AG.
 Alpha  occ. eigenvalues --   -0.95782  -0.73956  -0.57604  -0.43784  -0.33048
 Alpha virt. eigenvalues --    0.14521   0.20917   0.22655   0.45477   0.55298

 Mulliken charges:
               1
     1  H   -0.124077
     2  H    0.065281
     3  H    0.098504
     4  H   -0.124077
     5  H    0.084369
     6  H    0.084369
     7  H    0.098504
     8  H   -0.124077
     9  H   -0.124077
    10  H    0.065281
 Sum of Mulliken charges =  -0.00000

 Dipole moment (field-independent basis, Debye):
    X=              0.0000    Y=             -0.0000    Z=             -0.0000  Tot=              0.0000
 Quadrupole moment (field-independent basis, Debye-Ang):
   XX=            -12.8911   YY=            -16.3642   ZZ=            -17.1653
   XY=             -0.0000   XZ=              0.0000   YZ=             -0.0000

 Normal termination of Gaussian 09 at Thu Feb  9 16:14:37 2017.
