 Gaussian 09, Revision E.01,
 Gaussian 09:  ES64L-G09RevE.01 30-Nov-2015

 ----------------------------------------------------------------------
 #rhf/gen scf(symm,tight,novaracc,noincfock,fulldiag) stable(crhf) geom
 =nocrowd test
 ----------------------------------------------------------------------

 ----------------------------------------------------------------------
 hf stability analysis of h10 triangular lattice, y= 1.1523084791052536
 ----------------------------------------------------------------------
 Symbolic Z-matrix:
 Charge =  0 Multiplicity = 1

                         Standard orientation:
 ---------------------------------------------------------------------
 Center     Atomic      Atomic             Coordinates (Angstroms)
 Number     Number       Type             X           Y           Z
 ---------------------------------------------------------------------
      1          1           0        0.000000    1.152308    1.002076
      2          1           0       -0.000000    0.000000    1.503114
      3          1           0       -0.000000    0.000000    0.501038
      4          1           0       -0.000000   -1.152308    1.002076
      5          1           0       -0.000000    1.152308   -0.000000
      6          1           0       -0.000000   -1.152308    0.000000
      7          1           0        0.000000   -0.000000   -0.501038
      8          1           0        0.000000    1.152308   -1.002076
      9          1           0       -0.000000   -1.152308   -1.002076
     10          1           0        0.000000   -0.000000   -1.503114
 ---------------------------------------------------------------------

 SCF Done:  E(RHF) =  -4.83231351121     A.U. after   10 cycles
 E2 =    -0.1046856752D+00 EUMP2 =    -0.49369991863693D+01

 The electronic state is 1-AG.
 Alpha  occ. eigenvalues --   -0.94456  -0.68533  -0.65723  -0.35188  -0.31407
 Alpha virt. eigenvalues --   -0.03201   0.18830   0.45924   0.49754   0.71592

 Mulliken charges:
               1
     1  H   -0.027975
     2  H    0.167502
     3  H    0.026336
     4  H   -0.027975
     5  H   -0.137887
     6  H   -0.137887
     7  H    0.026336
     8  H   -0.027975
     9  H   -0.027975
    10  H    0.167502
 Sum of Mulliken charges =  -0.00000

 Dipole moment (field-independent basis, Debye):
    X=              0.0000    Y=             -0.0000    Z=              0.0000  Tot=              0.0000
 Quadrupole moment (field-independent basis, Debye-Ang):
   XX=            -12.5862   YY=            -19.9790   ZZ=            -10.8176
   XY=             -0.0000   XZ=             -0.0000   YZ=              0.0000

 Normal termination of Gaussian 09 at Thu Feb  9 16:21:44 2017.
