 Gaussian 09, Revision E.01,
 Gaussian 09:  ES64L-G09RevE.01 30-Nov-2015

 ----------------------------------------------------------------------
 #rhf/gen scf(symm,tight,novaracc,noincfock,fulldiag) stable(crhf) geom
 =nocrowd test
 ----------------------------------------------------------------------

 hf stability analysis of h10 triangular lattice, y= 0.8406196945607729
 0
 ----------------------------------------------------------------------
 Symbolic Z-matrix:
 Charge =  0 Multiplicity = 1

                         Standard orientation:
 ---------------------------------------------------------------------
 Center     Atomic      Atomic             Coordinates (Angstroms)
 Number     Number       Type             X           Y           Z
 ---------------------------------------------------------------------
      1          1           0        0.000000    0.840620    1.373630
      2          1           0        0.000000   -0.000000    2.060445
      3          1           0        0.000000   -0.000000    0.686815
      4          1           0       -0.000000   -0.840620    1.373630
      5          1           0       -0.000000    0.840620    0.000000
      6          1           0       -0.000000   -0.840620   -0.000000
      7          1           0        0.000000    0.000000   -0.686815
      8          1           0        0.000000    0.840620   -1.373630
      9          1           0       -0.000000   -0.840620   -1.373630
     10          1           0        0.000000    0.000000   -2.060445
 ---------------------------------------------------------------------

 SCF Done:  E(RHF) =  -4.94224103844     A.U. after    8 cycles
 E2 =    -0.9624695468D-01 EUMP2 =    -0.50384879931170D+01

 The electronic state is 1-AG.
 Alpha  occ. eigenvalues --   -0.93787  -0.74863  -0.52230  -0.48342  -0.30861
 Alpha virt. eigenvalues --    0.05241   0.18024   0.36224   0.45904   0.52407

 Mulliken charges:
               1
     1  H   -0.164828
     2  H    0.148776
     3  H    0.110472
     4  H   -0.164828
     5  H    0.070409
     6  H    0.070409
     7  H    0.110472
     8  H   -0.164828
     9  H   -0.164828
    10  H    0.148776
 Sum of Mulliken charges =   0.00000

 Dipole moment (field-independent basis, Debye):
    X=              0.0000    Y=              0.0000    Z=             -0.0000  Tot=              0.0000
 Quadrupole moment (field-independent basis, Debye-Ang):
   XX=            -12.9509   YY=            -17.5543   ZZ=            -14.4283
   XY=             -0.0000   XZ=             -0.0000   YZ=             -0.0000

 Normal termination of Gaussian 09 at Thu Feb  9 16:10:43 2017.
