 Gaussian 09, Revision E.01,
 Gaussian 09:  ES64L-G09RevE.01 30-Nov-2015

 ----------------------------------------------------------------------
 #rhf/gen scf(symm,tight,novaracc,noincfock,fulldiag) stable(crhf) geom
 =nocrowd test
 ----------------------------------------------------------------------

 ----------------------------------------------------------------------
 hf stability analysis of h10 triangular lattice, y= 1.2232082178908650
 ----------------------------------------------------------------------
 Symbolic Z-matrix:
 Charge =  0 Multiplicity = 1

                         Standard orientation:
 ---------------------------------------------------------------------
 Center     Atomic      Atomic             Coordinates (Angstroms)
 Number     Number       Type             X           Y           Z
 ---------------------------------------------------------------------
      1          1           0        0.000000    1.223208    0.943993
      2          1           0        0.000000    0.000000    1.415990
      3          1           0        0.000000    0.000000    0.471997
      4          1           0       -0.000000   -1.223208    0.943993
      5          1           0       -0.000000    1.223208    0.000000
      6          1           0       -0.000000   -1.223208    0.000000
      7          1           0        0.000000   -0.000000   -0.471997
      8          1           0        0.000000    1.223208   -0.943993
      9          1           0       -0.000000   -1.223208   -0.943993
     10          1           0        0.000000   -0.000000   -1.415990
 ---------------------------------------------------------------------

 SCF Done:  E(RHF) =  -4.90182170016     A.U. after    9 cycles
 E2 =    -0.9387976280D-01 EUMP2 =    -0.49957014629641D+01

 The electronic state is 1-AG.
 Alpha  occ. eigenvalues --   -0.94226  -0.67612  -0.66712  -0.41646  -0.30678
 Alpha virt. eigenvalues --   -0.00426   0.15088   0.53235   0.59926   0.75500

 Mulliken charges:
               1
     1  H   -0.084949
     2  H    0.284687
     3  H   -0.034214
     4  H   -0.084949
     5  H   -0.080575
     6  H   -0.080575
     7  H   -0.034214
     8  H   -0.084949
     9  H   -0.084949
    10  H    0.284687
 Sum of Mulliken charges =  -0.00000

 Dipole moment (field-independent basis, Debye):
    X=              0.0000    Y=             -0.0000    Z=              0.0000  Tot=              0.0000
 Quadrupole moment (field-independent basis, Debye-Ang):
   XX=            -12.6001   YY=            -21.3289   ZZ=             -9.6421
   XY=             -0.0000   XZ=             -0.0000   YZ=              0.0000

 Normal termination of Gaussian 09 at Thu Feb  9 16:23:25 2017.
