 Gaussian 09, Revision E.01,
 Gaussian 09:  ES64L-G09RevE.01 30-Nov-2015

 ----------------------------------------------------------------------
 #rhf/gen scf(symm,tight,novaracc,noincfock,fulldiag) stable(crhf) geom
 =nocrowd test
 ----------------------------------------------------------------------

 ----------------------------------------------------------------------
 hf stability analysis of h10 triangular lattice, y= 1.0542517079039999
 ----------------------------------------------------------------------
 Symbolic Z-matrix:
 Charge =  0 Multiplicity = 1

                         Standard orientation:
 ---------------------------------------------------------------------
 Center     Atomic      Atomic             Coordinates (Angstroms)
 Number     Number       Type             X           Y           Z
 ---------------------------------------------------------------------
      1          1           0       -0.000000    1.054252    1.095280
      2          1           0       -0.000000    0.000000    1.642920
      3          1           0       -0.000000    0.000000    0.547640
      4          1           0       -0.000000   -1.054252    1.095280
      5          1           0       -0.000000    1.054252   -0.000000
      6          1           0       -0.000000   -1.054252    0.000000
      7          1           0        0.000000   -0.000000   -0.547640
      8          1           0        0.000000    1.054252   -1.095280
      9          1           0       -0.000000   -1.054252   -1.095280
     10          1           0        0.000000   -0.000000   -1.642920
 ---------------------------------------------------------------------

 SCF Done:  E(RHF) =  -4.89505479866     A.U. after    9 cycles
 E2 =    -0.1060909676D+00 EUMP2 =    -0.50011457662603D+01

 The electronic state is 1-AG.
 Alpha  occ. eigenvalues --   -0.97227  -0.71516  -0.63542  -0.36790  -0.34291
 Alpha virt. eigenvalues --    0.03357   0.25263   0.30830   0.38662   0.63899

 Mulliken charges:
               1
     1  H   -0.068511
     2  H   -0.049511
     3  H    0.113564
     4  H   -0.068511
     5  H    0.072968
     6  H    0.072968
     7  H    0.113564
     8  H   -0.068511
     9  H   -0.068511
    10  H   -0.049511
 Sum of Mulliken charges =  -0.00000

 Dipole moment (field-independent basis, Debye):
    X=             -0.0000    Y=              0.0000    Z=              0.0000  Tot=              0.0000
 Quadrupole moment (field-independent basis, Debye-Ang):
   XX=            -12.8015   YY=            -14.6198   ZZ=            -19.7680
   XY=             -0.0000   XZ=              0.0000   YZ=              0.0000

 Normal termination of Gaussian 09 at Thu Feb  9 16:18:56 2017.
