 Gaussian 09, Revision E.01,
 Gaussian 09:  ES64L-G09RevE.01 30-Nov-2015

 ----------------------------------------------------------------------
 #rhf/gen scf(symm,tight,novaracc,noincfock,fulldiag) stable(crhf) geom
 =nocrowd test
 ----------------------------------------------------------------------

 ----------------------------------------------------------------------
 hf stability analysis of h10 triangular lattice, y= 1.4502497985828720
 ----------------------------------------------------------------------
 Symbolic Z-matrix:
 Charge =  0 Multiplicity = 1

                         Standard orientation:
 ---------------------------------------------------------------------
 Center     Atomic      Atomic             Coordinates (Angstroms)
 Number     Number       Type             X           Y           Z
 ---------------------------------------------------------------------
      1          1           0       -0.000000    1.450250    0.796208
      2          1           0       -0.000000   -0.000000    1.194312
      3          1           0       -0.000000   -0.000000    0.398104
      4          1           0       -0.000000   -1.450250    0.796208
      5          1           0       -0.000000    1.450250    0.000000
      6          1           0       -0.000000   -1.450250   -0.000000
      7          1           0        0.000000    0.000000   -0.398104
      8          1           0        0.000000    1.450250   -0.796208
      9          1           0       -0.000000   -1.450250   -0.796208
     10          1           0        0.000000    0.000000   -1.194312
 ---------------------------------------------------------------------

 SCF Done:  E(RHF) =  -4.92640583004     A.U. after    8 cycles
 E2 =    -0.8951630669D-01 EUMP2 =    -0.50159221367283D+01

 The electronic state is 1-AG.
 Alpha  occ. eigenvalues --   -0.95876  -0.73927  -0.62379  -0.59572  -0.27311
 Alpha virt. eigenvalues --    0.05710   0.12068   0.72981   0.86579   0.92837

 Mulliken charges:
               1
     1  H   -0.030926
     2  H    0.262279
     3  H   -0.074836
     4  H   -0.030926
     5  H   -0.125592
     6  H   -0.125592
     7  H   -0.074836
     8  H   -0.030926
     9  H   -0.030926
    10  H    0.262279
 Sum of Mulliken charges =  -0.00000

 Dipole moment (field-independent basis, Debye):
    X=              0.0000    Y=             -0.0000    Z=              0.0000  Tot=              0.0000
 Quadrupole moment (field-independent basis, Debye-Ang):
   XX=            -12.6085   YY=            -20.1561   ZZ=            -11.8105
   XY=             -0.0000   XZ=             -0.0000   YZ=             -0.0000

 Normal termination of Gaussian 09 at Thu Feb  9 16:27:26 2017.
