 Gaussian 09, Revision E.01,
 Gaussian 09:  ES64L-G09RevE.01 30-Nov-2015

 ----------------------------------------------------------------------
 #rhf/gen scf(symm,tight,novaracc,noincfock,fulldiag) stable(crhf) geom
 =nocrowd test
 ----------------------------------------------------------------------

 hf stability analysis of h10 triangular lattice, y= 0.8200107869855390
 9
 ----------------------------------------------------------------------
 Symbolic Z-matrix:
 Charge =  0 Multiplicity = 1

                         Standard orientation:
 ---------------------------------------------------------------------
 Center     Atomic      Atomic             Coordinates (Angstroms)
 Number     Number       Type             X           Y           Z
 ---------------------------------------------------------------------
      1          1           0        0.000000    0.820011    1.408153
      2          1           0        0.000000    0.000000    2.112229
      3          1           0        0.000000    0.000000    0.704076
      4          1           0       -0.000000   -0.820011    1.408153
      5          1           0       -0.000000    0.820011   -0.000000
      6          1           0       -0.000000   -0.820011    0.000000
      7          1           0        0.000000   -0.000000   -0.704076
      8          1           0        0.000000    0.820011   -1.408153
      9          1           0       -0.000000   -0.820011   -1.408153
     10          1           0        0.000000   -0.000000   -2.112229
 ---------------------------------------------------------------------

 SCF Done:  E(RHF) =  -4.92606448503     A.U. after    8 cycles
 E2 =    -0.9629128348D-01 EUMP2 =    -0.50223557685093D+01

 The electronic state is 1-AG.
 Alpha  occ. eigenvalues --   -0.93182  -0.74920  -0.50835  -0.49304  -0.30166
 Alpha virt. eigenvalues --    0.03279   0.17161   0.39618   0.43768   0.53579

 Mulliken charges:
               1
     1  H   -0.175266
     2  H    0.168586
     3  H    0.117617
     4  H   -0.175266
     5  H    0.064330
     6  H    0.064330
     7  H    0.117617
     8  H   -0.175266
     9  H   -0.175266
    10  H    0.168586
 Sum of Mulliken charges =  -0.00000

 Dipole moment (field-independent basis, Debye):
    X=              0.0000    Y=             -0.0000    Z=              0.0000  Tot=              0.0000
 Quadrupole moment (field-independent basis, Debye-Ang):
   XX=            -12.9644   YY=            -17.8191   ZZ=            -13.6656
   XY=             -0.0000   XZ=             -0.0000   YZ=             -0.0000

 Normal termination of Gaussian 09 at Thu Feb  9 16:09:45 2017.
