 Gaussian 09, Revision E.01,
 Gaussian 09:  ES64L-G09RevE.01 30-Nov-2015

 ----------------------------------------------------------------------
 #rhf/gen scf(symm,tight,novaracc,noincfock,fulldiag) stable(crhf) geom
 =nocrowd test
 ----------------------------------------------------------------------

 hf stability analysis of h10 triangular lattice, y= 0.9428899751596989
 7
 ----------------------------------------------------------------------
 Symbolic Z-matrix:
 Charge =  0 Multiplicity = 1

                         Standard orientation:
 ---------------------------------------------------------------------
 Center     Atomic      Atomic             Coordinates (Angstroms)
 Number     Number       Type             X           Y           Z
 ---------------------------------------------------------------------
      1          1           0        0.000000    0.942890    1.224640
      2          1           0        0.000000    0.000000    1.836960
      3          1           0        0.000000    0.000000    0.612320
      4          1           0       -0.000000   -0.942890    1.224640
      5          1           0       -0.000000    0.942890    0.000000
      6          1           0       -0.000000   -0.942890    0.000000
      7          1           0        0.000000   -0.000000   -0.612320
      8          1           0        0.000000    0.942890   -1.224640
      9          1           0       -0.000000   -0.942890   -1.224640
     10          1           0        0.000000   -0.000000   -1.836960
 ---------------------------------------------------------------------

 SCF Done:  E(RHF) =  -4.96748968644     A.U. after    8 cycles
 E2 =    -0.9859259388D-01 EUMP2 =    -0.50660822803209D+01

 The electronic state is 1-AG.
 Alpha  occ. eigenvalues --   -0.95987  -0.73760  -0.58271  -0.43113  -0.33257
 Alpha virt. eigenvalues --    0.15856   0.18963   0.23395   0.44445   0.56385

 Mulliken charges:
               1
     1  H   -0.118814
     2  H    0.053973
     3  H    0.098676
     4  H   -0.118814
     5  H    0.084980
     6  H    0.084980
     7  H    0.098676
     8  H   -0.118814
     9  H   -0.118814
    10  H    0.053973
 Sum of Mulliken charges =  -0.00000

 Dipole moment (field-independent basis, Debye):
    X=              0.0000    Y=              0.0000    Z=             -0.0000  Tot=              0.0000
 Quadrupole moment (field-independent basis, Debye-Ang):
   XX=            -12.8826   YY=            -16.1946   ZZ=            -17.4812
   XY=             -0.0000   XZ=              0.0000   YZ=             -0.0000

 Normal termination of Gaussian 09 at Thu Feb  9 16:15:07 2017.
