 Gaussian 09, Revision E.01,
 Gaussian 09:  ES64L-G09RevE.01 30-Nov-2015

 ----------------------------------------------------------------------
 #rhf/gen scf(symm,tight,novaracc,noincfock,fulldiag) stable(crhf) geom
 =nocrowd test
 ----------------------------------------------------------------------

 ----------------------------------------------------------------------
 hf stability analysis of h10 triangular lattice, y= 1.0820123021402799
 ----------------------------------------------------------------------
 Symbolic Z-matrix:
 Charge =  0 Multiplicity = 1

                         Standard orientation:
 ---------------------------------------------------------------------
 Center     Atomic      Atomic             Coordinates (Angstroms)
 Number     Number       Type             X           Y           Z
 ---------------------------------------------------------------------
      1          1           0        0.000000    1.082012    1.067179
      2          1           0        0.000000   -0.000000    1.600768
      3          1           0        0.000000   -0.000000    0.533589
      4          1           0       -0.000000   -1.082012    1.067179
      5          1           0       -0.000000    1.082012    0.000000
      6          1           0       -0.000000   -1.082012   -0.000000
      7          1           0        0.000000    0.000000   -0.533589
      8          1           0        0.000000    1.082012   -1.067179
      9          1           0       -0.000000   -1.082012   -1.067179
     10          1           0        0.000000    0.000000   -1.600768
 ---------------------------------------------------------------------

 SCF Done:  E(RHF) =  -4.86241088922     A.U. after   11 cycles
 E2 =    -0.1088796254D+00 EUMP2 =    -0.49712905146001D+01

 The electronic state is 1-AG.
 Alpha  occ. eigenvalues --   -0.97416  -0.70897  -0.64694  -0.35099  -0.34297
 Alpha virt. eigenvalues --   -0.00063   0.25312   0.32916   0.39780   0.65311

 Mulliken charges:
               1
     1  H   -0.048507
     2  H   -0.081003
     3  H    0.122079
     4  H   -0.048507
     5  H    0.055938
     6  H    0.055938
     7  H    0.122079
     8  H   -0.048507
     9  H   -0.048507
    10  H   -0.081003
 Sum of Mulliken charges =  -0.00000

 Dipole moment (field-independent basis, Debye):
    X=             -0.0000    Y=             -0.0000    Z=             -0.0000  Tot=              0.0000
 Quadrupole moment (field-independent basis, Debye-Ang):
   XX=            -12.7768   YY=            -14.2135   ZZ=            -20.1743
   XY=             -0.0000   XZ=              0.0000   YZ=             -0.0000

 Normal termination of Gaussian 09 at Thu Feb  9 16:19:47 2017.
