 Gaussian 09, Revision E.01,
 Gaussian 09:  ES64L-G09RevE.01 30-Nov-2015

 ----------------------------------------------------------------------
 #rhf/gen scf(symm,tight,novaracc,noincfock,fulldiag) stable(crhf) geom
 =nocrowd test
 ----------------------------------------------------------------------

 ----------------------------------------------------------------------
 hf stability analysis of h10 triangular lattice, y= 1.2344594529595776
 ----------------------------------------------------------------------
 Symbolic Z-matrix:
 Charge =  0 Multiplicity = 1

                         Standard orientation:
 ---------------------------------------------------------------------
 Center     Atomic      Atomic             Coordinates (Angstroms)
 Number     Number       Type             X           Y           Z
 ---------------------------------------------------------------------
      1          1           0        0.000000    1.234459    0.935390
      2          1           0        0.000000    0.000000    1.403084
      3          1           0        0.000000    0.000000    0.467695
      4          1           0       -0.000000   -1.234459    0.935390
      5          1           0       -0.000000    1.234459    0.000000
      6          1           0       -0.000000   -1.234459    0.000000
      7          1           0        0.000000   -0.000000   -0.467695
      8          1           0        0.000000    1.234459   -0.935390
      9          1           0       -0.000000   -1.234459   -0.935390
     10          1           0        0.000000   -0.000000   -1.403084
 ---------------------------------------------------------------------

 SCF Done:  E(RHF) =  -4.91078504203     A.U. after    9 cycles
 E2 =    -0.9284511673D-01 EUMP2 =    -0.50036301587589D+01

 The electronic state is 1-AG.
 Alpha  occ. eigenvalues --   -0.94293  -0.67949  -0.66471  -0.42661  -0.30556
 Alpha virt. eigenvalues --    0.00142   0.14536   0.54236   0.61499   0.76039

 Mulliken charges:
               1
     1  H   -0.085684
     2  H    0.288166
     3  H   -0.038323
     4  H   -0.085684
     5  H   -0.078475
     6  H   -0.078475
     7  H   -0.038323
     8  H   -0.085684
     9  H   -0.085684
    10  H    0.288166
 Sum of Mulliken charges =  -0.00000

 Dipole moment (field-independent basis, Debye):
    X=              0.0000    Y=             -0.0000    Z=             -0.0000  Tot=              0.0000
 Quadrupole moment (field-independent basis, Debye-Ang):
   XX=            -12.6028   YY=            -21.3313   ZZ=             -9.7180
   XY=             -0.0000   XZ=             -0.0000   YZ=              0.0000

 Normal termination of Gaussian 09 at Thu Feb  9 16:23:40 2017.
