 Gaussian 09, Revision E.01,
 Gaussian 09:  ES64L-G09RevE.01 30-Nov-2015

 ----------------------------------------------------------------------
 #rhf/gen scf(symm,tight,novaracc,noincfock,fulldiag) stable(crhf) geom
 =nocrowd test
 ----------------------------------------------------------------------

 ----------------------------------------------------------------------
 hf stability analysis of h10 triangular lattice, y= 2.0397892979870225
 ----------------------------------------------------------------------
 Symbolic Z-matrix:
 Charge =  0 Multiplicity = 1

                         Standard orientation:
 ---------------------------------------------------------------------
 Center     Atomic      Atomic             Coordinates (Angstroms)
 Number     Number       Type             X           Y           Z
 ---------------------------------------------------------------------
      1          1           0       -0.000000    2.039789    0.566088
      2          1           0        0.000000   -0.000000    0.849132
      3          1           0        0.000000   -0.000000    0.283044
      4          1           0       -0.000000   -2.039789    0.566088
      5          1           0       -0.000000    2.039789    0.000000
      6          1           0       -0.000000   -2.039789   -0.000000
      7          1           0        0.000000    0.000000   -0.283044
      8          1           0        0.000000    2.039789   -0.566088
      9          1           0       -0.000000   -2.039789   -0.566088
     10          1           0        0.000000    0.000000   -0.849132
 ---------------------------------------------------------------------

 SCF Done:  E(RHF) =  -4.02986956772     A.U. after    7 cycles
 E2 =    -0.1740150199D+00 EUMP2 =    -0.42038845876403D+01

 The electronic state is 1-AG.
 Alpha  occ. eigenvalues --   -1.01168  -0.86414  -0.85266  -0.55213  -0.17239
 Alpha virt. eigenvalues --   -0.01925   0.43230   1.22546   1.25429   1.89287

 Mulliken charges:
               1
     1  H    0.190296
     2  H    0.230220
     3  H   -0.195651
     4  H    0.190296
     5  H   -0.415161
     6  H   -0.415161
     7  H   -0.195651
     8  H    0.190296
     9  H    0.190296
    10  H    0.230220
 Sum of Mulliken charges =   0.00000

 Dipole moment (field-independent basis, Debye):
    X=              0.0000    Y=              0.0000    Z=             -0.0000  Tot=              0.0000
 Quadrupole moment (field-independent basis, Debye-Ang):
   XX=            -12.3422   YY=            -15.2688   ZZ=            -14.4064
   XY=             -0.0000   XZ=              0.0000   YZ=              0.0000

 Normal termination of Gaussian 09 at Thu Feb  9 16:32:37 2017.
