 Gaussian 09, Revision E.01,
 Gaussian 09:  ES64L-G09RevE.01 30-Nov-2015

 ----------------------------------------------------------------------
 #rhf/gen scf(symm,tight,novaracc,noincfock,fulldiag) stable(crhf) geom
 =nocrowd test
 ----------------------------------------------------------------------

 ----------------------------------------------------------------------
 hf stability analysis of h10 triangular lattice, y= 1.8725594234854832
 ----------------------------------------------------------------------
 Symbolic Z-matrix:
 Charge =  0 Multiplicity = 1

                         Standard orientation:
 ---------------------------------------------------------------------
 Center     Atomic      Atomic             Coordinates (Angstroms)
 Number     Number       Type             X           Y           Z
 ---------------------------------------------------------------------
      1          1           0        0.000000    1.872559    0.616643
      2          1           0        0.000000    0.000000    0.924965
      3          1           0        0.000000    0.000000    0.308321
      4          1           0       -0.000000   -1.872559    0.616643
      5          1           0       -0.000000    1.872559   -0.000000
      6          1           0       -0.000000   -1.872559    0.000000
      7          1           0        0.000000   -0.000000   -0.308321
      8          1           0        0.000000    1.872559   -0.616643
      9          1           0       -0.000000   -1.872559   -0.616643
     10          1           0        0.000000   -0.000000   -0.924965
 ---------------------------------------------------------------------

 SCF Done:  E(RHF) =  -4.37233531582     A.U. after    7 cycles
 E2 =    -0.1398231026D+00 EUMP2 =    -0.45121584183781D+01

 The electronic state is 1-AG.
 Alpha  occ. eigenvalues --   -0.99047  -0.83198  -0.80252  -0.56574  -0.19876
 Alpha virt. eigenvalues --   -0.01512   0.35016   1.08689   1.13151   1.60735

 Mulliken charges:
               1
     1  H    0.128894
     2  H    0.216307
     3  H   -0.153510
     4  H    0.128894
     5  H   -0.320586
     6  H   -0.320586
     7  H   -0.153510
     8  H    0.128894
     9  H    0.128894
    10  H    0.216307
 Sum of Mulliken charges =   0.00000

 Dipole moment (field-independent basis, Debye):
    X=              0.0000    Y=              0.0000    Z=              0.0000  Tot=              0.0000
 Quadrupole moment (field-independent basis, Debye-Ang):
   XX=            -12.4390   YY=            -16.5438   ZZ=            -14.0234
   XY=             -0.0000   XZ=              0.0000   YZ=              0.0000

 Normal termination of Gaussian 09 at Thu Feb  9 16:31:37 2017.
