 Gaussian 09, Revision E.01,
 Gaussian 09:  ES64L-G09RevE.01 30-Nov-2015

 ----------------------------------------------------------------------
 #rhf/gen scf(symm,tight,novaracc,noincfock,fulldiag) stable(crhf) geom
 =nocrowd test
 ----------------------------------------------------------------------

 hf stability analysis of h10 triangular lattice, y= 0.9696943766108500
 1
 ----------------------------------------------------------------------
 Symbolic Z-matrix:
 Charge =  0 Multiplicity = 1

                         Standard orientation:
 ---------------------------------------------------------------------
 Center     Atomic      Atomic             Coordinates (Angstroms)
 Number     Number       Type             X           Y           Z
 ---------------------------------------------------------------------
      1          1           0        0.000000    0.969694    1.190788
      2          1           0       -0.000000    0.000000    1.786182
      3          1           0       -0.000000    0.000000    0.595394
      4          1           0       -0.000000   -0.969694    1.190788
      5          1           0       -0.000000    0.969694    0.000000
      6          1           0       -0.000000   -0.969694    0.000000
      7          1           0        0.000000    0.000000   -0.595394
      8          1           0        0.000000    0.969694   -1.190788
      9          1           0       -0.000000   -0.969694   -1.190788
     10          1           0        0.000000    0.000000   -1.786182
 ---------------------------------------------------------------------

 SCF Done:  E(RHF) =  -4.95923684316     A.U. after    8 cycles
 E2 =    -0.9991067153D-01 EUMP2 =    -0.50591475146928D+01

 The electronic state is 1-AG.
 Alpha  occ. eigenvalues --   -0.96377  -0.73293  -0.59647  -0.41643  -0.33639
 Alpha virt. eigenvalues --    0.14911   0.18693   0.25055   0.42309   0.58539

 Mulliken charges:
               1
     1  H   -0.107585
     2  H    0.029737
     3  H    0.100148
     4  H   -0.107585
     5  H    0.085285
     6  H    0.085285
     7  H    0.100148
     8  H   -0.107585
     9  H   -0.107585
    10  H    0.029737
 Sum of Mulliken charges =  -0.00000

 Dipole moment (field-independent basis, Debye):
    X=              0.0000    Y=             -0.0000    Z=              0.0000  Tot=              0.0000
 Quadrupole moment (field-independent basis, Debye-Ang):
   XX=            -12.8641   YY=            -15.8257   ZZ=            -18.1162
   XY=             -0.0000   XZ=              0.0000   YZ=             -0.0000

 Normal termination of Gaussian 09 at Thu Feb  9 16:16:04 2017.
