 Gaussian 09, Revision E.01,
 Gaussian 09:  ES64L-G09RevE.01 30-Nov-2015

 ----------------------------------------------------------------------
 #rhf/gen scf(symm,tight,novaracc,noincfock,fulldiag) stable(crhf) geom
 =nocrowd test
 ----------------------------------------------------------------------

 ----------------------------------------------------------------------
 hf stability analysis of h10 triangular lattice, y= 1.1387493349689228
 ----------------------------------------------------------------------
 Symbolic Z-matrix:
 Charge =  0 Multiplicity = 1

                         Standard orientation:
 ---------------------------------------------------------------------
 Center     Atomic      Atomic             Coordinates (Angstroms)
 Number     Number       Type             X           Y           Z
 ---------------------------------------------------------------------
      1          1           0        0.000000    1.138749    1.014008
      2          1           0        0.000000    0.000000    1.521012
      3          1           0        0.000000    0.000000    0.507004
      4          1           0       -0.000000   -1.138749    1.014008
      5          1           0       -0.000000    1.138749    0.000000
      6          1           0       -0.000000   -1.138749   -0.000000
      7          1           0        0.000000    0.000000   -0.507004
      8          1           0        0.000000    1.138749   -1.014008
      9          1           0       -0.000000   -1.138749   -1.014008
     10          1           0        0.000000    0.000000   -1.521012
 ---------------------------------------------------------------------

 SCF Done:  E(RHF) =  -4.82111095341     A.U. after   12 cycles
 E2 =    -0.1072457197D+00 EUMP2 =    -0.49283566731375D+01

 The electronic state is 1-AG.
 Alpha  occ. eigenvalues --   -0.94912  -0.69030  -0.65526  -0.34017  -0.31684
 Alpha virt. eigenvalues --   -0.03408   0.19817   0.43750   0.47585   0.70515

 Mulliken charges:
               1
     1  H    0.004875
     2  H    0.092357
     3  H    0.053550
     4  H    0.004875
     5  H   -0.155656
     6  H   -0.155656
     7  H    0.053550
     8  H    0.004875
     9  H    0.004875
    10  H    0.092357
 Sum of Mulliken charges =   0.00000

 Dipole moment (field-independent basis, Debye):
    X=              0.0000    Y=              0.0000    Z=              0.0000  Tot=              0.0000
 Quadrupole moment (field-independent basis, Debye-Ang):
   XX=            -12.5951   YY=            -18.8429   ZZ=            -12.2482
   XY=             -0.0000   XZ=             -0.0000   YZ=              0.0000

 Normal termination of Gaussian 09 at Thu Feb  9 16:21:23 2017.
