 Gaussian 09, Revision E.01,
 Gaussian 09:  ES64L-G09RevE.01 30-Nov-2015

 ----------------------------------------------------------------------
 #rhf/gen scf(symm,tight,novaracc,noincfock,fulldiag) stable(crhf) geom
 =nocrowd test
 ----------------------------------------------------------------------

 ----------------------------------------------------------------------
 hf stability analysis of h10 triangular lattice, y= 1.1733815430447392
 ----------------------------------------------------------------------
 Symbolic Z-matrix:
 Charge =  0 Multiplicity = 1

                         Standard orientation:
 ---------------------------------------------------------------------
 Center     Atomic      Atomic             Coordinates (Angstroms)
 Number     Number       Type             X           Y           Z
 ---------------------------------------------------------------------
      1          1           0        0.000000    1.173382    0.984079
      2          1           0        0.000000    0.000000    1.476119
      3          1           0        0.000000    0.000000    0.492040
      4          1           0       -0.000000   -1.173382    0.984079
      5          1           0       -0.000000    1.173382   -0.000000
      6          1           0       -0.000000   -1.173382   -0.000000
      7          1           0        0.000000    0.000000   -0.492040
      8          1           0        0.000000    1.173382   -0.984079
      9          1           0       -0.000000   -1.173382   -0.984079
     10          1           0        0.000000    0.000000   -1.476119
 ---------------------------------------------------------------------

 SCF Done:  E(RHF) =  -4.85373091231     A.U. after   10 cycles
 E2 =    -0.1006339056D+00 EUMP2 =    -0.49543648178966D+01

 The electronic state is 1-AG.
 Alpha  occ. eigenvalues --   -0.94168  -0.67903  -0.66196  -0.37086  -0.31161
 Alpha virt. eigenvalues --   -0.02609   0.17619   0.48471   0.52888   0.72928

 Mulliken charges:
               1
     1  H   -0.060456
     2  H    0.233292
     3  H   -0.001782
     4  H   -0.060456
     5  H   -0.110599
     6  H   -0.110599
     7  H   -0.001782
     8  H   -0.060456
     9  H   -0.060456
    10  H    0.233292
 Sum of Mulliken charges =  -0.00000

 Dipole moment (field-independent basis, Debye):
    X=              0.0000    Y=              0.0000    Z=              0.0000  Tot=              0.0000
 Quadrupole moment (field-independent basis, Debye-Ang):
   XX=            -12.5869   YY=            -20.8458   ZZ=             -9.8637
   XY=             -0.0000   XZ=             -0.0000   YZ=              0.0000

 Normal termination of Gaussian 09 at Thu Feb  9 16:22:15 2017.
