 Gaussian 09, Revision E.01,
 Gaussian 09:  ES64L-G09RevE.01 30-Nov-2015

 ----------------------------------------------------------------------
 #rhf/gen scf(symm,tight,novaracc,noincfock,fulldiag) stable(crhf) geom
 =nocrowd test
 ----------------------------------------------------------------------

 hf stability analysis of h10 triangular lattice, y= 0.8689895537432557
 0
 ----------------------------------------------------------------------
 Symbolic Z-matrix:
 Charge =  0 Multiplicity = 1

                         Standard orientation:
 ---------------------------------------------------------------------
 Center     Atomic      Atomic             Coordinates (Angstroms)
 Number     Number       Type             X           Y           Z
 ---------------------------------------------------------------------
      1          1           0        0.000000    0.868990    1.328785
      2          1           0        0.000000    0.000000    1.993178
      3          1           0        0.000000    0.000000    0.664393
      4          1           0       -0.000000   -0.868990    1.328785
      5          1           0       -0.000000    0.868990   -0.000000
      6          1           0       -0.000000   -0.868990    0.000000
      7          1           0        0.000000   -0.000000   -0.664393
      8          1           0        0.000000    0.868990   -1.328785
      9          1           0       -0.000000   -0.868990   -1.328785
     10          1           0        0.000000   -0.000000   -1.993178
 ---------------------------------------------------------------------

 SCF Done:  E(RHF) =  -4.95838695013     A.U. after    8 cycles
 E2 =    -0.9647236323D-01 EUMP2 =    -0.50548593133564D+01

 The electronic state is 1-AG.
 Alpha  occ. eigenvalues --   -0.94524  -0.74684  -0.54045  -0.46961  -0.31692
 Alpha virt. eigenvalues --    0.08065   0.19342   0.31199   0.49127   0.50445

 Mulliken charges:
               1
     1  H   -0.151234
     2  H    0.121937
     3  H    0.103704
     4  H   -0.151234
     5  H    0.076828
     6  H    0.076828
     7  H    0.103704
     8  H   -0.151234
     9  H   -0.151234
    10  H    0.121937
 Sum of Mulliken charges =  -0.00000

 Dipole moment (field-independent basis, Debye):
    X=              0.0000    Y=             -0.0000    Z=              0.0000  Tot=              0.0000
 Quadrupole moment (field-independent basis, Debye-Ang):
   XX=            -12.9322   YY=            -17.1845   ZZ=            -15.3892
   XY=             -0.0000   XZ=             -0.0000   YZ=              0.0000

 Normal termination of Gaussian 09 at Thu Feb  9 16:12:01 2017.
