 Gaussian 09, Revision E.01,
 Gaussian 09:  ES64L-G09RevE.01 30-Nov-2015

 ----------------------------------------------------------------------
 #rhf/gen scf(symm,tight,novaracc,noincfock,fulldiag) stable(crhf) geom
 =nocrowd test
 ----------------------------------------------------------------------

 ----------------------------------------------------------------------
 hf stability analysis of h10 triangular lattice, y= 1.6808170919806322
 ----------------------------------------------------------------------
 Symbolic Z-matrix:
 Charge =  0 Multiplicity = 1

                         Standard orientation:
 ---------------------------------------------------------------------
 Center     Atomic      Atomic             Coordinates (Angstroms)
 Number     Number       Type             X           Y           Z
 ---------------------------------------------------------------------
      1          1           0        0.000000    1.680817    0.686988
      2          1           0        0.000000    0.000000    1.030482
      3          1           0        0.000000    0.000000    0.343494
      4          1           0       -0.000000   -1.680817    0.686988
      5          1           0       -0.000000    1.680817    0.000000
      6          1           0       -0.000000   -1.680817    0.000000
      7          1           0        0.000000    0.000000   -0.343494
      8          1           0        0.000000    1.680817   -0.686988
      9          1           0       -0.000000   -1.680817   -0.686988
     10          1           0        0.000000    0.000000   -1.030482
 ---------------------------------------------------------------------

 SCF Done:  E(RHF) =  -4.69228372478     A.U. after    7 cycles
 E2 =    -0.1089247506D+00 EUMP2 =    -0.48012084754063D+01

 The electronic state is 1-AG.
 Alpha  occ. eigenvalues --   -0.97391  -0.79241  -0.72542  -0.58793  -0.23167
 Alpha virt. eigenvalues --    0.00405   0.24888   0.92660   1.00130   1.29013

 Mulliken charges:
               1
     1  H    0.055852
     2  H    0.224184
     3  H   -0.112499
     4  H    0.055852
     5  H   -0.223389
     6  H   -0.223389
     7  H   -0.112499
     8  H    0.055852
     9  H    0.055852
    10  H    0.224184
 Sum of Mulliken charges =  -0.00000

 Dipole moment (field-independent basis, Debye):
    X=              0.0000    Y=              0.0000    Z=             -0.0000  Tot=              0.0000
 Quadrupole moment (field-independent basis, Debye-Ang):
   XX=            -12.5364   YY=            -18.2207   ZZ=            -13.3100
   XY=             -0.0000   XZ=              0.0000   YZ=              0.0000

 Normal termination of Gaussian 09 at Thu Feb  9 16:30:05 2017.
