 Gaussian 09, Revision E.01,
 Gaussian 09:  ES64L-G09RevE.01 30-Nov-2015

 ----------------------------------------------------------------------
 #rhf/gen scf(symm,tight,novaracc,noincfock,fulldiag) stable(crhf) geom
 =nocrowd test
 ----------------------------------------------------------------------

 ----------------------------------------------------------------------
 hf stability analysis of h10 triangular lattice, y= 2.1922886470187501
 ----------------------------------------------------------------------
 Symbolic Z-matrix:
 Charge =  0 Multiplicity = 1

                         Standard orientation:
 ---------------------------------------------------------------------
 Center     Atomic      Atomic             Coordinates (Angstroms)
 Number     Number       Type             X           Y           Z
 ---------------------------------------------------------------------
      1          1           0       -0.000000    2.192289    0.526710
      2          1           0        0.000000    0.000000    0.790065
      3          1           0        0.000000    0.000000    0.263355
      4          1           0       -0.000000   -2.192289    0.526710
      5          1           0       -0.000000    2.192289    0.000000
      6          1           0       -0.000000   -2.192289    0.000000
      7          1           0        0.000000   -0.000000   -0.263355
      8          1           0        0.000000    2.192289   -0.526710
      9          1           0       -0.000000   -2.192289   -0.526710
     10          1           0        0.000000   -0.000000   -0.790065
 ---------------------------------------------------------------------

 SCF Done:  E(RHF) =  -3.67813023432     A.U. after    7 cycles
 E2 =    -0.2076007849D+00 EUMP2 =    -0.38857310192570D+01

 The electronic state is 1-AG.
 Alpha  occ. eigenvalues --   -1.03689  -0.89165  -0.88816  -0.54348  -0.15000
 Alpha virt. eigenvalues --   -0.01615   0.50189   1.35170   1.37145   2.15986

 Mulliken charges:
               1
     1  H    0.244804
     2  H    0.257880
     3  H   -0.238879
     4  H    0.244804
     5  H   -0.508608
     6  H   -0.508608
     7  H   -0.238879
     8  H    0.244804
     9  H    0.244804
    10  H    0.257880
 Sum of Mulliken charges =  -0.00000

 Dipole moment (field-independent basis, Debye):
    X=              0.0000    Y=              0.0000    Z=              0.0000  Tot=              0.0000
 Quadrupole moment (field-independent basis, Debye-Ang):
   XX=            -12.2524   YY=            -14.3445   ZZ=            -14.6425
   XY=              0.0000   XZ=              0.0000   YZ=              0.0000

 Normal termination of Gaussian 09 at Thu Feb  9 16:33:21 2017.
