 Gaussian 09, Revision E.01,
 Gaussian 09:  ES64L-G09RevE.01 30-Nov-2015

 ----------------------------------------------------------------------
 #rhf/gen scf(symm,tight,novaracc,noincfock,fulldiag) stable(crhf) geom
 =nocrowd test
 ----------------------------------------------------------------------

 ----------------------------------------------------------------------
 hf stability analysis of h10 triangular lattice, y= 1.1216686379156546
 ----------------------------------------------------------------------
 Symbolic Z-matrix:
 Charge =  0 Multiplicity = 1

                         Standard orientation:
 ---------------------------------------------------------------------
 Center     Atomic      Atomic             Coordinates (Angstroms)
 Number     Number       Type             X           Y           Z
 ---------------------------------------------------------------------
      1          1           0        0.000000    1.121669    1.029449
      2          1           0       -0.000000   -0.000000    1.544173
      3          1           0       -0.000000   -0.000000    0.514724
      4          1           0       -0.000000   -1.121669    1.029449
      5          1           0       -0.000000    1.121669    0.000000
      6          1           0       -0.000000   -1.121669   -0.000000
      7          1           0        0.000000    0.000000   -0.514724
      8          1           0        0.000000    1.121669   -1.029449
      9          1           0       -0.000000   -1.121669   -1.029449
     10          1           0        0.000000    0.000000   -1.544173
 ---------------------------------------------------------------------

 SCF Done:  E(RHF) =  -4.81630353772     A.U. after   13 cycles
 E2 =    -0.1098701842D+00 EUMP2 =    -0.49261737219321D+01

 The electronic state is 1-AG.
 Alpha  occ. eigenvalues --   -0.96259  -0.69890  -0.65573  -0.32781  -0.32576
 Alpha virt. eigenvalues --   -0.03530   0.21864   0.39411   0.44341   0.68560

 Mulliken charges:
               1
     1  H    0.046591
     2  H   -0.062904
     3  H    0.106987
     4  H    0.046591
     5  H   -0.137266
     6  H   -0.137266
     7  H    0.106987
     8  H    0.046591
     9  H    0.046591
    10  H   -0.062904
 Sum of Mulliken charges =  -0.00000

 Dipole moment (field-independent basis, Debye):
    X=              0.0000    Y=              0.0000    Z=              0.0000  Tot=              0.0000
 Quadrupole moment (field-independent basis, Debye-Ang):
   XX=            -12.6470   YY=            -16.0365   ZZ=            -16.3031
   XY=             -0.0000   XZ=              0.0000   YZ=              0.0000

 Normal termination of Gaussian 09 at Thu Feb  9 16:20:56 2017.
