 Gaussian 09, Revision E.01,
 Gaussian 09:  ES64L-G09RevE.01 30-Nov-2015

 ----------------------------------------------------------------------
 #rhf/gen scf(symm,tight,novaracc,noincfock,fulldiag) stable(crhf) geom
 =nocrowd test
 ----------------------------------------------------------------------

 ----------------------------------------------------------------------
 hf stability analysis of h10 triangular lattice, y= 1.3060275985252012
 ----------------------------------------------------------------------
 Symbolic Z-matrix:
 Charge =  0 Multiplicity = 1

                         Standard orientation:
 ---------------------------------------------------------------------
 Center     Atomic      Atomic             Coordinates (Angstroms)
 Number     Number       Type             X           Y           Z
 ---------------------------------------------------------------------
      1          1           0       -0.000000    1.306028    0.884132
      2          1           0       -0.000000    0.000000    1.326198
      3          1           0       -0.000000    0.000000    0.442066
      4          1           0       -0.000000   -1.306028    0.884132
      5          1           0       -0.000000    1.306028    0.000000
      6          1           0       -0.000000   -1.306028    0.000000
      7          1           0        0.000000   -0.000000   -0.442066
      8          1           0        0.000000    1.306028   -0.884132
      9          1           0       -0.000000   -1.306028   -0.884132
     10          1           0        0.000000   -0.000000   -1.326198
 ---------------------------------------------------------------------

 SCF Done:  E(RHF) =  -4.94791692733     A.U. after    8 cycles
 E2 =    -0.8884688650D-01 EUMP2 =    -0.50367638138296D+01

 The electronic state is 1-AG.
 Alpha  occ. eigenvalues --   -0.94822  -0.70060  -0.65032  -0.48832  -0.29640
 Alpha virt. eigenvalues --    0.03982   0.11195   0.60488   0.71610   0.79406

 Mulliken charges:
               1
     1  H   -0.075867
     2  H    0.289136
     3  H   -0.054702
     4  H   -0.075867
     5  H   -0.082701
     6  H   -0.082701
     7  H   -0.054702
     8  H   -0.075867
     9  H   -0.075867
    10  H    0.289136
 Sum of Mulliken charges =  -0.00000

 Dipole moment (field-independent basis, Debye):
    X=              0.0000    Y=              0.0000    Z=             -0.0000  Tot=              0.0000
 Quadrupole moment (field-independent basis, Debye-Ang):
   XX=            -12.6143   YY=            -21.0909   ZZ=            -10.4154
   XY=             -0.0000   XZ=             -0.0000   YZ=              0.0000

 Normal termination of Gaussian 09 at Thu Feb  9 16:25:07 2017.
