 Gaussian 09, Revision E.01,
 Gaussian 09:  ES64L-G09RevE.01 30-Nov-2015

 ----------------------------------------------------------------------
 #rhf/gen scf(symm,tight,novaracc,noincfock,fulldiag) stable(crhf) geom
 =nocrowd test
 ----------------------------------------------------------------------

 ----------------------------------------------------------------------
 hf stability analysis of h10 triangular lattice, y= 2.4599515343979936
 ----------------------------------------------------------------------
 Symbolic Z-matrix:
 Charge =  0 Multiplicity = 1

                         Standard orientation:
 ---------------------------------------------------------------------
 Center     Atomic      Atomic             Coordinates (Angstroms)
 Number     Number       Type             X           Y           Z
 ---------------------------------------------------------------------
      1          1           0        0.000000    2.459952    0.469400
      2          1           0        0.000000    0.000000    0.704100
      3          1           0        0.000000    0.000000    0.234700
      4          1           0       -0.000000   -2.459952    0.469400
      5          1           0       -0.000000    2.459952   -0.000000
      6          1           0       -0.000000   -2.459952   -0.000000
      7          1           0        0.000000    0.000000   -0.234700
      8          1           0        0.000000    2.459952   -0.469400
      9          1           0       -0.000000   -2.459952   -0.469400
     10          1           0        0.000000    0.000000   -0.704100
 ---------------------------------------------------------------------

 SCF Done:  E(RHF) =  -2.98923197414     A.U. after    7 cycles
 E2 =    -0.2663420407D+00 EUMP2 =    -0.32555740148334D+01

 The electronic state is 1-AG.
 Alpha  occ. eigenvalues --   -1.08939  -0.93630  -0.93589  -0.53332  -0.11329
 Alpha virt. eigenvalues --   -0.00136   0.61459   1.57379   1.58447   2.64709

 Mulliken charges:
               1
     1  H    0.340814
     2  H    0.331497
     3  H   -0.325185
     4  H    0.340814
     5  H   -0.687939
     6  H   -0.687939
     7  H   -0.325185
     8  H    0.340814
     9  H    0.340814
    10  H    0.331497
 Sum of Mulliken charges =  -0.00000

 Dipole moment (field-independent basis, Debye):
    X=              0.0000    Y=              0.0000    Z=             -0.0000  Tot=              0.0000
 Quadrupole moment (field-independent basis, Debye-Ang):
   XX=            -12.1006   YY=            -13.2348   ZZ=            -14.9177
   XY=              0.0000   XZ=              0.0000   YZ=             -0.0000

 Normal termination of Gaussian 09 at Thu Feb  9 16:34:20 2017.
