 Gaussian 09, Revision E.01,
 Gaussian 09:  ES64L-G09RevE.01 30-Nov-2015

 ----------------------------------------------------------------------
 #rhf/gen scf(symm,tight,novaracc,noincfock,fulldiag) stable(crhf) geom
 =nocrowd test
 ----------------------------------------------------------------------

 ----------------------------------------------------------------------
 hf stability analysis of h10 triangular lattice, y= 1.3872306646308596
 ----------------------------------------------------------------------
 Symbolic Z-matrix:
 Charge =  0 Multiplicity = 1

                         Standard orientation:
 ---------------------------------------------------------------------
 Center     Atomic      Atomic             Coordinates (Angstroms)
 Number     Number       Type             X           Y           Z
 ---------------------------------------------------------------------
      1          1           0       -0.000000    1.387231    0.832378
      2          1           0       -0.000000    0.000000    1.248567
      3          1           0       -0.000000    0.000000    0.416189
      4          1           0       -0.000000   -1.387231    0.832378
      5          1           0       -0.000000    1.387231   -0.000000
      6          1           0       -0.000000   -1.387231    0.000000
      7          1           0        0.000000   -0.000000   -0.416189
      8          1           0        0.000000    1.387231   -0.832378
      9          1           0       -0.000000   -1.387231   -0.832378
     10          1           0        0.000000   -0.000000   -1.248567
 ---------------------------------------------------------------------

 SCF Done:  E(RHF) =  -4.95024518184     A.U. after    8 cycles
 E2 =    -0.8803259346D-01 EUMP2 =    -0.50382777753013D+01

 The electronic state is 1-AG.
 Alpha  occ. eigenvalues --   -0.95436  -0.72304  -0.63505  -0.55156  -0.28384
 Alpha virt. eigenvalues --    0.07887   0.08519   0.67531   0.83338   0.83417

 Mulliken charges:
               1
     1  H   -0.052430
     2  H    0.275221
     3  H   -0.066367
     4  H   -0.052430
     5  H   -0.103995
     6  H   -0.103995
     7  H   -0.066367
     8  H   -0.052430
     9  H   -0.052430
    10  H    0.275221
 Sum of Mulliken charges =  -0.00000

 Dipole moment (field-independent basis, Debye):
    X=              0.0000    Y=             -0.0000    Z=              0.0000  Tot=              0.0000
 Quadrupole moment (field-independent basis, Debye-Ang):
   XX=            -12.6154   YY=            -20.6051   ZZ=            -11.2411
   XY=             -0.0000   XZ=             -0.0000   YZ=              0.0000

 Normal termination of Gaussian 09 at Thu Feb  9 16:26:30 2017.
