 Gaussian 09, Revision E.01,
 Gaussian 09:  ES64L-G09RevE.01 30-Nov-2015

 ----------------------------------------------------------------------
 #rhf/gen scf(symm,tight,novaracc,noincfock,fulldiag) stable(crhf) geom
 =nocrowd test
 ----------------------------------------------------------------------

 ----------------------------------------------------------------------
 hf stability analysis of h10 triangular lattice, y= 1.5389562589227139
 ----------------------------------------------------------------------
 Symbolic Z-matrix:
 Charge =  0 Multiplicity = 1

                         Standard orientation:
 ---------------------------------------------------------------------
 Center     Atomic      Atomic             Coordinates (Angstroms)
 Number     Number       Type             X           Y           Z
 ---------------------------------------------------------------------
      1          1           0        0.000000    1.538956    0.750314
      2          1           0       -0.000000   -0.000000    1.125471
      3          1           0       -0.000000   -0.000000    0.375157
      4          1           0       -0.000000   -1.538956    0.750314
      5          1           0       -0.000000    1.538956    0.000000
      6          1           0       -0.000000   -1.538956   -0.000000
      7          1           0        0.000000    0.000000   -0.375157
      8          1           0        0.000000    1.538956   -0.750314
      9          1           0       -0.000000   -1.538956   -0.750314
     10          1           0        0.000000    0.000000   -1.125471
 ---------------------------------------------------------------------

 SCF Done:  E(RHF) =  -4.86066620956     A.U. after    8 cycles
 E2 =    -0.9445335712D-01 EUMP2 =    -0.49551195666716D+01

 The electronic state is 1-AG.
 Alpha  occ. eigenvalues --   -0.96454  -0.76070  -0.65117  -0.60892  -0.25728
 Alpha virt. eigenvalues --    0.03206   0.17049   0.80608   0.91480   1.06455

 Mulliken charges:
               1
     1  H    0.001606
     2  H    0.244921
     3  H   -0.087813
     4  H    0.001606
     5  H   -0.160320
     6  H   -0.160320
     7  H   -0.087813
     8  H    0.001606
     9  H    0.001606
    10  H    0.244921
 Sum of Mulliken charges =   0.00000

 Dipole moment (field-independent basis, Debye):
    X=              0.0000    Y=              0.0000    Z=              0.0000  Tot=              0.0000
 Quadrupole moment (field-independent basis, Debye-Ang):
   XX=            -12.5886   YY=            -19.4525   ZZ=            -12.4900
   XY=             -0.0000   XZ=             -0.0000   YZ=              0.0000

 Normal termination of Gaussian 09 at Thu Feb  9 16:28:34 2017.
