 Gaussian 09, Revision E.01,
 Gaussian 09:  ES64L-G09RevE.01 30-Nov-2015

 ----------------------------------------------------------------------
 #rhf/gen scf(symm,tight,novaracc,noincfock,fulldiag) stable(crhf) geom
 =nocrowd test
 ----------------------------------------------------------------------

 hf stability analysis of h10 triangular lattice, y= 0.8383780509878859
 8
 ----------------------------------------------------------------------
 Symbolic Z-matrix:
 Charge =  0 Multiplicity = 1

                         Standard orientation:
 ---------------------------------------------------------------------
 Center     Atomic      Atomic             Coordinates (Angstroms)
 Number     Number       Type             X           Y           Z
 ---------------------------------------------------------------------
      1          1           0       -0.000000    0.838378    1.377303
      2          1           0        0.000000    0.000000    2.065954
      3          1           0        0.000000    0.000000    0.688651
      4          1           0       -0.000000   -0.838378    1.377303
      5          1           0       -0.000000    0.838378    0.000000
      6          1           0       -0.000000   -0.838378    0.000000
      7          1           0        0.000000   -0.000000   -0.688651
      8          1           0        0.000000    0.838378   -1.377303
      9          1           0       -0.000000   -0.838378   -1.377303
     10          1           0        0.000000   -0.000000   -2.065954
 ---------------------------------------------------------------------

 SCF Done:  E(RHF) =  -4.94066330269     A.U. after    8 cycles
 E2 =    -0.9624322076D-01 EUMP2 =    -0.50369065234541D+01

 The electronic state is 1-AG.
 Alpha  occ. eigenvalues --   -0.93724  -0.74872  -0.52082  -0.48448  -0.30789
 Alpha virt. eigenvalues --    0.05024   0.17926   0.36619   0.45648   0.52546

 Mulliken charges:
               1
     1  H   -0.165939
     2  H    0.150918
     3  H    0.111152
     4  H   -0.165939
     5  H    0.069809
     6  H    0.069809
     7  H    0.111152
     8  H   -0.165939
     9  H   -0.165939
    10  H    0.150918
 Sum of Mulliken charges =   0.00000

 Dipole moment (field-independent basis, Debye):
    X=              0.0000    Y=             -0.0000    Z=              0.0000  Tot=              0.0000
 Quadrupole moment (field-independent basis, Debye-Ang):
   XX=            -12.9524   YY=            -17.5833   ZZ=            -14.3481
   XY=             -0.0000   XZ=             -0.0000   YZ=              0.0000

 Normal termination of Gaussian 09 at Thu Feb  9 16:10:37 2017.
