 Gaussian 09, Revision E.01,
 Gaussian 09:  ES64L-G09RevE.01 30-Nov-2015

 ----------------------------------------------------------------------
 #rhf/gen scf(symm,tight,novaracc,noincfock,fulldiag) stable(crhf) geom
 =nocrowd test
 ----------------------------------------------------------------------

 hf stability analysis of h10 triangular lattice, y= 0.7651590897986665
 4
 ----------------------------------------------------------------------
 Symbolic Z-matrix:
 Charge =  0 Multiplicity = 1

                         Standard orientation:
 ---------------------------------------------------------------------
 Center     Atomic      Atomic             Coordinates (Angstroms)
 Number     Number       Type             X           Y           Z
 ---------------------------------------------------------------------
      1          1           0        0.000000    0.765159    1.509099
      2          1           0        0.000000    0.000000    2.263648
      3          1           0        0.000000    0.000000    0.754549
      4          1           0       -0.000000   -0.765159    1.509099
      5          1           0       -0.000000    0.765159    0.000000
      6          1           0       -0.000000   -0.765159    0.000000
      7          1           0        0.000000    0.000000   -0.754549
      8          1           0        0.000000    0.765159   -1.509099
      9          1           0       -0.000000   -0.765159   -1.509099
     10          1           0        0.000000    0.000000   -2.263648
 ---------------------------------------------------------------------

 SCF Done:  E(RHF) =  -4.86459376164     A.U. after    8 cycles
 E2 =    -0.9729894786D-01 EUMP2 =    -0.49618927095015D+01

 The electronic state is 1-AG.
 Alpha  occ. eigenvalues --   -0.91256  -0.74734  -0.51669  -0.46764  -0.27892
 Alpha virt. eigenvalues --   -0.01505   0.15302   0.35412   0.50893   0.55163

 Mulliken charges:
               1
     1  H   -0.205815
     2  H    0.222606
     3  H    0.147896
     4  H   -0.205815
     5  H    0.041128
     6  H    0.041128
     7  H    0.147896
     8  H   -0.205815
     9  H   -0.205815
    10  H    0.222606
 Sum of Mulliken charges =  -0.00000

 Dipole moment (field-independent basis, Debye):
    X=              0.0000    Y=             -0.0000    Z=             -0.0000  Tot=              0.0000
 Quadrupole moment (field-independent basis, Debye-Ang):
   XX=            -12.9995   YY=            -18.5028   ZZ=            -11.3283
   XY=             -0.0000   XZ=             -0.0000   YZ=             -0.0000

 Normal termination of Gaussian 09 at Thu Feb  9 16:06:57 2017.
