 Gaussian 09, Revision E.01,
 Gaussian 09:  ES64L-G09RevE.01 30-Nov-2015

 ----------------------------------------------------------------------
 #rhf/gen scf(symm,tight,novaracc,noincfock,fulldiag) stable(crhf) geom
 =nocrowd test
 ----------------------------------------------------------------------

 hf stability analysis of h10 triangular lattice, y= 0.9055188689148155
 9
 ----------------------------------------------------------------------
 Symbolic Z-matrix:
 Charge =  0 Multiplicity = 1

                         Standard orientation:
 ---------------------------------------------------------------------
 Center     Atomic      Atomic             Coordinates (Angstroms)
 Number     Number       Type             X           Y           Z
 ---------------------------------------------------------------------
      1          1           0        0.000000    0.905519    1.275181
      2          1           0        0.000000    0.000000    1.912772
      3          1           0        0.000000    0.000000    0.637591
      4          1           0       -0.000000   -0.905519    1.275181
      5          1           0       -0.000000    0.905519    0.000000
      6          1           0       -0.000000   -0.905519    0.000000
      7          1           0        0.000000   -0.000000   -0.637591
      8          1           0        0.000000    0.905519   -1.275181
      9          1           0       -0.000000   -0.905519   -1.275181
     10          1           0        0.000000   -0.000000   -1.912772
 ---------------------------------------------------------------------

 SCF Done:  E(RHF) =  -4.96879680783     A.U. after    8 cycles
 E2 =    -0.9724416320D-01 EUMP2 =    -0.50660409710313D+01

 The electronic state is 1-AG.
 Alpha  occ. eigenvalues --   -0.95324  -0.74302  -0.56218  -0.45100  -0.32566
 Alpha virt. eigenvalues --    0.11864   0.21242   0.24958   0.47550   0.52956

 Mulliken charges:
               1
     1  H   -0.134794
     2  H    0.088044
     3  H    0.099288
     4  H   -0.134794
     5  H    0.082255
     6  H    0.082255
     7  H    0.099288
     8  H   -0.134794
     9  H   -0.134794
    10  H    0.088044
 Sum of Mulliken charges =  -0.00000

 Dipole moment (field-independent basis, Debye):
    X=              0.0000    Y=             -0.0000    Z=             -0.0000  Tot=              0.0000
 Quadrupole moment (field-independent basis, Debye-Ang):
   XX=            -12.9079   YY=            -16.6999   ZZ=            -16.4912
   XY=             -0.0000   XZ=              0.0000   YZ=             -0.0000

 Normal termination of Gaussian 09 at Thu Feb  9 16:13:36 2017.
