 Gaussian 09, Revision E.01,
 Gaussian 09:  ES64L-G09RevE.01 30-Nov-2015

 ----------------------------------------------------------------------
 #rhf/gen scf(symm,tight,novaracc,noincfock,fulldiag) stable(crhf) geom
 =nocrowd test
 ----------------------------------------------------------------------

 ----------------------------------------------------------------------
 hf stability analysis of h10 triangular lattice, y= 1.0247908639884131
 ----------------------------------------------------------------------
 Symbolic Z-matrix:
 Charge =  0 Multiplicity = 1

                         Standard orientation:
 ---------------------------------------------------------------------
 Center     Atomic      Atomic             Coordinates (Angstroms)
 Number     Number       Type             X           Y           Z
 ---------------------------------------------------------------------
      1          1           0        0.000000    1.024791    1.126767
      2          1           0        0.000000    0.000000    1.690151
      3          1           0        0.000000    0.000000    0.563383
      4          1           0       -0.000000   -1.024791    1.126767
      5          1           0       -0.000000    1.024791    0.000000
      6          1           0       -0.000000   -1.024791    0.000000
      7          1           0        0.000000   -0.000000   -0.563383
      8          1           0        0.000000    1.024791   -1.126767
      9          1           0       -0.000000   -1.024791   -1.126767
     10          1           0        0.000000   -0.000000   -1.690151
 ---------------------------------------------------------------------

 SCF Done:  E(RHF) =  -4.92374558059     A.U. after    9 cycles
 E2 =    -0.1035705960D+00 EUMP2 =    -0.50273161765758D+01

 The electronic state is 1-AG.
 Alpha  occ. eigenvalues --   -0.96987  -0.72173  -0.62255  -0.38519  -0.34158
 Alpha virt. eigenvalues --    0.07184   0.23773   0.28730   0.39001   0.62246

 Mulliken charges:
               1
     1  H   -0.083632
     2  H   -0.020694
     3  H    0.107308
     4  H   -0.083632
     5  H    0.080650
     6  H    0.080650
     7  H    0.107308
     8  H   -0.083632
     9  H   -0.083632
    10  H   -0.020694
 Sum of Mulliken charges =   0.00000

 Dipole moment (field-independent basis, Debye):
    X=              0.0000    Y=              0.0000    Z=              0.0000  Tot=              0.0000
 Quadrupole moment (field-independent basis, Debye-Ang):
   XX=            -12.8244   YY=            -15.0481   ZZ=            -19.2502
   XY=             -0.0000   XZ=              0.0000   YZ=              0.0000

 Normal termination of Gaussian 09 at Thu Feb  9 16:17:59 2017.
