 Gaussian 09, Revision E.01,
 Gaussian 09:  ES64L-G09RevE.01 30-Nov-2015

 ----------------------------------------------------------------------
 #rhf/gen scf(symm,tight,novaracc,noincfock,fulldiag) stable(crhf) geom
 =nocrowd test
 ----------------------------------------------------------------------

 ----------------------------------------------------------------------
 hf stability analysis of h10 triangular lattice, y= 1.0237328119822167
 ----------------------------------------------------------------------
 Symbolic Z-matrix:
 Charge =  0 Multiplicity = 1

                         Standard orientation:
 ---------------------------------------------------------------------
 Center     Atomic      Atomic             Coordinates (Angstroms)
 Number     Number       Type             X           Y           Z
 ---------------------------------------------------------------------
      1          1           0        0.000000    1.023733    1.127932
      2          1           0       -0.000000   -0.000000    1.691897
      3          1           0       -0.000000   -0.000000    0.563966
      4          1           0       -0.000000   -1.023733    1.127932
      5          1           0       -0.000000    1.023733    0.000000
      6          1           0       -0.000000   -1.023733   -0.000000
      7          1           0        0.000000    0.000000   -0.563966
      8          1           0        0.000000    1.023733   -1.127932
      9          1           0       -0.000000   -1.023733   -1.127932
     10          1           0        0.000000    0.000000   -1.691897
 ---------------------------------------------------------------------

 SCF Done:  E(RHF) =  -4.92465415186     A.U. after    9 cycles
 E2 =    -0.1034877589D+00 EUMP2 =    -0.50281419107387D+01

 The electronic state is 1-AG.
 Alpha  occ. eigenvalues --   -0.96978  -0.72196  -0.62208  -0.38580  -0.34151
 Alpha virt. eigenvalues --    0.07325   0.23696   0.28657   0.39039   0.62183

 Mulliken charges:
               1
     1  H   -0.084125
     2  H   -0.019699
     3  H    0.107119
     4  H   -0.084125
     5  H    0.080831
     6  H    0.080831
     7  H    0.107119
     8  H   -0.084125
     9  H   -0.084125
    10  H   -0.019699
 Sum of Mulliken charges =   0.00000

 Dipole moment (field-independent basis, Debye):
    X=              0.0000    Y=             -0.0000    Z=             -0.0000  Tot=              0.0000
 Quadrupole moment (field-independent basis, Debye-Ang):
   XX=            -12.8252   YY=            -15.0634   ZZ=            -19.2304
   XY=             -0.0000   XZ=              0.0000   YZ=             -0.0000

 Normal termination of Gaussian 09 at Thu Feb  9 16:17:57 2017.
