 Gaussian 09, Revision E.01,
 Gaussian 09:  ES64L-G09RevE.01 30-Nov-2015

 ----------------------------------------------------------------------
 #rhf/gen scf(symm,tight,novaracc,noincfock,fulldiag) stable(crhf) geom
 =nocrowd test
 ----------------------------------------------------------------------

 ----------------------------------------------------------------------
 hf stability analysis of h10 triangular lattice, y= 1.7868378553155890
 ----------------------------------------------------------------------
 Symbolic Z-matrix:
 Charge =  0 Multiplicity = 1

                         Standard orientation:
 ---------------------------------------------------------------------
 Center     Atomic      Atomic             Coordinates (Angstroms)
 Number     Number       Type             X           Y           Z
 ---------------------------------------------------------------------
      1          1           0        0.000000    1.786838    0.646226
      2          1           0        0.000000    0.000000    0.969339
      3          1           0        0.000000    0.000000    0.323113
      4          1           0       -0.000000   -1.786838    0.646226
      5          1           0       -0.000000    1.786838   -0.000000
      6          1           0       -0.000000   -1.786838    0.000000
      7          1           0        0.000000   -0.000000   -0.323113
      8          1           0        0.000000    1.786838   -0.646226
      9          1           0       -0.000000   -1.786838   -0.646226
     10          1           0        0.000000   -0.000000   -0.969339
 ---------------------------------------------------------------------

 SCF Done:  E(RHF) =  -4.52643686210     A.U. after    7 cycles
 E2 =    -0.1246001299D+00 EUMP2 =    -0.46510369920315D+01

 The electronic state is 1-AG.
 Alpha  occ. eigenvalues --   -0.98223  -0.81467  -0.77098  -0.57475  -0.21313
 Alpha virt. eigenvalues --   -0.00881   0.30571   1.01552   1.07167   1.46403

 Mulliken charges:
               1
     1  H    0.096518
     2  H    0.216681
     3  H   -0.134155
     4  H    0.096518
     5  H   -0.275561
     6  H   -0.275561
     7  H   -0.134155
     8  H    0.096518
     9  H    0.096518
    10  H    0.216681
 Sum of Mulliken charges =  -0.00000

 Dipole moment (field-independent basis, Debye):
    X=              0.0000    Y=              0.0000    Z=             -0.0000  Tot=              0.0000
 Quadrupole moment (field-independent basis, Debye-Ang):
   XX=            -12.4853   YY=            -17.2785   ZZ=            -13.7499
   XY=             -0.0000   XZ=              0.0000   YZ=              0.0000

 Normal termination of Gaussian 09 at Thu Feb  9 16:30:59 2017.
