 Gaussian 09, Revision E.01,
 Gaussian 09:  ES64L-G09RevE.01 30-Nov-2015

 ----------------------------------------------------------------------
 #rhf/gen scf(symm,tight,novaracc,noincfock,fulldiag) stable(crhf) geom
 =nocrowd test
 ----------------------------------------------------------------------

 ----------------------------------------------------------------------
 hf stability analysis of h10 triangular lattice, y= 1.4782365797854315
 ----------------------------------------------------------------------
 Symbolic Z-matrix:
 Charge =  0 Multiplicity = 1

                         Standard orientation:
 ---------------------------------------------------------------------
 Center     Atomic      Atomic             Coordinates (Angstroms)
 Number     Number       Type             X           Y           Z
 ---------------------------------------------------------------------
      1          1           0       -0.000000    1.478237    0.781134
      2          1           0       -0.000000    0.000000    1.171701
      3          1           0       -0.000000    0.000000    0.390567
      4          1           0       -0.000000   -1.478237    0.781134
      5          1           0       -0.000000    1.478237   -0.000000
      6          1           0       -0.000000   -1.478237    0.000000
      7          1           0        0.000000   -0.000000   -0.390567
      8          1           0        0.000000    1.478237   -0.781134
      9          1           0       -0.000000   -1.478237   -0.781134
     10          1           0        0.000000   -0.000000   -1.171701
 ---------------------------------------------------------------------

 SCF Done:  E(RHF) =  -4.90946044338     A.U. after    8 cycles
 E2 =    -0.9072136026D-01 EUMP2 =    -0.50001818036367D+01

 The electronic state is 1-AG.
 Alpha  occ. eigenvalues --   -0.96062  -0.74620  -0.61897  -0.61404  -0.26818
 Alpha virt. eigenvalues --    0.04852   0.13643   0.75394   0.88081   0.97090

 Mulliken charges:
               1
     1  H   -0.020874
     2  H    0.256582
     3  H   -0.078754
     4  H   -0.020874
     5  H   -0.136081
     6  H   -0.136081
     7  H   -0.078754
     8  H   -0.020874
     9  H   -0.020874
    10  H    0.256582
 Sum of Mulliken charges =  -0.00000

 Dipole moment (field-independent basis, Debye):
    X=              0.0000    Y=              0.0000    Z=              0.0000  Tot=              0.0000
 Quadrupole moment (field-independent basis, Debye-Ang):
   XX=            -12.6034   YY=            -19.9420   ZZ=            -12.0401
   XY=             -0.0000   XZ=             -0.0000   YZ=              0.0000

 Normal termination of Gaussian 09 at Thu Feb  9 16:27:49 2017.
