 Gaussian 09, Revision E.01,
 Gaussian 09:  ES64L-G09RevE.01 30-Nov-2015

 ----------------------------------------------------------------------
 #rhf/gen scf(symm,tight,novaracc,noincfock,fulldiag) stable(crhf) geom
 =nocrowd test
 ----------------------------------------------------------------------

 ----------------------------------------------------------------------
 hf stability analysis of h10 triangular lattice, y= 1.3742008147382716
 ----------------------------------------------------------------------
 Symbolic Z-matrix:
 Charge =  0 Multiplicity = 1

                         Standard orientation:
 ---------------------------------------------------------------------
 Center     Atomic      Atomic             Coordinates (Angstroms)
 Number     Number       Type             X           Y           Z
 ---------------------------------------------------------------------
      1          1           0        0.000000    1.374201    0.840271
      2          1           0       -0.000000    0.000000    1.260406
      3          1           0       -0.000000    0.000000    0.420135
      4          1           0       -0.000000   -1.374201    0.840271
      5          1           0       -0.000000    1.374201   -0.000000
      6          1           0       -0.000000   -1.374201    0.000000
      7          1           0        0.000000   -0.000000   -0.420135
      8          1           0        0.000000    1.374201   -0.840271
      9          1           0       -0.000000   -1.374201   -0.840271
     10          1           0        0.000000   -0.000000   -1.260406
 ---------------------------------------------------------------------

 SCF Done:  E(RHF) =  -4.95250869062     A.U. after    8 cycles
 E2 =    -0.8794623726D-01 EUMP2 =    -0.50404549278805D+01

 The electronic state is 1-AG.
 Alpha  occ. eigenvalues --   -0.95341  -0.71956  -0.63744  -0.54190  -0.28597
 Alpha virt. eigenvalues --    0.07787   0.08380   0.66402   0.81497   0.82690

 Mulliken charges:
               1
     1  H   -0.056605
     2  H    0.277801
     3  H   -0.064624
     4  H   -0.056605
     5  H   -0.099968
     6  H   -0.099968
     7  H   -0.064624
     8  H   -0.056605
     9  H   -0.056605
    10  H    0.277801
 Sum of Mulliken charges =  -0.00000

 Dipole moment (field-independent basis, Debye):
    X=              0.0000    Y=              0.0000    Z=              0.0000  Tot=              0.0000
 Quadrupole moment (field-independent basis, Debye-Ang):
   XX=            -12.6160   YY=            -20.6913   ZZ=            -11.1146
   XY=             -0.0000   XZ=             -0.0000   YZ=             -0.0000

 Normal termination of Gaussian 09 at Thu Feb  9 16:26:18 2017.
