 Gaussian 09, Revision E.01,
 Gaussian 09:  ES64L-G09RevE.01 30-Nov-2015

 ----------------------------------------------------------------------
 #rhf/gen scf(symm,tight,novaracc,noincfock,fulldiag) stable(crhf) geom
 =nocrowd test
 ----------------------------------------------------------------------

 hf stability analysis of h10 triangular lattice, y= 0.7598357022583297
 5
 ----------------------------------------------------------------------
 Symbolic Z-matrix:
 Charge =  0 Multiplicity = 1

                         Standard orientation:
 ---------------------------------------------------------------------
 Center     Atomic      Atomic             Coordinates (Angstroms)
 Number     Number       Type             X           Y           Z
 ---------------------------------------------------------------------
      1          1           0       -0.000000    0.759836    1.519671
      2          1           0       -0.000000    0.000000    2.279507
      3          1           0       -0.000000    0.000000    0.759836
      4          1           0       -0.000000   -0.759836    1.519671
      5          1           0       -0.000000    0.759836    0.000000
      6          1           0       -0.000000   -0.759836    0.000000
      7          1           0        0.000000    0.000000   -0.759836
      8          1           0        0.000000    0.759836   -1.519671
      9          1           0       -0.000000   -0.759836   -1.519671
     10          1           0        0.000000    0.000000   -2.279507
 ---------------------------------------------------------------------

 SCF Done:  E(RHF) =  -4.85718400137     A.U. after    8 cycles
 E2 =    -0.9746926156D-01 EUMP2 =    -0.49546532629320D+01

 The electronic state is 1-AG.
 Alpha  occ. eigenvalues --   -0.91043  -0.74687  -0.51882  -0.46338  -0.27635
 Alpha virt. eigenvalues --   -0.01931   0.15158   0.34673   0.51857   0.55170

 Mulliken charges:
               1
     1  H   -0.209014
     2  H    0.227941
     3  H    0.151827
     4  H   -0.209014
     5  H    0.038260
     6  H    0.038260
     7  H    0.151827
     8  H   -0.209014
     9  H   -0.209014
    10  H    0.227941
 Sum of Mulliken charges =  -0.00000

 Dipole moment (field-independent basis, Debye):
    X=              0.0000    Y=             -0.0000    Z=              0.0000  Tot=              0.0000
 Quadrupole moment (field-independent basis, Debye-Ang):
   XX=            -13.0028   YY=            -18.5671   ZZ=            -11.0748
   XY=             -0.0000   XZ=             -0.0000   YZ=             -0.0000

 Normal termination of Gaussian 09 at Thu Feb  9 16:06:40 2017.
