 Gaussian 09, Revision E.01,
 Gaussian 09:  ES64L-G09RevE.01 30-Nov-2015

 ----------------------------------------------------------------------
 #rhf/gen scf(symm,tight,novaracc,noincfock,fulldiag) stable(crhf) geom
 =nocrowd test
 ----------------------------------------------------------------------

 ----------------------------------------------------------------------
 hf stability analysis of h10 triangular lattice, y= 1.1229614708062909
 ----------------------------------------------------------------------
 Symbolic Z-matrix:
 Charge =  0 Multiplicity = 1

                         Standard orientation:
 ---------------------------------------------------------------------
 Center     Atomic      Atomic             Coordinates (Angstroms)
 Number     Number       Type             X           Y           Z
 ---------------------------------------------------------------------
      1          1           0       -0.000000    1.122961    1.028264
      2          1           0        0.000000   -0.000000    1.542396
      3          1           0        0.000000   -0.000000    0.514132
      4          1           0       -0.000000   -1.122961    1.028264
      5          1           0       -0.000000    1.122961    0.000000
      6          1           0       -0.000000   -1.122961   -0.000000
      7          1           0        0.000000    0.000000   -0.514132
      8          1           0        0.000000    1.122961   -1.028264
      9          1           0       -0.000000   -1.122961   -1.028264
     10          1           0        0.000000    0.000000   -1.542396
 ---------------------------------------------------------------------

 SCF Done:  E(RHF) =  -4.81601466292     A.U. after   13 cycles
 E2 =    -0.1096450207D+00 EUMP2 =    -0.49256596836602D+01

 The electronic state is 1-AG.
 Alpha  occ. eigenvalues --   -0.96101  -0.69811  -0.65548  -0.32843  -0.32458
 Alpha virt. eigenvalues --   -0.03521   0.21643   0.39858   0.44627   0.68752

 Mulliken charges:
               1
     1  H    0.045356
     2  H   -0.048683
     3  H    0.101837
     4  H    0.045356
     5  H   -0.143865
     6  H   -0.143865
     7  H    0.101837
     8  H    0.045356
     9  H    0.045356
    10  H   -0.048683
 Sum of Mulliken charges =  -0.00000

 Dipole moment (field-independent basis, Debye):
    X=              0.0000    Y=             -0.0000    Z=              0.0000  Tot=              0.0000
 Quadrupole moment (field-independent basis, Debye-Ang):
   XX=            -12.6395   YY=            -16.3313   ZZ=            -15.8400
   XY=             -0.0000   XZ=              0.0000   YZ=              0.0000

 Normal termination of Gaussian 09 at Thu Feb  9 16:20:58 2017.
