 Gaussian 09, Revision E.01,
 Gaussian 09:  ES64L-G09RevE.01 30-Nov-2015

 ----------------------------------------------------------------------
 #rhf/gen scf(symm,tight,novaracc,noincfock,fulldiag) stable(crhf) geom
 =nocrowd test
 ----------------------------------------------------------------------

 ----------------------------------------------------------------------
 hf stability analysis of h10 triangular lattice, y= 1.2106565115415191
 ----------------------------------------------------------------------
 Symbolic Z-matrix:
 Charge =  0 Multiplicity = 1

                         Standard orientation:
 ---------------------------------------------------------------------
 Center     Atomic      Atomic             Coordinates (Angstroms)
 Number     Number       Type             X           Y           Z
 ---------------------------------------------------------------------
      1          1           0       -0.000000    1.210656    0.953780
      2          1           0       -0.000000    0.000000    1.430671
      3          1           0       -0.000000    0.000000    0.476890
      4          1           0       -0.000000   -1.210656    0.953780
      5          1           0       -0.000000    1.210656   -0.000000
      6          1           0       -0.000000   -1.210656    0.000000
      7          1           0        0.000000   -0.000000   -0.476890
      8          1           0        0.000000    1.210656   -0.953780
      9          1           0       -0.000000   -1.210656   -0.953780
     10          1           0        0.000000   -0.000000   -1.430671
 ---------------------------------------------------------------------

 SCF Done:  E(RHF) =  -4.89087599208     A.U. after    9 cycles
 E2 =    -0.9521572376D-01 EUMP2 =    -0.49860917158366D+01

 The electronic state is 1-AG.
 Alpha  occ. eigenvalues --   -0.94166  -0.67239  -0.66990  -0.40504  -0.30807
 Alpha virt. eigenvalues --   -0.01037   0.15712   0.52100   0.58171   0.74888

 Mulliken charges:
               1
     1  H   -0.082722
     2  H    0.278577
     3  H   -0.028666
     4  H   -0.082722
     5  H   -0.084466
     6  H   -0.084466
     7  H   -0.028666
     8  H   -0.082722
     9  H   -0.082722
    10  H    0.278577
 Sum of Mulliken charges =   0.00000

 Dipole moment (field-independent basis, Debye):
    X=              0.0000    Y=             -0.0000    Z=             -0.0000  Tot=              0.0000
 Quadrupole moment (field-independent basis, Debye-Ang):
   XX=            -12.5968   YY=            -21.2987   ZZ=             -9.5871
   XY=             -0.0000   XZ=             -0.0000   YZ=              0.0000

 Normal termination of Gaussian 09 at Thu Feb  9 16:23:08 2017.
