 Gaussian 09, Revision E.01,
 Gaussian 09:  ES64L-G09RevE.01 30-Nov-2015

 ----------------------------------------------------------------------
 #rhf/gen scf(symm,tight,novaracc,noincfock,fulldiag) stable(crhf) geom
 =nocrowd test
 ----------------------------------------------------------------------

 ----------------------------------------------------------------------
 hf stability analysis of h10 triangular lattice, y= 1.9481142316469726
 ----------------------------------------------------------------------
 Symbolic Z-matrix:
 Charge =  0 Multiplicity = 1

                         Standard orientation:
 ---------------------------------------------------------------------
 Center     Atomic      Atomic             Coordinates (Angstroms)
 Number     Number       Type             X           Y           Z
 ---------------------------------------------------------------------
      1          1           0        0.000000    1.948114    0.592727
      2          1           0       -0.000000   -0.000000    0.889091
      3          1           0       -0.000000   -0.000000    0.296364
      4          1           0       -0.000000   -1.948114    0.592727
      5          1           0       -0.000000    1.948114    0.000000
      6          1           0       -0.000000   -1.948114   -0.000000
      7          1           0        0.000000    0.000000   -0.296364
      8          1           0        0.000000    1.948114   -0.592727
      9          1           0       -0.000000   -1.948114   -0.592727
     10          1           0        0.000000    0.000000   -0.889091
 ---------------------------------------------------------------------

 SCF Done:  E(RHF) =  -4.22387837781     A.U. after    7 cycles
 E2 =    -0.1547014481D+00 EUMP2 =    -0.43785798258678D+01

 The electronic state is 1-AG.
 Alpha  occ. eigenvalues --   -0.99917  -0.84677  -0.82688  -0.55897  -0.18658
 Alpha virt. eigenvalues --   -0.01817   0.38805   1.14957   1.18611   1.73542

 Mulliken charges:
               1
     1  H    0.156919
     2  H    0.220262
     3  H   -0.171850
     4  H    0.156919
     5  H   -0.362249
     6  H   -0.362249
     7  H   -0.171850
     8  H    0.156919
     9  H    0.156919
    10  H    0.220262
 Sum of Mulliken charges =  -0.00000

 Dipole moment (field-independent basis, Debye):
    X=              0.0000    Y=              0.0000    Z=             -0.0000  Tot=              0.0000
 Quadrupole moment (field-independent basis, Debye-Ang):
   XX=            -12.3959   YY=            -15.9369   ZZ=            -14.2171
   XY=             -0.0000   XZ=              0.0000   YZ=             -0.0000

 Normal termination of Gaussian 09 at Thu Feb  9 16:32:06 2017.
