 Gaussian 09, Revision E.01,
 Gaussian 09:  ES64L-G09RevE.01 30-Nov-2015

 ----------------------------------------------------------------------
 #rhf/gen scf(symm,tight,novaracc,noincfock,fulldiag) stable(crhf) geom
 =nocrowd test
 ----------------------------------------------------------------------

 hf stability analysis of h10 triangular lattice, y= 0.9465053130498035
 6
 ----------------------------------------------------------------------
 Symbolic Z-matrix:
 Charge =  0 Multiplicity = 1

                         Standard orientation:
 ---------------------------------------------------------------------
 Center     Atomic      Atomic             Coordinates (Angstroms)
 Number     Number       Type             X           Y           Z
 ---------------------------------------------------------------------
      1          1           0        0.000000    0.946505    1.219962
      2          1           0        0.000000   -0.000000    1.829943
      3          1           0        0.000000   -0.000000    0.609981
      4          1           0       -0.000000   -0.946505    1.219962
      5          1           0       -0.000000    0.946505    0.000000
      6          1           0       -0.000000   -0.946505   -0.000000
      7          1           0        0.000000    0.000000   -0.609981
      8          1           0        0.000000    0.946505   -1.219962
      9          1           0       -0.000000   -0.946505   -1.219962
     10          1           0        0.000000    0.000000   -1.829943
 ---------------------------------------------------------------------

 SCF Done:  E(RHF) =  -4.96672973803     A.U. after    8 cycles
 E2 =    -0.9875316431D-01 EUMP2 =    -0.50654829023413D+01

 The electronic state is 1-AG.
 Alpha  occ. eigenvalues --   -0.96044  -0.73701  -0.58461  -0.42917  -0.33314
 Alpha virt. eigenvalues --    0.16242   0.18405   0.23614   0.44149   0.56690

 Mulliken charges:
               1
     1  H   -0.117295
     2  H    0.050699
     3  H    0.098789
     4  H   -0.117295
     5  H    0.085102
     6  H    0.085102
     7  H    0.098789
     8  H   -0.117295
     9  H   -0.117295
    10  H    0.050699
 Sum of Mulliken charges =  -0.00000

 Dipole moment (field-independent basis, Debye):
    X=              0.0000    Y=              0.0000    Z=             -0.0000  Tot=              0.0000
 Quadrupole moment (field-independent basis, Debye-Ang):
   XX=            -12.8801   YY=            -16.1451   ZZ=            -17.5703
   XY=             -0.0000   XZ=              0.0000   YZ=              0.0000

 Normal termination of Gaussian 09 at Thu Feb  9 16:15:16 2017.
