 Gaussian 09, Revision E.01,
 Gaussian 09:  ES64L-G09RevE.01 30-Nov-2015

 ----------------------------------------------------------------------
 #t rhf/gen scf(tight,novaracc,noincfock) stable(crhf) guess=mix geom=n
 ocrowd test
 ----------------------------------------------------------------------

 scf stability calculation for a triangular configuration of 88888888 H
  atoms (made up of 8 iscosceles triangles)
 ----------------------------------------------------------------------
 Symbolic Z-matrix:
 Charge =  0 Multiplicity = 1

                         Standard orientation:
 ---------------------------------------------------------------------
 Center     Atomic      Atomic             Coordinates (Angstroms)
 Number     Number       Type             X           Y           Z
 ---------------------------------------------------------------------
      1          1           0        0.000000    0.849000    1.360070
      2          1           0       -0.000000    0.849000    0.000000
      3          1           0        0.000000    0.849000   -1.360070
      4          1           0       -0.000000    0.000000    0.680035
      5          1           0        0.000000   -0.000000   -0.680035
      6          1           0       -0.000000   -0.849000    1.360070
      7          1           0       -0.000000   -0.849000   -0.000000
      8          1           0       -0.000000   -0.849000   -1.360070
 ---------------------------------------------------------------------

 SCF Done:  E(RHF) =  -3.89291468510     A.U. after   14 cycles
 E2 =    -0.7859733254D-01 EUMP2 =    -0.39715120176382D+01

 The electronic state is 1-AG.
 Alpha  occ. eigenvalues --   -0.88986  -0.60545  -0.51450  -0.25458
 Alpha virt. eigenvalues --    0.03147   0.24000   0.39192   0.40815

 Mulliken charges:
               1
     1  H   -0.024276
     2  H    0.120086
     3  H   -0.024276
     4  H   -0.071535
     5  H   -0.071535
     6  H   -0.024276
     7  H    0.120086
     8  H   -0.024276
 Sum of Mulliken charges =  -0.00000

 Dipole moment (field-independent basis, Debye):
    X=             -0.0000    Y=             -0.0000    Z=             -0.0000  Tot=              0.0000

 Test job not archived.
 1\1\GINC-SULU\Stability\RHF\Gen\H8\LCJ1\23-Jan-2017\0\\#t rhf/gen scf(
 tight,novaracc,noincfock) stable(crhf) guess=mix geom=nocrowd test\\sc
 f stability calculation for a triangular configuration of 88888888 H a
 toms (made up of 8 iscosceles triangles)\\0,1\H,0,-1.36007,0.,0.849\H,
 0,0.,0.,0.849\H,0,1.36007,0.,0.849\H,0,-0.680035,0.,0.\H,0,0.680035,0.
 ,0.\H,0,-1.36007,0.,-0.849\H,0,0.,0.,-0.849\H,0,1.36007,0.,-0.849\\Ver
 sion=ES64L-G09RevE.01\State=1-AG\HF=-3.8929147\MP2=-3.971512\RMSD=1.51
 5e-09\Dipole=0.,0.,0.\Quadrupole=-0.1088164,1.1217278,-1.0129114,0.,0.

 Normal termination of Gaussian 09 at Mon Jan 23 15:48:14 2017.
