 Gaussian 09, Revision E.01,
 Gaussian 09:  ES64L-G09RevE.01 30-Nov-2015

 ----------------------------------------------------------------------
 #rhf/gen scf(symm,tight,novaracc,noincfock,fulldiag) stable(crhf) gues
 s=read geom=nocrowd test
 ----------------------------------------------------------------------

 hf stability analysis of h10 triangular lattice, y= 0.4707695940863088
 6
 ----------------------------------------------------------------------
 Symbolic Z-matrix:
 Charge =  0 Multiplicity = 1

                         Standard orientation:
 ---------------------------------------------------------------------
 Center     Atomic      Atomic             Coordinates (Angstroms)
 Number     Number       Type             X           Y           Z
 ---------------------------------------------------------------------
      1          1           0        2.452793    1.412309   -0.000000
      2          1           0        3.679190    0.941539   -0.000000
      3          1           0        1.226397    0.941539   -0.000000
      4          1           0        2.452793    0.470770   -0.000000
      5          1           0       -0.000000    0.470770    0.000000
      6          1           0        1.226397    0.000000   -0.000000
      7          1           0       -1.226397   -0.000000   -0.000000
      8          1           0        0.000000   -0.470770   -0.000000
      9          1           0       -2.452793   -0.470770   -0.000000
     10          1           0       -1.226397   -0.941539   -0.000000
     11          1           0       -3.679190   -0.941539   -0.000000
     12          1           0       -2.452793   -1.412309   -0.000000
 ---------------------------------------------------------------------

 SCF Done:  E(RHF) =  -5.38669216469     A.U. after   10 cycles
 E2 =     0.4854380810D-01 EUMP2 =    -0.53381483565906D+01

 The electronic state is 1-AG.
 Alpha  occ. eigenvalues --   -0.83207  -0.76296  -0.63979  -0.48519  -0.25143
 Alpha  occ. eigenvalues --   -0.08738
 Alpha virt. eigenvalues --   -0.11398   0.05653   0.15505   0.25538   0.45060
 Alpha virt. eigenvalues --    0.60696

 Mulliken charges:
               1
     1  H   -0.009538
     2  H   -0.075035
     3  H    0.097509
     4  H    0.081830
     5  H    0.013573
     6  H   -0.108338
     7  H   -0.108338
     8  H    0.013573
     9  H    0.081830
    10  H    0.097509
    11  H   -0.075035
    12  H   -0.009538
 Sum of Mulliken charges =  -0.00000

 Dipole moment (field-independent basis, Debye):
    X=              0.0000    Y=              0.0000    Z=              0.0000  Tot=              0.0000
 Quadrupole moment (field-independent basis, Debye-Ang):
   XX=            -24.5401   YY=            -16.8702   ZZ=            -15.4383
   XY=             -0.3945   XZ=             -0.0000   YZ=             -0.0000

 Normal termination of Gaussian 09 at Tue Feb 14 17:42:08 2017.
