 Gaussian 09, Revision E.01,
 Gaussian 09:  ES64L-G09RevE.01 30-Nov-2015

 ----------------------------------------------------------------------
 #rhf/gen scf(symm,tight,novaracc,noincfock,fulldiag) stable(crhf) gues
 s=read geom=nocrowd test
 ----------------------------------------------------------------------

 hf stability analysis of h10 triangular lattice, y= 0.6837609579800398
 9
 ----------------------------------------------------------------------
 Symbolic Z-matrix:
 Charge =  0 Multiplicity = 1

                         Standard orientation:
 ---------------------------------------------------------------------
 Center     Atomic      Atomic             Coordinates (Angstroms)
 Number     Number       Type             X           Y           Z
 ---------------------------------------------------------------------
      1          1           0        1.688749    2.051283    0.000000
      2          1           0        2.533123    1.367522    0.000000
      3          1           0        0.844374    1.367522    0.000000
      4          1           0        1.688749    0.683761    0.000000
      5          1           0        0.000000    0.683761    0.000000
      6          1           0        0.844374    0.000000    0.000000
      7          1           0       -0.844374    0.000000    0.000000
      8          1           0       -0.000000   -0.683761    0.000000
      9          1           0       -1.688749   -0.683761    0.000000
     10          1           0       -0.844374   -1.367522    0.000000
     11          1           0       -2.533123   -1.367522    0.000000
     12          1           0       -1.688749   -2.051283    0.000000
 ---------------------------------------------------------------------

 SCF Done:  E(RHF) =  -5.51988661062     A.U. after    9 cycles
 E2 =    -0.1016829302D+00 EUMP2 =    -0.56215695408587D+01

 The electronic state is 1-AG.
 Alpha  occ. eigenvalues --   -0.87896  -0.80026  -0.63402  -0.43027  -0.41325
 Alpha  occ. eigenvalues --   -0.12663
 Alpha virt. eigenvalues --   -0.15600   0.04349   0.30031   0.39681   0.60185
 Alpha virt. eigenvalues --    0.88337

 Mulliken charges:
               1
     1  H   -0.097430
     2  H   -0.002757
     3  H    0.159776
     4  H    0.124237
     5  H   -0.106693
     6  H   -0.077132
     7  H   -0.077132
     8  H   -0.106693
     9  H    0.124237
    10  H    0.159776
    11  H   -0.002757
    12  H   -0.097430
 Sum of Mulliken charges =   0.00000

 Dipole moment (field-independent basis, Debye):
    X=             -0.0000    Y=              0.0000    Z=              0.0000  Tot=              0.0000
 Quadrupole moment (field-independent basis, Debye-Ang):
   XX=            -17.3264   YY=            -19.5217   ZZ=            -15.2399
   XY=             -0.0370   XZ=             -0.0000   YZ=             -0.0000

 Normal termination of Gaussian 09 at Tue Feb 14 17:42:50 2017.
