 Gaussian 09, Revision E.01,
 Gaussian 09:  ES64L-G09RevE.01 30-Nov-2015

 ----------------------------------------------------------------------
 #rhf/gen scf(symm,tight,novaracc,noincfock,fulldiag) stable(crhf) gues
 s=read geom=nocrowd test
 ----------------------------------------------------------------------

 hf stability analysis of h10 triangular lattice, y= 0.5889881594497650
 1
 ----------------------------------------------------------------------
 Symbolic Z-matrix:
 Charge =  0 Multiplicity = 1

                         Standard orientation:
 ---------------------------------------------------------------------
 Center     Atomic      Atomic             Coordinates (Angstroms)
 Number     Number       Type             X           Y           Z
 ---------------------------------------------------------------------
      1          1           0        1.960482    1.766964    0.000000
      2          1           0        2.940723    1.177976    0.000000
      3          1           0        0.980241    1.177976    0.000000
      4          1           0        1.960482    0.588988    0.000000
      5          1           0        0.000000    0.588988    0.000000
      6          1           0        0.980241    0.000000    0.000000
      7          1           0       -0.980241    0.000000    0.000000
      8          1           0       -0.000000   -0.588988    0.000000
      9          1           0       -1.960482   -0.588988    0.000000
     10          1           0       -0.980241   -1.177976    0.000000
     11          1           0       -2.940723   -1.177976    0.000000
     12          1           0       -1.960482   -1.766964    0.000000
 ---------------------------------------------------------------------

 SCF Done:  E(RHF) =  -5.46891239518     A.U. after   10 cycles
 E2 =    -0.1099117108D+00 EUMP2 =    -0.55788241060011D+01

 The electronic state is 1-AG.
 Alpha  occ. eigenvalues --   -0.85825  -0.78686  -0.63014  -0.44067  -0.36995
 Alpha  occ. eigenvalues --   -0.08634
 Alpha virt. eigenvalues --   -0.11650   0.01792   0.30526   0.31257   0.60644
 Alpha virt. eigenvalues --    0.64288

 Mulliken charges:
               1
     1  H   -0.152382
     2  H    0.059709
     3  H    0.156793
     4  H    0.114977
     5  H   -0.111659
     6  H   -0.067438
     7  H   -0.067438
     8  H   -0.111659
     9  H    0.114977
    10  H    0.156793
    11  H    0.059709
    12  H   -0.152382
 Sum of Mulliken charges =   0.00000

 Dipole moment (field-independent basis, Debye):
    X=              0.0000    Y=             -0.0000    Z=              0.0000  Tot=              0.0000
 Quadrupole moment (field-independent basis, Debye-Ang):
   XX=            -13.7336   YY=            -20.1650   ZZ=            -15.3192
   XY=              0.5267   XZ=              0.0000   YZ=             -0.0000

 Normal termination of Gaussian 09 at Tue Feb 14 17:42:32 2017.
