 Gaussian 09, Revision E.01,
 Gaussian 09:  ES64L-G09RevE.01 30-Nov-2015

 ----------------------------------------------------------------------
 #rhf/gen scf(symm,tight,novaracc,noincfock,fulldiag) stable(crhf) gues
 s=read geom=nocrowd test
 ----------------------------------------------------------------------

 hf stability analysis of h10 triangular lattice, y= 0.4458672966047664
 3
 ----------------------------------------------------------------------
 Symbolic Z-matrix:
 Charge =  0 Multiplicity = 1

                         Standard orientation:
 ---------------------------------------------------------------------
 Center     Atomic      Atomic             Coordinates (Angstroms)
 Number     Number       Type             X           Y           Z
 ---------------------------------------------------------------------
      1          1           0        2.589785    1.337602    0.000000
      2          1           0        3.884678    0.891735    0.000000
      3          1           0        1.294893    0.891735    0.000000
      4          1           0        2.589785    0.445867    0.000000
      5          1           0        0.000000    0.445867    0.000000
      6          1           0        1.294893    0.000000    0.000000
      7          1           0       -1.294893    0.000000    0.000000
      8          1           0       -0.000000   -0.445867   -0.000000
      9          1           0       -2.589785   -0.445867    0.000000
     10          1           0       -1.294893   -0.891735    0.000000
     11          1           0       -3.884678   -0.891735    0.000000
     12          1           0       -2.589785   -1.337602    0.000000
 ---------------------------------------------------------------------

 SCF Done:  E(RHF) =  -5.36458848977     A.U. after   10 cycles
 E2 =     0.3596642274D-01 EUMP2 =    -0.53286220670327D+01

 The electronic state is 1-AG.
 Alpha  occ. eigenvalues --   -0.82161  -0.75562  -0.64293  -0.49857  -0.21726
 Alpha  occ. eigenvalues --   -0.10756
 Alpha virt. eigenvalues --   -0.12999   0.05310   0.12271   0.27325   0.45803
 Alpha virt. eigenvalues --    0.61151

 Mulliken charges:
               1
     1  H    0.012302
     2  H   -0.072388
     3  H    0.077725
     4  H    0.053549
     5  H    0.024229
     6  H   -0.095415
     7  H   -0.095415
     8  H    0.024229
     9  H    0.053549
    10  H    0.077725
    11  H   -0.072388
    12  H    0.012302
 Sum of Mulliken charges =  -0.00000

 Dipole moment (field-independent basis, Debye):
    X=             -0.0000    Y=              0.0000    Z=             -0.0000  Tot=              0.0000
 Quadrupole moment (field-independent basis, Debye-Ang):
   XX=            -25.0931   YY=            -16.6892   ZZ=            -15.4998
   XY=             -0.0682   XZ=              0.0000   YZ=             -0.0000

 Normal termination of Gaussian 09 at Tue Feb 14 17:42:04 2017.
