 Gaussian 09, Revision E.01,
 Gaussian 09:  ES64L-G09RevE.01 30-Nov-2015

 ----------------------------------------------------------------------
 #rhf/gen scf(symm,tight,novaracc,noincfock,fulldiag) stable(crhf) gues
 s=read geom=nocrowd test
 ----------------------------------------------------------------------

 hf stability analysis of h10 triangular lattice, y= 0.3350007865764852
 4
 ----------------------------------------------------------------------
 Symbolic Z-matrix:
 Charge =  0 Multiplicity = 1

                         Standard orientation:
 ---------------------------------------------------------------------
 Center     Atomic      Atomic             Coordinates (Angstroms)
 Number     Number       Type             X           Y           Z
 ---------------------------------------------------------------------
      1          1           0        3.446859    1.005002   -0.000000
      2          1           0        5.170289    0.670002   -0.000000
      3          1           0        1.723430    0.670002   -0.000000
      4          1           0        3.446859    0.335001   -0.000000
      5          1           0        0.000000    0.335001    0.000000
      6          1           0        1.723430    0.000000   -0.000000
      7          1           0       -1.723430    0.000000   -0.000000
      8          1           0       -0.000000   -0.335001    0.000000
      9          1           0       -3.446859   -0.335001    0.000000
     10          1           0       -1.723430   -0.670002    0.000000
     11          1           0       -5.170289   -0.670002    0.000000
     12          1           0       -3.446859   -1.005002    0.000000
 ---------------------------------------------------------------------

 SCF Done:  E(RHF) =  -4.85560545675     A.U. after    9 cycles
 E2 =    -0.4778466976D+00 EUMP2 =    -0.53334521543633D+01

 The electronic state is 1-AG.
 Alpha  occ. eigenvalues --   -0.75693  -0.72500  -0.65756  -0.59192  -0.18491
 Alpha  occ. eigenvalues --   -0.01848
 Alpha virt. eigenvalues --   -0.25652  -0.12992   0.30408   0.40491   0.54110
 Alpha virt. eigenvalues --    0.62773

 Mulliken charges:
               1
     1  H    0.010300
     2  H   -0.016211
     3  H    0.012552
     4  H    0.000044
     5  H    0.043049
     6  H   -0.049735
     7  H   -0.049735
     8  H    0.043049
     9  H    0.000044
    10  H    0.012552
    11  H   -0.016211
    12  H    0.010300
 Sum of Mulliken charges =  -0.00000

 Dipole moment (field-independent basis, Debye):
    X=             -0.0000    Y=             -0.0000    Z=              0.0000  Tot=              0.0000
 Quadrupole moment (field-independent basis, Debye-Ang):
   XX=            -20.3183   YY=            -17.7536   ZZ=            -15.7238
   XY=              0.6182   XZ=              0.0000   YZ=              0.0000

 Normal termination of Gaussian 09 at Tue Feb 14 17:41:44 2017.
