 Gaussian 09, Revision E.01,
 Gaussian 09:  ES64L-G09RevE.01 30-Nov-2015

 ----------------------------------------------------------------------
 #rhf/gen scf(symm,tight,novaracc,noincfock,fulldiag) stable(crhf) gues
 s=read geom=nocrowd test
 ----------------------------------------------------------------------

 hf stability analysis of h10 triangular lattice, y= 0.8753112166669652
 1
 ----------------------------------------------------------------------
 Symbolic Z-matrix:
 Charge =  0 Multiplicity = 1

                         Standard orientation:
 ---------------------------------------------------------------------
 Center     Atomic      Atomic             Coordinates (Angstroms)
 Number     Number       Type             X           Y           Z
 ---------------------------------------------------------------------
      1          1           0        2.625934    1.319189   -0.000000
      2          1           0        1.750622    1.978783   -0.000000
      3          1           0        1.750622    0.659594   -0.000000
      4          1           0        0.875311    1.319189   -0.000000
      5          1           0        0.875311    0.000000   -0.000000
      6          1           0        0.000000    0.659594    0.000000
      7          1           0       -0.000000   -0.659594    0.000000
      8          1           0       -0.875311    0.000000   -0.000000
      9          1           0       -0.875311   -1.319189    0.000000
     10          1           0       -1.750622   -0.659594   -0.000000
     11          1           0       -1.750622   -1.978783   -0.000000
     12          1           0       -2.625934   -1.319189   -0.000000
 ---------------------------------------------------------------------

 SCF Done:  E(RHF) =  -5.51283080672     A.U. after    9 cycles
 E2 =    -0.1030644170D+00 EUMP2 =    -0.56158952237731D+01

 The electronic state is 1-AG.
 Alpha  occ. eigenvalues --   -0.87516  -0.79772  -0.63339  -0.42851  -0.40971
 Alpha  occ. eigenvalues --   -0.11899
 Alpha virt. eigenvalues --   -0.14856   0.03849   0.30318   0.37941   0.60220
 Alpha virt. eigenvalues --    0.83297

 Mulliken charges:
               1
     1  H    0.015107
     2  H   -0.111222
     3  H    0.117503
     4  H    0.160832
     5  H   -0.072514
     6  H   -0.109707
     7  H   -0.109707
     8  H   -0.072514
     9  H    0.160832
    10  H    0.117503
    11  H   -0.111222
    12  H    0.015107
 Sum of Mulliken charges =   0.00000

 Dipole moment (field-independent basis, Debye):
    X=              0.0000    Y=              0.0000    Z=             -0.0000  Tot=              0.0000
 Quadrupole moment (field-independent basis, Debye-Ang):
   XX=            -16.5657   YY=            -19.6947   ZZ=            -15.2545
   XY=              0.1277   XZ=             -0.0000   YZ=              0.0000

 Normal termination of Gaussian 09 at Tue Feb 14 17:43:24 2017.
