 Gaussian 09, Revision E.01,
 Gaussian 09:  ES64L-G09RevE.01 30-Nov-2015

 ----------------------------------------------------------------------
 #rhf/gen scf(symm,tight,novaracc,noincfock,fulldiag) stable(crhf) gues
 s=read geom=nocrowd test
 ----------------------------------------------------------------------

 hf stability analysis of h10 triangular lattice, y= 0.3933198989211816
 9
 ----------------------------------------------------------------------
 Symbolic Z-matrix:
 Charge =  0 Multiplicity = 1

                         Standard orientation:
 ---------------------------------------------------------------------
 Center     Atomic      Atomic             Coordinates (Angstroms)
 Number     Number       Type             X           Y           Z
 ---------------------------------------------------------------------
      1          1           0        2.935780    1.179960    0.000000
      2          1           0        4.403669    0.786640    0.000000
      3          1           0        1.467890    0.786640    0.000000
      4          1           0        2.935780    0.393320    0.000000
      5          1           0        0.000000    0.393320    0.000000
      6          1           0        1.467890    0.000000    0.000000
      7          1           0       -1.467890    0.000000   -0.000000
      8          1           0       -0.000000   -0.393320    0.000000
      9          1           0       -2.935780   -0.393320   -0.000000
     10          1           0       -1.467890   -0.786640   -0.000000
     11          1           0       -4.403669   -0.786640   -0.000000
     12          1           0       -2.935780   -1.179960   -0.000000
 ---------------------------------------------------------------------

 SCF Done:  E(RHF) =  -5.22737660350     A.U. after    9 cycles
 E2 =    -0.6034240828D+00 EUMP2 =    -0.58308006863072D+01

 The electronic state is 1-AG.
 Alpha  occ. eigenvalues --   -0.79304  -0.74002  -0.64889  -0.53462  -0.15446
 Alpha  occ. eigenvalues --   -0.12717
 Alpha virt. eigenvalues --   -0.17525  -0.05533   0.18726   0.32673   0.48885
 Alpha virt. eigenvalues --    0.62062

 Mulliken charges:
               1
     1  H    0.021585
     2  H   -0.045168
     3  H    0.044492
     4  H    0.016616
     5  H    0.028906
     6  H   -0.066430
     7  H   -0.066430
     8  H    0.028906
     9  H    0.016616
    10  H    0.044492
    11  H   -0.045168
    12  H    0.021585
 Sum of Mulliken charges =   0.00000

 Dipole moment (field-independent basis, Debye):
    X=             -0.0000    Y=             -0.0000    Z=              0.0000  Tot=              0.0000
 Quadrupole moment (field-independent basis, Debye-Ang):
   XX=            -23.2780   YY=            -17.0751   ZZ=            -15.6419
   XY=              0.5425   XZ=             -0.0000   YZ=             -0.0000

 Normal termination of Gaussian 09 at Tue Feb 14 17:41:54 2017.
