 Gaussian 09, Revision E.01,
 Gaussian 09:  ES64L-G09RevE.01 30-Nov-2015

 ----------------------------------------------------------------------
 #rhf/gen scf(symm,tight,novaracc,noincfock,fulldiag) stable(crhf) gues
 s=read geom=nocrowd test
 ----------------------------------------------------------------------

 hf stability analysis of h10 triangular lattice, y= 0.5540600992415728
 5
 ----------------------------------------------------------------------
 Symbolic Z-matrix:
 Charge =  0 Multiplicity = 1

                         Standard orientation:
 ---------------------------------------------------------------------
 Center     Atomic      Atomic             Coordinates (Angstroms)
 Number     Number       Type             X           Y           Z
 ---------------------------------------------------------------------
      1          1           0        2.084071    1.662180    0.000000
      2          1           0        3.126106    1.108120    0.000000
      3          1           0        1.042035    1.108120    0.000000
      4          1           0        2.084071    0.554060    0.000000
      5          1           0        0.000000    0.554060    0.000000
      6          1           0        1.042035    0.000000    0.000000
      7          1           0       -1.042035    0.000000   -0.000000
      8          1           0       -0.000000   -0.554060    0.000000
      9          1           0       -2.084071   -0.554060   -0.000000
     10          1           0       -1.042035   -1.108120   -0.000000
     11          1           0       -3.126106   -1.108120   -0.000000
     12          1           0       -2.084071   -1.662180   -0.000000
 ---------------------------------------------------------------------

 SCF Done:  E(RHF) =  -5.43356949955     A.U. after   10 cycles
 E2 =    -0.1093204795D+00 EUMP2 =    -0.55428899790168D+01

 The electronic state is 1-AG.
 Alpha  occ. eigenvalues --   -0.84902  -0.78096  -0.62882  -0.45095  -0.33923
 Alpha  occ. eigenvalues --   -0.06942
 Alpha virt. eigenvalues --   -0.10028   0.01053   0.26557   0.30812   0.54514
 Alpha virt. eigenvalues --    0.60787

 Mulliken charges:
               1
     1  H   -0.159841
     2  H    0.051995
     3  H    0.152751
     4  H    0.131664
     5  H   -0.098758
     6  H   -0.077811
     7  H   -0.077811
     8  H   -0.098758
     9  H    0.131664
    10  H    0.152751
    11  H    0.051995
    12  H   -0.159841
 Sum of Mulliken charges =  -0.00000

 Dipole moment (field-independent basis, Debye):
    X=              0.0000    Y=              0.0000    Z=             -0.0000  Tot=              0.0000
 Quadrupole moment (field-independent basis, Debye-Ang):
   XX=            -13.6655   YY=            -20.0335   ZZ=            -15.3524
   XY=              0.2860   XZ=              0.0000   YZ=             -0.0000

 Normal termination of Gaussian 09 at Tue Feb 14 17:42:25 2017.
