 Gaussian 09, Revision E.01,
 Gaussian 09:  ES64L-G09RevE.01 30-Nov-2015

 ----------------------------------------------------------------------
 #rhf/gen scf(symm,tight,novaracc,noincfock,fulldiag) stable(crhf) gues
 s=read geom=nocrowd test
 ----------------------------------------------------------------------

 ----------------------------------------------------------------------
 hf stability analysis of h10 triangular lattice, y= 1.1662555983306084
 ----------------------------------------------------------------------
 Symbolic Z-matrix:
 Charge =  0 Multiplicity = 1

                         Standard orientation:
 ---------------------------------------------------------------------
 Center     Atomic      Atomic             Coordinates (Angstroms)
 Number     Number       Type             X           Y           Z
 ---------------------------------------------------------------------
      1          1           0        3.498767    0.990092   -0.000000
      2          1           0        2.332511    1.485138   -0.000000
      3          1           0        2.332511    0.495046   -0.000000
      4          1           0        1.166256    0.990092   -0.000000
      5          1           0        1.166256    0.000000   -0.000000
      6          1           0        0.000000    0.495046   -0.000000
      7          1           0       -0.000000   -0.495046   -0.000000
      8          1           0       -1.166256    0.000000   -0.000000
      9          1           0       -1.166256   -0.990092   -0.000000
     10          1           0       -2.332511   -0.495046   -0.000000
     11          1           0       -2.332511   -1.485138   -0.000000
     12          1           0       -3.498767   -0.990092   -0.000000
 ---------------------------------------------------------------------

 SCF Done:  E(RHF) =  -5.39569641168     A.U. after   10 cycles
 E2 =     0.5931049739D-02 EUMP2 =    -0.53897653619407D+01

 The electronic state is 1-AG.
 Alpha  occ. eigenvalues --   -0.83911  -0.76956  -0.63586  -0.47374  -0.28018
 Alpha  occ. eigenvalues --   -0.07209
 Alpha virt. eigenvalues --   -0.10193   0.03564   0.21553   0.24495   0.45275
 Alpha virt. eigenvalues --    0.60437

 Mulliken charges:
               1
     1  H   -0.057332
     2  H   -0.050634
     3  H    0.112937
     4  H    0.119038
     5  H   -0.113045
     6  H   -0.010964
     7  H   -0.010964
     8  H   -0.113045
     9  H    0.119038
    10  H    0.112937
    11  H   -0.050634
    12  H   -0.057332
 Sum of Mulliken charges =  -0.00000

 Dipole moment (field-independent basis, Debye):
    X=              0.0000    Y=             -0.0000    Z=             -0.0000  Tot=              0.0000
 Quadrupole moment (field-independent basis, Debye-Ang):
   XX=            -22.2222   YY=            -17.5226   ZZ=            -15.3940
   XY=             -0.5447   XZ=              0.0000   YZ=              0.0000

 Normal termination of Gaussian 09 at Tue Feb 14 17:43:57 2017.
