 Gaussian 09, Revision E.01,
 Gaussian 09:  ES64L-G09RevE.01 30-Nov-2015

 ----------------------------------------------------------------------
 #rhf/gen scf(symm,tight,novaracc,noincfock,fulldiag) stable(crhf) gues
 s=read geom=nocrowd test
 ----------------------------------------------------------------------

 hf stability analysis of h10 triangular lattice, y= 0.6006400760937612
 4
 ----------------------------------------------------------------------
 Symbolic Z-matrix:
 Charge =  0 Multiplicity = 1

                         Standard orientation:
 ---------------------------------------------------------------------
 Center     Atomic      Atomic             Coordinates (Angstroms)
 Number     Number       Type             X           Y           Z
 ---------------------------------------------------------------------
      1          1           0        1.922450    1.801920   -0.000000
      2          1           0        2.883675    1.201280   -0.000000
      3          1           0        0.961225    1.201280   -0.000000
      4          1           0        1.922450    0.600640   -0.000000
      5          1           0        0.000000    0.600640    0.000000
      6          1           0        0.961225    0.000000   -0.000000
      7          1           0       -0.961225    0.000000   -0.000000
      8          1           0       -0.000000   -0.600640   -0.000000
      9          1           0       -1.922450   -0.600640   -0.000000
     10          1           0       -0.961225   -1.201280   -0.000000
     11          1           0       -2.883675   -1.201280   -0.000000
     12          1           0       -1.922450   -1.801920   -0.000000
 ---------------------------------------------------------------------

 SCF Done:  E(RHF) =  -5.47903732219     A.U. after   10 cycles
 E2 =    -0.1084136922D+00 EUMP2 =    -0.55874510143450D+01

 The electronic state is 1-AG.
 Alpha  occ. eigenvalues --   -0.86148  -0.78889  -0.63079  -0.43773  -0.37879
 Alpha  occ. eigenvalues --   -0.09246
 Alpha virt. eigenvalues --   -0.12249   0.02151   0.31154   0.31913   0.60554
 Alpha virt. eigenvalues --    0.67645

 Mulliken charges:
               1
     1  H   -0.145880
     2  H    0.054886
     3  H    0.157898
     4  H    0.112410
     5  H   -0.112549
     6  H   -0.066765
     7  H   -0.066765
     8  H   -0.112549
     9  H    0.112410
    10  H    0.157898
    11  H    0.054886
    12  H   -0.145880
 Sum of Mulliken charges =   0.00000

 Dipole moment (field-independent basis, Debye):
    X=             -0.0000    Y=             -0.0000    Z=             -0.0000  Tot=              0.0000
 Quadrupole moment (field-independent basis, Debye-Ang):
   XX=            -14.1747   YY=            -20.1028   ZZ=            -15.3069
   XY=              0.5053   XZ=             -0.0000   YZ=             -0.0000

 Normal termination of Gaussian 09 at Tue Feb 14 17:42:34 2017.
