 Gaussian 09, Revision E.01,
 Gaussian 09:  ES64L-G09RevE.01 30-Nov-2015

 ----------------------------------------------------------------------
 #rhf/gen scf(symm,tight,novaracc,noincfock,fulldiag) stable(crhf) gues
 s=read geom=nocrowd test
 ----------------------------------------------------------------------

 hf stability analysis of h10 triangular lattice, y= 0.2247478695127229
 1
 ----------------------------------------------------------------------
 Symbolic Z-matrix:
 Charge =  0 Multiplicity = 1

                         Standard orientation:
 ---------------------------------------------------------------------
 Center     Atomic      Atomic             Coordinates (Angstroms)
 Number     Number       Type             X           Y           Z
 ---------------------------------------------------------------------
      1          1           0        5.137760    0.674244    0.000000
      2          1           0        7.706639    0.449496    0.000000
      3          1           0        2.568880    0.449496    0.000000
      4          1           0        5.137760    0.224748    0.000000
      5          1           0        0.000000    0.224748    0.000000
      6          1           0        2.568880    0.000000    0.000000
      7          1           0       -2.568880    0.000000    0.000000
      8          1           0       -0.000000   -0.224748   -0.000000
      9          1           0       -5.137760   -0.224748    0.000000
     10          1           0       -2.568880   -0.449496    0.000000
     11          1           0       -7.706639   -0.449496    0.000000
     12          1           0       -5.137760   -0.674244    0.000000
 ---------------------------------------------------------------------

 SCF Done:  E(RHF) =  -3.22962306860     A.U. after   13 cycles
 E2 =    -0.1296603015D+01 EUMP2 =    -0.45262260840391D+01

 The electronic state is 1-AG.
 Alpha  occ. eigenvalues --   -0.73956  -0.73907  -0.72430  -0.72388  -0.20186
 Alpha  occ. eigenvalues --    0.20894
 Alpha virt. eigenvalues --   -0.30933  -0.16759   0.62252   0.63230   0.70638
 Alpha virt. eigenvalues --    0.71557

 Mulliken charges:
               1
     1  H   -0.000363
     2  H    0.001225
     3  H   -0.016943
     4  H   -0.001235
     5  H    0.044258
     6  H   -0.026942
     7  H   -0.026942
     8  H    0.044258
     9  H   -0.001235
    10  H   -0.016943
    11  H    0.001225
    12  H   -0.000363
 Sum of Mulliken charges =  -0.00000

 Dipole moment (field-independent basis, Debye):
    X=              0.0000    Y=              0.0000    Z=             -0.0000  Tot=              0.0000
 Quadrupole moment (field-independent basis, Debye-Ang):
   XX=            -18.5545   YY=            -17.9845   ZZ=            -15.3428
   XY=             -0.1249   XZ=              0.0000   YZ=             -0.0000

 Normal termination of Gaussian 09 at Tue Feb 14 17:41:29 2017.
