 Gaussian 09, Revision E.01,
 Gaussian 09:  ES64L-G09RevE.01 30-Nov-2015

 ----------------------------------------------------------------------
 #rhf/gen scf(symm,tight,novaracc,noincfock,fulldiag) stable(crhf) gues
 s=read geom=nocrowd test
 ----------------------------------------------------------------------

 ----------------------------------------------------------------------
 hf stability analysis of h10 triangular lattice, y= 2.0268354180156947
 ----------------------------------------------------------------------
 Symbolic Z-matrix:
 Charge =  0 Multiplicity = 1

                         Standard orientation:
 ---------------------------------------------------------------------
 Center     Atomic      Atomic             Coordinates (Angstroms)
 Number     Number       Type             X           Y           Z
 ---------------------------------------------------------------------
      1          1           0        6.080506    0.569706    0.000000
      2          1           0        4.053671    0.854559    0.000000
      3          1           0        4.053671    0.284853    0.000000
      4          1           0        2.026835    0.569706    0.000000
      5          1           0        2.026835   -0.000000    0.000000
      6          1           0        0.000000    0.284853   -0.000000
      7          1           0       -0.000000   -0.284853   -0.000000
      8          1           0       -2.026835    0.000000    0.000000
      9          1           0       -2.026835   -0.569706    0.000000
     10          1           0       -4.053671   -0.284853    0.000000
     11          1           0       -4.053671   -0.854559    0.000000
     12          1           0       -6.080506   -0.569706    0.000000
 ---------------------------------------------------------------------

 SCF Done:  E(RHF) =  -4.29827958884     A.U. after   11 cycles
 E2 =    -0.6798270436D+00 EUMP2 =    -0.49781066324594D+01

 The electronic state is 1-AG.
 Alpha  occ. eigenvalues --   -0.73043  -0.72039  -0.67205  -0.65653  -0.19682
 Alpha  occ. eigenvalues --    0.06875
 Alpha virt. eigenvalues --   -0.30853  -0.15321   0.44597   0.49142   0.61109
 Alpha virt. eigenvalues --    0.64973

 Mulliken charges:
               1
     1  H   -0.002279
     2  H    0.001004
     3  H   -0.002401
     4  H   -0.021619
     5  H   -0.055013
     6  H    0.080307
     7  H    0.080307
     8  H   -0.055013
     9  H   -0.021619
    10  H   -0.002401
    11  H    0.001004
    12  H   -0.002279
 Sum of Mulliken charges =  -0.00000

 Dipole moment (field-independent basis, Debye):
    X=             -0.0000    Y=              0.0000    Z=             -0.0000  Tot=              0.0000
 Quadrupole moment (field-independent basis, Debye-Ang):
   XX=            -20.1024   YY=            -17.9595   ZZ=            -15.5457
   XY=              0.0434   XZ=             -0.0000   YZ=              0.0000

 Normal termination of Gaussian 09 at Tue Feb 14 17:44:31 2017.
