 Gaussian 09, Revision E.01,
 Gaussian 09:  ES64L-G09RevE.01 30-Nov-2015

 ----------------------------------------------------------------------
 #rhf/gen scf(symm,tight,novaracc,noincfock,fulldiag) stable(crhf) gues
 s=read geom=nocrowd test
 ----------------------------------------------------------------------

 hf stability analysis of h10 triangular lattice, y= 0.6716215332591580
 8
 ----------------------------------------------------------------------
 Symbolic Z-matrix:
 Charge =  0 Multiplicity = 1

                         Standard orientation:
 ---------------------------------------------------------------------
 Center     Atomic      Atomic             Coordinates (Angstroms)
 Number     Number       Type             X           Y           Z
 ---------------------------------------------------------------------
      1          1           0        1.719273    2.014865   -0.000000
      2          1           0        2.578909    1.343243   -0.000000
      3          1           0        0.859636    1.343243   -0.000000
      4          1           0        1.719273    0.671622   -0.000000
      5          1           0        0.000000    0.671622   -0.000000
      6          1           0        0.859636    0.000000   -0.000000
      7          1           0       -0.859636    0.000000   -0.000000
      8          1           0       -0.000000   -0.671622    0.000000
      9          1           0       -1.719273   -0.671622   -0.000000
     10          1           0       -0.859636   -1.343243    0.000000
     11          1           0       -2.578909   -1.343243   -0.000000
     12          1           0       -1.719273   -2.014865   -0.000000
 ---------------------------------------------------------------------

 SCF Done:  E(RHF) =  -5.51672472771     A.U. after    9 cycles
 E2 =    -0.1023348507D+00 EUMP2 =    -0.56190595783710D+01

 The electronic state is 1-AG.
 Alpha  occ. eigenvalues --   -0.87719  -0.79908  -0.63374  -0.42888  -0.41221
 Alpha  occ. eigenvalues --   -0.12306
 Alpha virt. eigenvalues --   -0.15252   0.04115   0.30166   0.38868   0.60196
 Alpha virt. eigenvalues --    0.85943

 Mulliken charges:
               1
     1  H   -0.104340
     2  H    0.006172
     3  H    0.160503
     4  H    0.120693
     5  H   -0.108306
     6  H   -0.074723
     7  H   -0.074723
     8  H   -0.108306
     9  H    0.120693
    10  H    0.160503
    11  H    0.006172
    12  H   -0.104340
 Sum of Mulliken charges =  -0.00000

 Dipole moment (field-independent basis, Debye):
    X=              0.0000    Y=              0.0000    Z=             -0.0000  Tot=              0.0000
 Quadrupole moment (field-independent basis, Debye-Ang):
   XX=            -16.9644   YY=            -19.6096   ZZ=            -15.2467
   XY=              0.0425   XZ=              0.0000   YZ=              0.0000

 Normal termination of Gaussian 09 at Tue Feb 14 17:42:48 2017.
