 Gaussian 09, Revision E.01,
 Gaussian 09:  ES64L-G09RevE.01 30-Nov-2015

 ----------------------------------------------------------------------
 #rhf/gen scf(symm,tight,novaracc,noincfock,fulldiag) stable(crhf) gues
 s=read geom=nocrowd test
 ----------------------------------------------------------------------

 hf stability analysis of h10 triangular lattice, y= 0.4201353311163031
 9
 ----------------------------------------------------------------------
 Symbolic Z-matrix:
 Charge =  0 Multiplicity = 1

                         Standard orientation:
 ---------------------------------------------------------------------
 Center     Atomic      Atomic             Coordinates (Angstroms)
 Number     Number       Type             X           Y           Z
 ---------------------------------------------------------------------
      1          1           0        2.748401    1.260406   -0.000000
      2          1           0        4.122602    0.840271   -0.000000
      3          1           0        1.374201    0.840271   -0.000000
      4          1           0        2.748401    0.420135   -0.000000
      5          1           0        0.000000    0.420135    0.000000
      6          1           0        1.374201    0.000000   -0.000000
      7          1           0       -1.374201    0.000000   -0.000000
      8          1           0       -0.000000   -0.420135   -0.000000
      9          1           0       -2.748401   -0.420135   -0.000000
     10          1           0       -1.374201   -0.840271   -0.000000
     11          1           0       -4.122602   -0.840271   -0.000000
     12          1           0       -2.748401   -1.260406   -0.000000
 ---------------------------------------------------------------------

 SCF Done:  E(RHF) =  -5.31612477884     A.U. after   10 cycles
 E2 =    -0.3058072403D+00 EUMP2 =    -0.56219320191051D+01

 The electronic state is 1-AG.
 Alpha  occ. eigenvalues --   -0.80843  -0.74793  -0.64579  -0.51471  -0.17779
 Alpha  occ. eigenvalues --   -0.12892
 Alpha virt. eigenvalues --   -0.14971   0.00109   0.14640   0.29718   0.47118
 Alpha virt. eigenvalues --    0.61636

 Mulliken charges:
               1
     1  H    0.020966
     2  H   -0.060369
     3  H    0.060253
     4  H    0.031939
     5  H    0.027590
     6  H   -0.080379
     7  H   -0.080379
     8  H    0.027590
     9  H    0.031939
    10  H    0.060253
    11  H   -0.060369
    12  H    0.020966
 Sum of Mulliken charges =   0.00000

 Dipole moment (field-independent basis, Debye):
    X=              0.0000    Y=              0.0000    Z=              0.0000  Tot=              0.0000
 Quadrupole moment (field-independent basis, Debye-Ang):
   XX=            -24.5142   YY=            -16.8027   ZZ=            -15.5706
   XY=              0.2739   XZ=             -0.0000   YZ=             -0.0000

 Normal termination of Gaussian 09 at Tue Feb 14 17:41:59 2017.
