 Gaussian 09, Revision E.01,
 Gaussian 09:  ES64L-G09RevE.01 30-Nov-2015

 ----------------------------------------------------------------------
 #rhf/gen scf(symm,tight,novaracc,noincfock,fulldiag) stable(crhf) gues
 s=read geom=nocrowd test
 ----------------------------------------------------------------------

 hf stability analysis of h10 triangular lattice, y= 0.7868496627299574
 9
 ----------------------------------------------------------------------
 Symbolic Z-matrix:
 Charge =  0 Multiplicity = 1

                         Standard orientation:
 ---------------------------------------------------------------------
 Center     Atomic      Atomic             Coordinates (Angstroms)
 Number     Number       Type             X           Y           Z
 ---------------------------------------------------------------------
      1          1           0        2.360549    1.467498   -0.000000
      2          1           0        1.573699    2.201247   -0.000000
      3          1           0        1.573699    0.733749   -0.000000
      4          1           0        0.786850    1.467498   -0.000000
      5          1           0        0.786850    0.000000   -0.000000
      6          1           0        0.000000    0.733749    0.000000
      7          1           0       -0.000000   -0.733749    0.000000
      8          1           0       -0.786850    0.000000    0.000000
      9          1           0       -0.786850   -1.467498    0.000000
     10          1           0       -1.573699   -0.733749    0.000000
     11          1           0       -1.573699   -2.201247    0.000000
     12          1           0       -2.360549   -1.467498    0.000000
 ---------------------------------------------------------------------

 SCF Done:  E(RHF) =  -5.52680000309     A.U. after    9 cycles
 E2 =    -0.9993556985D-01 EUMP2 =    -0.56267355729458D+01

 The electronic state is 1-AG.
 Alpha  occ. eigenvalues --   -0.88335  -0.80325  -0.63467  -0.43711  -0.41211
 Alpha  occ. eigenvalues --   -0.13563
 Alpha virt. eigenvalues --   -0.16468   0.04931   0.29690   0.41713   0.60208
 Alpha virt. eigenvalues --    0.94678

 Mulliken charges:
               1
     1  H   -0.037303
     2  H   -0.068784
     3  H    0.139628
     4  H    0.152652
     5  H   -0.087846
     6  H   -0.098347
     7  H   -0.098347
     8  H   -0.087846
     9  H    0.152652
    10  H    0.139628
    11  H   -0.068784
    12  H   -0.037303
 Sum of Mulliken charges =   0.00000

 Dipole moment (field-independent basis, Debye):
    X=             -0.0000    Y=             -0.0000    Z=              0.0000  Tot=              0.0000
 Quadrupole moment (field-independent basis, Debye-Ang):
   XX=            -18.4296   YY=            -19.0986   ZZ=            -15.2230
   XY=             -0.2538   XZ=              0.0000   YZ=              0.0000

 Normal termination of Gaussian 09 at Tue Feb 14 17:43:09 2017.
