 Gaussian 09, Revision E.01,
 Gaussian 09:  ES64L-G09RevE.01 30-Nov-2015

 ----------------------------------------------------------------------
 #rhf/gen scf(symm,tight,novaracc,noincfock,fulldiag) stable(crhf) gues
 s=read geom=nocrowd test
 ----------------------------------------------------------------------

 ----------------------------------------------------------------------
 hf stability analysis of h10 triangular lattice, y= 1.0644781770328475
 ----------------------------------------------------------------------
 Symbolic Z-matrix:
 Charge =  0 Multiplicity = 1

                         Standard orientation:
 ---------------------------------------------------------------------
 Center     Atomic      Atomic             Coordinates (Angstroms)
 Number     Number       Type             X           Y           Z
 ---------------------------------------------------------------------
      1          1           0        3.193434    1.084757    0.000000
      2          1           0        2.128956    1.627136    0.000000
      3          1           0        2.128956    0.542379    0.000000
      4          1           0        1.064478    1.084757    0.000000
      5          1           0        1.064478    0.000000    0.000000
      6          1           0        0.000000    0.542379    0.000000
      7          1           0       -0.000000   -0.542379   -0.000000
      8          1           0       -1.064478    0.000000    0.000000
      9          1           0       -1.064478   -1.084757    0.000000
     10          1           0       -2.128956   -0.542379    0.000000
     11          1           0       -2.128956   -1.627136    0.000000
     12          1           0       -3.193434   -1.084757    0.000000
 ---------------------------------------------------------------------

 SCF Done:  E(RHF) =  -5.42203103119     A.U. after   10 cycles
 E2 =    -0.1010271257D+00 EUMP2 =    -0.55230581569115D+01

 The electronic state is 1-AG.
 Alpha  occ. eigenvalues --   -0.84663  -0.77909  -0.62908  -0.45491  -0.32796
 Alpha  occ. eigenvalues --   -0.06574
 Alpha virt. eigenvalues --   -0.09686   0.01080   0.25535   0.30087   0.51618
 Alpha virt. eigenvalues --    0.60733

 Mulliken charges:
               1
     1  H    0.036300
     2  H   -0.151099
     3  H    0.137283
     4  H    0.150099
     5  H   -0.085389
     6  H   -0.087193
     7  H   -0.087193
     8  H   -0.085389
     9  H    0.150099
    10  H    0.137283
    11  H   -0.151099
    12  H    0.036300
 Sum of Mulliken charges =  -0.00000

 Dipole moment (field-independent basis, Debye):
    X=             -0.0000    Y=              0.0000    Z=              0.0000  Tot=              0.0000
 Quadrupole moment (field-independent basis, Debye-Ang):
   XX=            -14.5940   YY=            -19.7352   ZZ=            -15.3597
   XY=              0.0810   XZ=              0.0000   YZ=             -0.0000

 Normal termination of Gaussian 09 at Tue Feb 14 17:43:47 2017.
