 Gaussian 09, Revision E.01,
 Gaussian 09:  ES64L-G09RevE.01 30-Nov-2015

 ----------------------------------------------------------------------
 #rhf/gen scf(symm,tight,novaracc,noincfock,fulldiag) stable(crhf) gues
 s=read geom=nocrowd test
 ----------------------------------------------------------------------

 ----------------------------------------------------------------------
 hf stability analysis of h10 triangular lattice, y= 1.0205721581109972
 ----------------------------------------------------------------------
 Symbolic Z-matrix:
 Charge =  0 Multiplicity = 1

                         Standard orientation:
 ---------------------------------------------------------------------
 Center     Atomic      Atomic             Coordinates (Angstroms)
 Number     Number       Type             X           Y           Z
 ---------------------------------------------------------------------
      1          1           0        3.061716    1.131425    0.000000
      2          1           0        2.041144    1.697137    0.000000
      3          1           0        2.041144    0.565712    0.000000
      4          1           0        1.020572    1.131425    0.000000
      5          1           0        1.020572    0.000000    0.000000
      6          1           0       -0.000000    0.565712   -0.000000
      7          1           0       -0.000000   -0.565712   -0.000000
      8          1           0       -1.020572    0.000000    0.000000
      9          1           0       -1.020572   -1.131425    0.000000
     10          1           0       -2.041144   -0.565712    0.000000
     11          1           0       -2.041144   -1.697137    0.000000
     12          1           0       -3.061716   -1.131425    0.000000
 ---------------------------------------------------------------------

 SCF Done:  E(RHF) =  -5.44575878128     A.U. after   10 cycles
 E2 =    -0.1116802139D+00 EUMP2 =    -0.55574389951675D+01

 The electronic state is 1-AG.
 Alpha  occ. eigenvalues --   -0.85186  -0.78287  -0.62904  -0.44727  -0.35009
 Alpha  occ. eigenvalues --   -0.07445
 Alpha virt. eigenvalues --   -0.10503   0.01202   0.27788   0.31163   0.57661
 Alpha virt. eigenvalues --    0.60779

 Mulliken charges:
               1
     1  H    0.059963
     2  H   -0.161104
     3  H    0.125019
     4  H    0.154382
     5  H   -0.072507
     6  H   -0.105751
     7  H   -0.105751
     8  H   -0.072507
     9  H    0.154382
    10  H    0.125019
    11  H   -0.161104
    12  H    0.059963
 Sum of Mulliken charges =  -0.00000

 Dipole moment (field-independent basis, Debye):
    X=              0.0000    Y=              0.0000    Z=              0.0000  Tot=              0.0000
 Quadrupole moment (field-independent basis, Debye-Ang):
   XX=            -13.3348   YY=            -20.1691   ZZ=            -15.3427
   XY=              0.4295   XZ=             -0.0000   YZ=              0.0000

 Normal termination of Gaussian 09 at Tue Feb 14 17:43:42 2017.
