 Gaussian 09, Revision E.01,
 Gaussian 09:  ES64L-G09RevE.01 30-Nov-2015

 ----------------------------------------------------------------------
 #rhf/gen scf(symm,tight,novaracc,noincfock,fulldiag) stable(crhf) gues
 s=read geom=nocrowd test
 ----------------------------------------------------------------------

 hf stability analysis of h10 triangular lattice, y= 0.6358183901871248
 3
 ----------------------------------------------------------------------
 Symbolic Z-matrix:
 Charge =  0 Multiplicity = 1

                         Standard orientation:
 ---------------------------------------------------------------------
 Center     Atomic      Atomic             Coordinates (Angstroms)
 Number     Number       Type             X           Y           Z
 ---------------------------------------------------------------------
      1          1           0        1.816085    1.907455   -0.000000
      2          1           0        2.724128    1.271637   -0.000000
      3          1           0        0.908043    1.271637   -0.000000
      4          1           0        1.816085    0.635818   -0.000000
      5          1           0        0.000000    0.635818   -0.000000
      6          1           0        0.908043    0.000000    0.000000
      7          1           0       -0.908043    0.000000   -0.000000
      8          1           0       -0.000000   -0.635818    0.000000
      9          1           0       -1.816085   -0.635818   -0.000000
     10          1           0       -0.908043   -1.271637    0.000000
     11          1           0       -2.724128   -1.271637   -0.000000
     12          1           0       -1.816085   -1.907455    0.000000
 ---------------------------------------------------------------------

 SCF Done:  E(RHF) =  -5.50245882474     A.U. after    9 cycles
 E2 =    -0.1047936280D+00 EUMP2 =    -0.56072524527246D+01

 The electronic state is 1-AG.
 Alpha  occ. eigenvalues --   -0.87033  -0.79455  -0.63253  -0.43066  -0.40041
 Alpha  occ. eigenvalues --   -0.10950
 Alpha virt. eigenvalues --   -0.13925   0.03228   0.30658   0.35776   0.60314
 Alpha virt. eigenvalues --    0.77407

 Mulliken charges:
               1
     1  H   -0.125036
     2  H    0.032582
     3  H    0.160425
     4  H    0.112754
     5  H   -0.111806
     6  H   -0.068919
     7  H   -0.068919
     8  H   -0.111806
     9  H    0.112754
    10  H    0.160425
    11  H    0.032582
    12  H   -0.125036
 Sum of Mulliken charges =  -0.00000

 Dipole moment (field-independent basis, Debye):
    X=              0.0000    Y=              0.0000    Z=             -0.0000  Tot=              0.0000
 Quadrupole moment (field-independent basis, Debye-Ang):
   XX=            -15.6644   YY=            -19.8620   ZZ=            -15.2730
   XY=              0.3030   XZ=             -0.0000   YZ=              0.0000

 Normal termination of Gaussian 09 at Tue Feb 14 17:42:41 2017.
