 Gaussian 09, Revision E.01,
 Gaussian 09:  ES64L-G09RevE.01 30-Nov-2015

 ----------------------------------------------------------------------
 #rhf/gen scf(symm,tight,novaracc,noincfock,fulldiag) stable(crhf) gues
 s=read geom=nocrowd test
 ----------------------------------------------------------------------

 ----------------------------------------------------------------------
 hf stability analysis of h10 triangular lattice, y= 1.0000000336490449
 ----------------------------------------------------------------------
 Symbolic Z-matrix:
 Charge =  0 Multiplicity = 1

                         Standard orientation:
 ---------------------------------------------------------------------
 Center     Atomic      Atomic             Coordinates (Angstroms)
 Number     Number       Type             X           Y           Z
 ---------------------------------------------------------------------
      1          1           0        3.000000    1.154701   -0.000000
      2          1           0        2.000000    1.732051   -0.000000
      3          1           0        2.000000    0.577350   -0.000000
      4          1           0        1.000000    1.154701   -0.000000
      5          1           0        1.000000    0.000000   -0.000000
      6          1           0        0.000000    0.577350   -0.000000
      7          1           0       -0.000000   -0.577350   -0.000000
      8          1           0       -1.000000    0.000000   -0.000000
      9          1           0       -1.000000   -1.154701   -0.000000
     10          1           0       -2.000000   -0.577350   -0.000000
     11          1           0       -2.000000   -1.732051   -0.000000
     12          1           0       -3.000000   -1.154701   -0.000000
 ---------------------------------------------------------------------

 SCF Done:  E(RHF) =  -5.45772500031     A.U. after   10 cycles
 E2 =    -0.1112650516D+00 EUMP2 =    -0.55689900519445D+01

 The electronic state is 1-AG.
 Alpha  occ. eigenvalues --   -0.85500  -0.78484  -0.62953  -0.44385  -0.36036
 Alpha  occ. eigenvalues --   -0.08024
 Alpha virt. eigenvalues --   -0.11058   0.01465   0.29135   0.31280   0.60724
 Alpha virt. eigenvalues --    0.60943

 Mulliken charges:
               1
     1  H    0.061888
     2  H   -0.157876
     3  H    0.119209
     4  H    0.155638
     5  H   -0.069215
     6  H   -0.109644
     7  H   -0.109644
     8  H   -0.069215
     9  H    0.155638
    10  H    0.119209
    11  H   -0.157876
    12  H    0.061888
 Sum of Mulliken charges =   0.00000

 Dipole moment (field-independent basis, Debye):
    X=              0.0000    Y=             -0.0000    Z=             -0.0000  Tot=              0.0000
 Quadrupole moment (field-independent basis, Debye-Ang):
   XX=            -13.4149   YY=            -20.1970   ZZ=            -15.3313
   XY=              0.5061   XZ=              0.0000   YZ=             -0.0000

 Normal termination of Gaussian 09 at Tue Feb 14 17:43:40 2017.
