 Gaussian 09, Revision E.01,
 Gaussian 09:  ES64L-G09RevE.01 30-Nov-2015

 ----------------------------------------------------------------------
 #rhf/gen scf(symm,tight,novaracc,noincfock,fulldiag) stable(crhf) gues
 s=read geom=nocrowd test
 ----------------------------------------------------------------------

 ----------------------------------------------------------------------
 hf stability analysis of h10 triangular lattice, y= 2.5066432657105051
 ----------------------------------------------------------------------
 Symbolic Z-matrix:
 Charge =  0 Multiplicity = 1

                         Standard orientation:
 ---------------------------------------------------------------------
 Center     Atomic      Atomic             Coordinates (Angstroms)
 Number     Number       Type             X           Y           Z
 ---------------------------------------------------------------------
      1          1           0        7.519930    0.460656   -0.000000
      2          1           0        5.013287    0.690984   -0.000000
      3          1           0        5.013287    0.230328   -0.000000
      4          1           0        2.506643    0.460656   -0.000000
      5          1           0        2.506643    0.000000   -0.000000
      6          1           0        0.000000    0.230328   -0.000000
      7          1           0       -0.000000   -0.230328   -0.000000
      8          1           0       -2.506643    0.000000   -0.000000
      9          1           0       -2.506643   -0.460656   -0.000000
     10          1           0       -5.013287   -0.230328   -0.000000
     11          1           0       -5.013287   -0.690984   -0.000000
     12          1           0       -7.519930   -0.460656   -0.000000
 ---------------------------------------------------------------------

 SCF Done:  E(RHF) =  -3.35686320912     A.U. after    7 cycles
 E2 =    -0.1494459544D+01 EUMP2 =    -0.48513227532887D+01

 The electronic state is 1-AG.
 Alpha  occ. eigenvalues --   -0.73672  -0.73608  -0.71845  -0.71785  -0.20172
 Alpha  occ. eigenvalues --    0.19325
 Alpha virt. eigenvalues --   -0.31054  -0.16661   0.60625   0.61780   0.69707
 Alpha virt. eigenvalues --    0.70792

 Mulliken charges:
               1
     1  H    0.001281
     2  H   -0.000411
     3  H   -0.001378
     4  H   -0.019346
     5  H   -0.030759
     6  H    0.050613
     7  H    0.050613
     8  H   -0.030759
     9  H   -0.019346
    10  H   -0.001378
    11  H   -0.000411
    12  H    0.001281
 Sum of Mulliken charges =   0.00000

 Dipole moment (field-independent basis, Debye):
    X=              0.0000    Y=              0.0000    Z=              0.0000  Tot=              0.0000
 Quadrupole moment (field-independent basis, Debye-Ang):
   XX=            -18.8778   YY=            -17.9733   ZZ=            -15.3501
   XY=             -0.1406   XZ=              0.0000   YZ=              0.0000

 Normal termination of Gaussian 09 at Fri Feb 17 14:03:26 2017.
