 Gaussian 09, Revision E.01,
 Gaussian 09:  ES64L-G09RevE.01 30-Nov-2015

 ----------------------------------------------------------------------
 #rhf/gen scf(symm,tight,novaracc,noincfock,fulldiag) stable(crhf) gues
 s=read geom=nocrowd test
 ----------------------------------------------------------------------

 ----------------------------------------------------------------------
 hf stability analysis of h10 triangular lattice, y= 2.5627058557175149
 ----------------------------------------------------------------------
 Symbolic Z-matrix:
 Charge =  0 Multiplicity = 1

                         Standard orientation:
 ---------------------------------------------------------------------
 Center     Atomic      Atomic             Coordinates (Angstroms)
 Number     Number       Type             X           Y           Z
 ---------------------------------------------------------------------
      1          1           0        0.897696    6.352557   -0.000000
      2          1           0        0.897696    3.779967   -0.000000
      3          1           0        0.448848    3.819426   -0.000000
      4          1           0        0.448848    1.246836   -0.000000
      5          1           0        0.000000    1.286295    0.000000
      6          1           0       -0.000000   -1.286295    0.000000
      7          1           0       -0.448848   -1.246836   -0.000000
      8          1           0       -0.448848   -3.819426   -0.000000
      9          1           0       -0.897696   -3.779967   -0.000000
     10          1           0       -0.897696   -6.352557   -0.000000
 ---------------------------------------------------------------------

 SCF Done:  E(RHF) =  -4.24910101651     A.U. after    5 cycles
 E2 =    -0.1069304691D+01 EUMP2 =    -0.53184057074484D+01

 The electronic state is 1-AG.
 Alpha  occ. eigenvalues --   -0.74271  -0.73539  -0.72570  -0.71740  -0.20539
 Alpha virt. eigenvalues --   -0.16416   0.60153   0.63995   0.69178   0.73759

 Mulliken charges:
               1
     1  H    0.001218
     2  H   -0.000217
     3  H   -0.001001
     4  H   -0.000052
     5  H    0.000052
     6  H    0.000052
     7  H   -0.000052
     8  H   -0.001001
     9  H   -0.000217
    10  H    0.001218
 Sum of Mulliken charges =   0.00000

 Dipole moment (field-independent basis, Debye):
    X=             -0.0000    Y=             -0.0000    Z=             -0.0000  Tot=              0.0000
 Quadrupole moment (field-independent basis, Debye-Ang):
   XX=            -12.8197   YY=            -14.5147   ZZ=            -13.5262
   XY=             -0.2096   XZ=              0.0000   YZ=             -0.0000

 Normal termination of Gaussian 09 at Tue Feb 21 13:18:57 2017.
