 Gaussian 09, Revision E.01,
 Gaussian 09:  ES64L-G09RevE.01 30-Nov-2015

 ----------------------------------------------------------------------
 #rhf/gen scf(symm,tight,novaracc,noincfock,fulldiag) stable(crhf) gues
 s=read geom=nocrowd test
 ----------------------------------------------------------------------

 hf stability analysis of h12 triangular lattice, y= 0.7466864790071482
 4
 ----------------------------------------------------------------------
 Symbolic Z-matrix:
 Charge =  0 Multiplicity = 1

                         Standard orientation:
 ---------------------------------------------------------------------
 Center     Atomic      Atomic             Coordinates (Angstroms)
 Number     Number       Type             X           Y           Z
 ---------------------------------------------------------------------
      1          1           0        1.074243    1.574833   -0.000000
      2          1           0       -0.000000    1.612346   -0.000000
      3          1           0        1.074243    0.499935   -0.000000
      4          1           0       -0.000000    0.537449   -0.000000
      5          1           0       -1.074243    1.649859   -0.000000
      6          1           0       -1.074243    0.574962   -0.000000
      7          1           0       -1.074243   -0.499935    0.000000
      8          1           0       -0.000000   -0.537449    0.000000
      9          1           0        1.074243   -0.574962    0.000000
     10          1           0        1.074243   -1.649859    0.000000
     11          1           0       -0.000000   -1.612346    0.000000
     12          1           0       -1.074243   -1.574833    0.000000
 ---------------------------------------------------------------------

 SCF Done:  E(RHF) =  -5.02376927510     A.U. after   12 cycles
 E2 =    -0.1448837363D+00 EUMP2 =    -0.51686530114236D+01

 The electronic state is 1-AG.
 Alpha  occ. eigenvalues --   -0.90368  -0.72302  -0.60785  -0.49427  -0.15151
 Alpha  occ. eigenvalues --   -0.13140
 Alpha virt. eigenvalues --   -0.22142   0.06440   0.28577   0.46205   0.58603
 Alpha virt. eigenvalues --    1.00746

 Mulliken charges:
               1
     1  H    0.042526
     2  H   -0.012189
     3  H    0.012525
     4  H   -0.094385
     5  H   -0.038883
     6  H    0.090406
     7  H    0.012525
     8  H   -0.094385
     9  H    0.090406
    10  H   -0.038883
    11  H   -0.012189
    12  H    0.042526
 Sum of Mulliken charges =   0.00000

 Dipole moment (field-independent basis, Debye):
    X=             -0.0000    Y=             -0.0000    Z=             -0.0000  Tot=              0.0000
 Quadrupole moment (field-independent basis, Debye-Ang):
   XX=            -12.2791   YY=            -24.3072   ZZ=            -14.4237
   XY=              0.8971   XZ=             -0.0000   YZ=              0.0000

 Normal termination of Gaussian 09 at Fri Feb 17 12:06:10 2017.
