 Gaussian 09, Revision E.01,
 Gaussian 09:  ES64L-G09RevE.01 30-Nov-2015

 ----------------------------------------------------------------------
 #rhf/gen scf(symm,tight,novaracc,noincfock,fulldiag) stable(crhf) gues
 s=read geom=nocrowd test
 ----------------------------------------------------------------------

 hf stability analysis of h12 triangular lattice, y= 0.4458672966047664
 3
 ----------------------------------------------------------------------
 Symbolic Z-matrix:
 Charge =  0 Multiplicity = 1

                         Standard orientation:
 ---------------------------------------------------------------------
 Center     Atomic      Atomic             Coordinates (Angstroms)
 Number     Number       Type             X           Y           Z
 ---------------------------------------------------------------------
      1          1           0        0.843152    0.975073    0.000000
      2          1           0        0.000000    2.054258    0.000000
      3          1           0        0.843152   -0.394432    0.000000
      4          1           0        0.000000    0.684753    0.000000
      5          1           0       -0.843152    3.133443    0.000000
      6          1           0       -0.843152    1.763937    0.000000
      7          1           0       -0.843152    0.394432    0.000000
      8          1           0       -0.000000   -0.684753    0.000000
      9          1           0        0.843152   -1.763937   -0.000000
     10          1           0        0.843152   -3.133443   -0.000000
     11          1           0       -0.000000   -2.054258    0.000000
     12          1           0       -0.843152   -0.975073    0.000000
 ---------------------------------------------------------------------

 SCF Done:  E(RHF) =  -5.58228622870     A.U. after    9 cycles
 E2 =    -0.6554203294D+00 EUMP2 =    -0.62377065581142D+01

 The electronic state is 1-AG.
 Alpha  occ. eigenvalues --   -0.90463  -0.75502  -0.59397  -0.50557  -0.42394
 Alpha  occ. eigenvalues --   -0.05811
 Alpha virt. eigenvalues --   -0.03953  -0.00127   0.35003   0.37461   0.52097
 Alpha virt. eigenvalues --    0.69131

 Mulliken charges:
               1
     1  H    0.178014
     2  H   -0.012478
     3  H    0.021504
     4  H   -0.145611
     5  H   -0.133128
     6  H    0.091700
     7  H    0.021504
     8  H   -0.145611
     9  H    0.091700
    10  H   -0.133128
    11  H   -0.012478
    12  H    0.178014
 Sum of Mulliken charges =  -0.00000

 Dipole moment (field-independent basis, Debye):
    X=             -0.0000    Y=              0.0000    Z=              0.0000  Tot=              0.0000
 Quadrupole moment (field-independent basis, Debye-Ang):
   XX=            -14.8252   YY=            -30.2854   ZZ=            -14.9809
   XY=              5.7623   XZ=              0.0000   YZ=             -0.0000

 Normal termination of Gaussian 09 at Fri Feb 17 12:05:10 2017.
