 Gaussian 09, Revision E.01,
 Gaussian 09:  ES64L-G09RevE.01 30-Nov-2015

 ----------------------------------------------------------------------
 #rhf/gen scf(symm,tight,novaracc,noincfock,fulldiag) stable(crhf) gues
 s=read geom=nocrowd test
 ----------------------------------------------------------------------

 hf stability analysis of h12 triangular lattice, y= 0.2662511995880488
 8
 ----------------------------------------------------------------------
 Symbolic Z-matrix:
 Charge =  0 Multiplicity = 1

                         Standard orientation:
 ---------------------------------------------------------------------
 Center     Atomic      Atomic             Coordinates (Angstroms)
 Number     Number       Type             X           Y           Z
 ---------------------------------------------------------------------
      1          1           0        0.528533    1.157259    0.000000
      2          1           0        0.000000    3.277090    0.000000
      3          1           0        0.528533   -1.027468    0.000000
      4          1           0        0.000000    1.092363    0.000000
      5          1           0       -0.528533    5.396921    0.000000
      6          1           0       -0.528533    3.212194    0.000000
      7          1           0       -0.528533    1.027468    0.000000
      8          1           0       -0.000000   -1.092363    0.000000
      9          1           0        0.528533   -3.212194    0.000000
     10          1           0        0.528533   -5.396921    0.000000
     11          1           0       -0.000000   -3.277090    0.000000
     12          1           0       -0.528533   -1.157259    0.000000
 ---------------------------------------------------------------------

 SCF Done:  E(RHF) =  -4.94478523844     A.U. after    7 cycles
 E2 =    -0.9524576874D+00 EUMP2 =    -0.58972429258093D+01

 The electronic state is 1-AG.
 Alpha  occ. eigenvalues --   -0.91547  -0.88287  -0.70633  -0.70547  -0.24110
 Alpha  occ. eigenvalues --   -0.20417
 Alpha virt. eigenvalues --   -0.15538   0.05278   0.58122   0.58535   1.26140
 Alpha virt. eigenvalues --    1.40125

 Mulliken charges:
               1
     1  H    0.254087
     2  H   -0.004535
     3  H    0.250719
     4  H   -0.499485
     5  H    0.000452
     6  H   -0.001237
     7  H    0.250719
     8  H   -0.499485
     9  H   -0.001237
    10  H    0.000452
    11  H   -0.004535
    12  H    0.254087
 Sum of Mulliken charges =  -0.00000

 Dipole moment (field-independent basis, Debye):
    X=             -0.0000    Y=              0.0000    Z=              0.0000  Tot=              0.0000
 Quadrupole moment (field-independent basis, Debye-Ang):
   XX=            -16.5569   YY=            -17.5650   ZZ=            -15.5191
   XY=              0.3737   XZ=             -0.0000   YZ=              0.0000

 Normal termination of Gaussian 09 at Fri Feb 17 12:04:38 2017.
