 Gaussian 09, Revision E.01,
 Gaussian 09:  ES64L-G09RevE.01 30-Nov-2015

 ----------------------------------------------------------------------
 #rhf/gen scf(symm,tight,novaracc,noincfock,fulldiag) stable(crhf) gues
 s=read geom=nocrowd test
 ----------------------------------------------------------------------

 ----------------------------------------------------------------------
 hf stability analysis of h12 triangular lattice, y= 1.4189643903365978
 ----------------------------------------------------------------------
 Symbolic Z-matrix:
 Charge =  0 Multiplicity = 1

                         Standard orientation:
 ---------------------------------------------------------------------
 Center     Atomic      Atomic             Coordinates (Angstroms)
 Number     Number       Type             X           Y           Z
 ---------------------------------------------------------------------
      1          1           0        0.782239    3.466066   -0.000000
      2          1           0        0.000000    2.214222   -0.000000
      3          1           0        0.782239    1.989918   -0.000000
      4          1           0        0.000000    0.738074   -0.000000
      5          1           0       -0.782239    0.962377   -0.000000
      6          1           0       -0.782239   -0.513770    0.000000
      7          1           0       -0.782239   -1.989918   -0.000000
      8          1           0       -0.000000   -0.738074   -0.000000
      9          1           0        0.782239    0.513770   -0.000000
     10          1           0        0.782239   -0.962377   -0.000000
     11          1           0       -0.000000   -2.214222   -0.000000
     12          1           0       -0.782239   -3.466066   -0.000000
 ---------------------------------------------------------------------

 SCF Done:  E(RHF) =  -5.70870827148     A.U. after    8 cycles
 E2 =    -0.6113615304D+00 EUMP2 =    -0.63200698018955D+01

 The electronic state is 1-AG.
 Alpha  occ. eigenvalues --   -0.89406  -0.75959  -0.61641  -0.51996  -0.42923
 Alpha  occ. eigenvalues --   -0.11838
 Alpha virt. eigenvalues --   -0.05579  -0.00519   0.38648   0.43973   0.57613
 Alpha virt. eigenvalues --    0.80723

 Mulliken charges:
               1
     1  H   -0.084005
     2  H   -0.005221
     3  H    0.052350
     4  H   -0.173778
     5  H    0.159554
     6  H    0.051100
     7  H    0.052350
     8  H   -0.173778
     9  H    0.051100
    10  H    0.159554
    11  H   -0.005221
    12  H   -0.084005
 Sum of Mulliken charges =   0.00000

 Dipole moment (field-independent basis, Debye):
    X=              0.0000    Y=             -0.0000    Z=              0.0000  Tot=              0.0000
 Quadrupole moment (field-independent basis, Debye-Ang):
   XX=            -15.1186   YY=            -27.8326   ZZ=            -15.1350
   XY=             -4.1174   XZ=              0.0000   YZ=              0.0000

 Normal termination of Gaussian 09 at Fri Feb 17 12:07:26 2017.
