 Gaussian 09, Revision E.01,
 Gaussian 09:  ES64L-G09RevE.01 30-Nov-2015

 ----------------------------------------------------------------------
 #rhf/gen scf(symm,tight,novaracc,noincfock,fulldiag) stable(crhf) gues
 s=read geom=nocrowd test
 ----------------------------------------------------------------------

 hf stability analysis of h12 triangular lattice, y= 0.8007574317254395
 6
 ----------------------------------------------------------------------
 Symbolic Z-matrix:
 Charge =  0 Multiplicity = 1

                         Standard orientation:
 ---------------------------------------------------------------------
 Center     Atomic      Atomic             Coordinates (Angstroms)
 Number     Number       Type             X           Y           Z
 ---------------------------------------------------------------------
      1          1           0        1.071623    1.728920   -0.000000
      2          1           0        0.000000    1.616288   -0.000000
      3          1           0        1.071623    0.651395   -0.000000
      4          1           0        0.000000    0.538763   -0.000000
      5          1           0       -1.071623    1.503656    0.000000
      6          1           0       -1.071623    0.426131    0.000000
      7          1           0       -1.071623   -0.651395   -0.000000
      8          1           0       -0.000000   -0.538763   -0.000000
      9          1           0        1.071623   -0.426131   -0.000000
     10          1           0        1.071623   -1.503656   -0.000000
     11          1           0       -0.000000   -1.616288   -0.000000
     12          1           0       -1.071623   -1.728920   -0.000000
 ---------------------------------------------------------------------

 SCF Done:  E(RHF) =  -5.02852995486     A.U. after   12 cycles
 E2 =    -0.1521360791D+00 EUMP2 =    -0.51806660339127D+01

 The electronic state is 1-AG.
 Alpha  occ. eigenvalues --   -0.90393  -0.72506  -0.60639  -0.49530  -0.16551
 Alpha  occ. eigenvalues --   -0.11450
 Alpha virt. eigenvalues --   -0.22042   0.06678   0.28544   0.44872   0.59079
 Alpha virt. eigenvalues --    0.98653

 Mulliken charges:
               1
     1  H   -0.113493
     2  H   -0.009046
     3  H    0.158396
     4  H   -0.094349
     5  H    0.125468
     6  H   -0.066977
     7  H    0.158396
     8  H   -0.094349
     9  H   -0.066977
    10  H    0.125468
    11  H   -0.009046
    12  H   -0.113493
 Sum of Mulliken charges =   0.00000

 Dipole moment (field-independent basis, Debye):
    X=              0.0000    Y=             -0.0000    Z=              0.0000  Tot=              0.0000
 Quadrupole moment (field-independent basis, Debye-Ang):
   XX=            -12.4381   YY=            -24.4205   ZZ=            -14.4396
   XY=             -2.6758   XZ=             -0.0000   YZ=             -0.0000

 Normal termination of Gaussian 09 at Fri Feb 17 12:06:21 2017.
