 Gaussian 09, Revision E.01,
 Gaussian 09:  ES64L-G09RevE.01 30-Nov-2015

 ----------------------------------------------------------------------
 #rhf/gen scf(symm,tight,novaracc,noincfock,fulldiag) stable(crhf) gues
 s=read geom=nocrowd test
 ----------------------------------------------------------------------

 ----------------------------------------------------------------------
 hf stability analysis of h12 triangular lattice, y= 1.0879998015825072
 ----------------------------------------------------------------------
 Symbolic Z-matrix:
 Charge =  0 Multiplicity = 1

                         Standard orientation:
 ---------------------------------------------------------------------
 Center     Atomic      Atomic             Coordinates (Angstroms)
 Number     Number       Type             X           Y           Z
 ---------------------------------------------------------------------
      1          1           0        0.953895    2.561031   -0.000000
      2          1           0       -0.000000    1.815766   -0.000000
      3          1           0        0.953895    1.350520   -0.000000
      4          1           0       -0.000000    0.605255   -0.000000
      5          1           0       -0.953895    1.070501   -0.000000
      6          1           0       -0.953895   -0.140009   -0.000000
      7          1           0       -0.953895   -1.350520   -0.000000
      8          1           0       -0.000000   -0.605255   -0.000000
      9          1           0        0.953895    0.140009   -0.000000
     10          1           0        0.953895   -1.070501   -0.000000
     11          1           0       -0.000000   -1.815766   -0.000000
     12          1           0       -0.953895   -2.561031   -0.000000
 ---------------------------------------------------------------------

 SCF Done:  E(RHF) =  -5.22028315762     A.U. after   11 cycles
 E2 =    -0.2019623004D+00 EUMP2 =    -0.54222454580538D+01

 The electronic state is 1-AG.
 Alpha  occ. eigenvalues --   -0.92539  -0.72703  -0.57530  -0.53942  -0.30875
 Alpha  occ. eigenvalues --    0.05100
 Alpha virt. eigenvalues --   -0.11501   0.15411   0.22834   0.38750   0.49178
 Alpha virt. eigenvalues --    0.51950

 Mulliken charges:
               1
     1  H   -0.018426
     2  H   -0.243443
     3  H    0.030249
     4  H   -0.078536
     5  H    0.330436
     6  H   -0.020280
     7  H    0.030249
     8  H   -0.078536
     9  H   -0.020280
    10  H    0.330436
    11  H   -0.243443
    12  H   -0.018426
 Sum of Mulliken charges =   0.00000

 Dipole moment (field-independent basis, Debye):
    X=             -0.0000    Y=              0.0000    Z=              0.0000  Tot=              0.0000
 Quadrupole moment (field-independent basis, Debye-Ang):
   XX=            -14.4667   YY=            -24.8773   ZZ=            -14.8517
   XY=             -4.4341   XZ=              0.0000   YZ=              0.0000

 Normal termination of Gaussian 09 at Fri Feb 17 12:07:01 2017.
