 Gaussian 09, Revision E.01,
 Gaussian 09:  ES64L-G09RevE.01 30-Nov-2015

 ----------------------------------------------------------------------
 #rhf/gen scf(symm,tight,novaracc,noincfock,fulldiag) stable(crhf) gues
 s=read geom=nocrowd test
 ----------------------------------------------------------------------

 ----------------------------------------------------------------------
 hf stability analysis of h12 triangular lattice, y= 1.2263967642726714
 ----------------------------------------------------------------------
 Symbolic Z-matrix:
 Charge =  0 Multiplicity = 1

                         Standard orientation:
 ---------------------------------------------------------------------
 Center     Atomic      Atomic             Coordinates (Angstroms)
 Number     Number       Type             X           Y           Z
 ---------------------------------------------------------------------
      1          1           0        0.879003    2.946704    0.000000
      2          1           0        0.000000    1.970473   -0.000000
      3          1           0        0.879003    1.633056    0.000000
      4          1           0        0.000000    0.656824   -0.000000
      5          1           0       -0.879003    0.994242   -0.000000
      6          1           0       -0.879003   -0.319407   -0.000000
      7          1           0       -0.879003   -1.633056    0.000000
      8          1           0       -0.000000   -0.656824   -0.000000
      9          1           0        0.879003    0.319407   -0.000000
     10          1           0        0.879003   -0.994242   -0.000000
     11          1           0       -0.000000   -1.970473   -0.000000
     12          1           0       -0.879003   -2.946704    0.000000
 ---------------------------------------------------------------------

 SCF Done:  E(RHF) =  -5.45547273173     A.U. after   10 cycles
 E2 =     0.4566942719D-01 EUMP2 =    -0.54098033045381D+01

 The electronic state is 1-AG.
 Alpha  occ. eigenvalues --   -0.91256  -0.75241  -0.57960  -0.52626  -0.39291
 Alpha  occ. eigenvalues --   -0.00972
 Alpha virt. eigenvalues --   -0.05825   0.03351   0.31776   0.33116   0.51657
 Alpha virt. eigenvalues --    0.62341

 Mulliken charges:
               1
     1  H   -0.163698
     2  H   -0.032983
     3  H    0.126737
     4  H   -0.130850
     5  H    0.195394
     6  H    0.005401
     7  H    0.126737
     8  H   -0.130850
     9  H    0.005401
    10  H    0.195394
    11  H   -0.032983
    12  H   -0.163698
 Sum of Mulliken charges =   0.00000

 Dipole moment (field-independent basis, Debye):
    X=             -0.0000    Y=              0.0000    Z=             -0.0000  Tot=              0.0000
 Quadrupole moment (field-independent basis, Debye-Ang):
   XX=            -14.6758   YY=            -31.3772   ZZ=            -14.8815
   XY=             -6.7161   XZ=             -0.0000   YZ=              0.0000

 Normal termination of Gaussian 09 at Fri Feb 17 12:07:13 2017.
