 Gaussian 09, Revision E.01,
 Gaussian 09:  ES64L-G09RevE.01 30-Nov-2015

 ----------------------------------------------------------------------
 #rhf/gen scf(symm,tight,novaracc,noincfock,fulldiag) stable(crhf) gues
 s=read geom=nocrowd test
 ----------------------------------------------------------------------

 hf stability analysis of h12 triangular lattice, y= 0.5070038553873883
 5
 ----------------------------------------------------------------------
 Symbolic Z-matrix:
 Charge =  0 Multiplicity = 1

                         Standard orientation:
 ---------------------------------------------------------------------
 Center     Atomic      Atomic             Coordinates (Angstroms)
 Number     Number       Type             X           Y           Z
 ---------------------------------------------------------------------
      1          1           0        0.926342    1.035692    0.000000
      2          1           0        0.000000    1.869774    0.000000
      3          1           0        0.926342   -0.210824   -0.000000
      4          1           0        0.000000    0.623258    0.000000
      5          1           0       -0.926342    2.703857    0.000000
      6          1           0       -0.926342    1.457340    0.000000
      7          1           0       -0.926342    0.210824    0.000000
      8          1           0       -0.000000   -0.623258    0.000000
      9          1           0        0.926342   -1.457340   -0.000000
     10          1           0        0.926342   -2.703857   -0.000000
     11          1           0       -0.000000   -1.869774    0.000000
     12          1           0       -0.926342   -1.035692    0.000000
 ---------------------------------------------------------------------

 SCF Done:  E(RHF) =  -5.24833533174     A.U. after   15 cycles
 E2 =    -0.2716773410D+00 EUMP2 =    -0.55200126727430D+01

 The electronic state is 1-AG.
 Alpha  occ. eigenvalues --   -0.92441  -0.73116  -0.56382  -0.54935  -0.33955
 Alpha  occ. eigenvalues --    0.07157
 Alpha virt. eigenvalues --   -0.08448   0.11953   0.23997   0.32375   0.51212
 Alpha virt. eigenvalues --    0.53626

 Mulliken charges:
               1
     1  H    0.281371
     2  H   -0.297894
     3  H    0.015057
     4  H   -0.107373
     5  H   -0.057919
     6  H    0.166758
     7  H    0.015057
     8  H   -0.107373
     9  H    0.166758
    10  H   -0.057919
    11  H   -0.297894
    12  H    0.281371
 Sum of Mulliken charges =  -0.00000

 Dipole moment (field-independent basis, Debye):
    X=              0.0000    Y=             -0.0000    Z=              0.0000  Tot=              0.0000
 Quadrupole moment (field-independent basis, Debye-Ang):
   XX=            -13.9312   YY=            -28.0079   ZZ=            -14.8291
   XY=              4.2932   XZ=              0.0000   YZ=             -0.0000

 Normal termination of Gaussian 09 at Fri Feb 17 12:05:22 2017.
