 Gaussian 09, Revision E.01,
 Gaussian 09:  ES64L-G09RevE.01 30-Nov-2015

 ----------------------------------------------------------------------
 #rhf/gen scf(symm,tight,novaracc,noincfock,fulldiag) stable(crhf) gues
 s=read geom=nocrowd test
 ----------------------------------------------------------------------

 hf stability analysis of h12 triangular lattice, y= 0.8149635215757493
 6
 ----------------------------------------------------------------------
 Symbolic Z-matrix:
 Charge =  0 Multiplicity = 1

                         Standard orientation:
 ---------------------------------------------------------------------
 Center     Atomic      Atomic             Coordinates (Angstroms)
 Number     Number       Type             X           Y           Z
 ---------------------------------------------------------------------
      1          1           0        1.069328    1.770040   -0.000000
      2          1           0        0.000000    1.619756   -0.000000
      3          1           0        1.069328    0.690203    0.000000
      4          1           0        0.000000    0.539919   -0.000000
      5          1           0       -1.069328    1.469472   -0.000000
      6          1           0       -1.069328    0.389634   -0.000000
      7          1           0       -1.069328   -0.690203    0.000000
      8          1           0       -0.000000   -0.539919   -0.000000
      9          1           0        1.069328   -0.389634   -0.000000
     10          1           0        1.069328   -1.469472   -0.000000
     11          1           0       -0.000000   -1.619756   -0.000000
     12          1           0       -1.069328   -1.770040    0.000000
 ---------------------------------------------------------------------

 SCF Done:  E(RHF) =  -5.03282289498     A.U. after   12 cycles
 E2 =    -0.1576463812D+00 EUMP2 =    -0.51904692761994D+01

 The electronic state is 1-AG.
 Alpha  occ. eigenvalues --   -0.90424  -0.72677  -0.60526  -0.49629  -0.17242
 Alpha  occ. eigenvalues --   -0.10509
 Alpha virt. eigenvalues --   -0.21936   0.06877   0.28534   0.43829   0.59373
 Alpha virt. eigenvalues --    0.96863

 Mulliken charges:
               1
     1  H   -0.146165
     2  H   -0.006835
     3  H    0.185641
     4  H   -0.093816
     5  H    0.165631
     6  H   -0.104457
     7  H    0.185641
     8  H   -0.093816
     9  H   -0.104457
    10  H    0.165631
    11  H   -0.006835
    12  H   -0.146165
 Sum of Mulliken charges =  -0.00000

 Dipole moment (field-independent basis, Debye):
    X=             -0.0000    Y=              0.0000    Z=             -0.0000  Tot=              0.0000
 Quadrupole moment (field-independent basis, Debye-Ang):
   XX=            -12.5792   YY=            -24.5113   ZZ=            -14.4533
   XY=             -3.5400   XZ=              0.0000   YZ=              0.0000

 Normal termination of Gaussian 09 at Fri Feb 17 12:06:23 2017.
