 Gaussian 09, Revision E.01,
 Gaussian 09:  ES64L-G09RevE.01 30-Nov-2015

 ----------------------------------------------------------------------
 #rhf/gen scf(symm,tight,novaracc,noincfock,fulldiag) stable(crhf) gues
 s=read geom=nocrowd test
 ----------------------------------------------------------------------

 ----------------------------------------------------------------------
 hf stability analysis of h12 triangular lattice, y= 1.1954046164231349
 ----------------------------------------------------------------------
 Symbolic Z-matrix:
 Charge =  0 Multiplicity = 1

                         Standard orientation:
 ---------------------------------------------------------------------
 Center     Atomic      Atomic             Coordinates (Angstroms)
 Number     Number       Type             X           Y           Z
 ---------------------------------------------------------------------
      1          1           0        0.895613    2.861362   -0.000000
      2          1           0        0.000000    1.933928   -0.000000
      3          1           0        0.895613    1.572077   -0.000000
      4          1           0        0.000000    0.644643   -0.000000
      5          1           0       -0.895613    1.006494   -0.000000
      6          1           0       -0.895613   -0.282792   -0.000000
      7          1           0       -0.895613   -1.572077    0.000000
      8          1           0       -0.000000   -0.644643    0.000000
      9          1           0        0.895613    0.282792    0.000000
     10          1           0        0.895613   -1.006494    0.000000
     11          1           0       -0.000000   -1.933928    0.000000
     12          1           0       -0.895613   -2.861362    0.000000
 ---------------------------------------------------------------------

 SCF Done:  E(RHF) =  -5.38390800286     A.U. after   11 cycles
 E2 =    -0.5880157407D+00 EUMP2 =    -0.59719237435422D+01

 The electronic state is 1-AG.
 Alpha  occ. eigenvalues --   -0.91694  -0.75039  -0.57217  -0.53836  -0.37662
 Alpha  occ. eigenvalues --    0.01634
 Alpha virt. eigenvalues --   -0.06779   0.05276   0.28992   0.32381   0.51737
 Alpha virt. eigenvalues --    0.59189

 Mulliken charges:
               1
     1  H   -0.173418
     2  H   -0.058414
     3  H    0.148977
     4  H   -0.123981
     5  H    0.206872
     6  H   -0.000035
     7  H    0.148977
     8  H   -0.123981
     9  H   -0.000035
    10  H    0.206872
    11  H   -0.058414
    12  H   -0.173418
 Sum of Mulliken charges =  -0.00000

 Dipole moment (field-independent basis, Debye):
    X=             -0.0000    Y=              0.0000    Z=              0.0000  Tot=              0.0000
 Quadrupole moment (field-independent basis, Debye-Ang):
   XX=            -14.5884   YY=            -31.6754   ZZ=            -14.8357
   XY=             -7.0086   XZ=              0.0000   YZ=              0.0000

 Normal termination of Gaussian 09 at Fri Feb 17 12:07:11 2017.
