 Gaussian 09, Revision E.01,
 Gaussian 09:  ES64L-G09RevE.01 30-Nov-2015

 ----------------------------------------------------------------------
 #rhf/gen scf(symm,tight,novaracc,noincfock,fulldiag) stable(crhf) gues
 s=read geom=nocrowd test
 ----------------------------------------------------------------------

 ----------------------------------------------------------------------
 hf stability analysis of h10 triangular lattice, y= 2.3437412473608381
 ----------------------------------------------------------------------
 Symbolic Z-matrix:
 Charge =  0 Multiplicity = 1

                         Standard orientation:
 ---------------------------------------------------------------------
 Center     Atomic      Atomic             Coordinates (Angstroms)
 Number     Number       Type             X           Y           Z
 ---------------------------------------------------------------------
      1          1           0        0.979951    5.788631    0.000000
      2          1           0        0.979951    3.431980    0.000000
      3          1           0        0.489975    3.483478    0.000000
      4          1           0        0.489975    1.126827    0.000000
      5          1           0       -0.000000    1.178326    0.000000
      6          1           0       -0.000000   -1.178326    0.000000
      7          1           0       -0.489975   -1.126827    0.000000
      8          1           0       -0.489975   -3.483478    0.000000
      9          1           0       -0.979951   -3.431980    0.000000
     10          1           0       -0.979951   -5.788631    0.000000
 ---------------------------------------------------------------------

 SCF Done:  E(RHF) =  -4.49531775359     A.U. after    6 cycles
 E2 =    -0.9732144251D+00 EUMP2 =    -0.54685321787412D+01

 The electronic state is 1-AG.
 Alpha  occ. eigenvalues --   -0.73655  -0.72383  -0.70611  -0.68977  -0.20487
 Alpha virt. eigenvalues --   -0.15976   0.53741   0.58651   0.65443   0.71603

 Mulliken charges:
               1
     1  H    0.001115
     2  H    0.000037
     3  H   -0.001178
     4  H   -0.000113
     5  H    0.000138
     6  H    0.000138
     7  H   -0.000113
     8  H   -0.001178
     9  H    0.000037
    10  H    0.001115
 Sum of Mulliken charges =  -0.00000

 Dipole moment (field-independent basis, Debye):
    X=              0.0000    Y=             -0.0000    Z=              0.0000  Tot=              0.0000
 Quadrupole moment (field-independent basis, Debye-Ang):
   XX=            -12.6544   YY=            -15.1032   ZZ=            -13.4602
   XY=             -0.3780   XZ=              0.0000   YZ=             -0.0000

 Normal termination of Gaussian 09 at Thu Feb  9 18:23:20 2017.
