 Gaussian 09, Revision E.01,
 Gaussian 09:  ES64L-G09RevE.01 30-Nov-2015

 ----------------------------------------------------------------------
 #rhf/gen scf(symm,tight,novaracc,noincfock,fulldiag) stable(crhf) gues
 s=read geom=nocrowd test
 ----------------------------------------------------------------------

 ----------------------------------------------------------------------
 hf stability analysis of h10 triangular lattice, y= 1.1387493349689228
 ----------------------------------------------------------------------
 Symbolic Z-matrix:
 Charge =  0 Multiplicity = 1

                         Standard orientation:
 ---------------------------------------------------------------------
 Center     Atomic      Atomic             Coordinates (Angstroms)
 Number     Number       Type             X           Y           Z
 ---------------------------------------------------------------------
      1          1           0        1.852684    2.291423    0.000000
      2          1           0        1.852684    1.044906    0.000000
      3          1           0        0.926342    1.457340    0.000000
      4          1           0        0.926342    0.210824    0.000000
      5          1           0       -0.000000    0.623258    0.000000
      6          1           0       -0.000000   -0.623258    0.000000
      7          1           0       -0.926342   -0.210824    0.000000
      8          1           0       -0.926342   -1.457340    0.000000
      9          1           0       -1.852684   -1.044906    0.000000
     10          1           0       -1.852684   -2.291423    0.000000
 ---------------------------------------------------------------------

 SCF Done:  E(RHF) =  -4.64136039877     A.U. after   12 cycles
 E2 =    -0.1372824858D+00 EUMP2 =    -0.47786428846025D+01

 The electronic state is 1-AG.
 Alpha  occ. eigenvalues --   -0.85335  -0.74126  -0.56690  -0.34983  -0.16570
 Alpha virt. eigenvalues --   -0.05974   0.17350   0.21773   0.37200   0.53073

 Mulliken charges:
               1
     1  H   -0.177575
     2  H    0.041707
     3  H    0.134404
     4  H   -0.146340
     5  H    0.147803
     6  H    0.147803
     7  H   -0.146340
     8  H    0.134404
     9  H    0.041707
    10  H   -0.177575
 Sum of Mulliken charges =  -0.00000

 Dipole moment (field-independent basis, Debye):
    X=              0.0000    Y=              0.0000    Z=             -0.0000  Tot=              0.0000
 Quadrupole moment (field-independent basis, Debye-Ang):
   XX=            -19.0071   YY=            -21.1755   ZZ=            -12.8279
   XY=             -6.3867   XZ=             -0.0000   YZ=             -0.0000

 Normal termination of Gaussian 09 at Thu Feb  9 18:22:44 2017.
