 Gaussian 09, Revision E.01,
 Gaussian 09:  ES64L-G09RevE.01 30-Nov-2015

 ----------------------------------------------------------------------
 #rhf/gen scf(symm,tight,novaracc,noincfock,fulldiag) stable(crhf) gues
 s=read geom=nocrowd test
 ----------------------------------------------------------------------

 hf stability analysis of h10 triangular lattice, y= 0.9251794552834028
 4
 ----------------------------------------------------------------------
 Symbolic Z-matrix:
 Charge =  0 Multiplicity = 1

                         Standard orientation:
 ---------------------------------------------------------------------
 Center     Atomic      Atomic             Coordinates (Angstroms)
 Number     Number       Type             X           Y           Z
 ---------------------------------------------------------------------
      1          1           0        2.069415    1.394082    0.000000
      2          1           0        2.069415    0.278114    0.000000
      3          1           0        1.034708    0.976033    0.000000
      4          1           0        1.034708   -0.139935    0.000000
      5          1           0       -0.000000    0.557984    0.000000
      6          1           0       -0.000000   -0.557984   -0.000000
      7          1           0       -1.034708    0.139935    0.000000
      8          1           0       -1.034708   -0.976033    0.000000
      9          1           0       -2.069415   -0.278114    0.000000
     10          1           0       -2.069415   -1.394082    0.000000
 ---------------------------------------------------------------------

 SCF Done:  E(RHF) =  -4.81335812396     A.U. after    9 cycles
 E2 =    -0.1100919761D+00 EUMP2 =    -0.49234501000121D+01

 The electronic state is 1-AG.
 Alpha  occ. eigenvalues --   -0.86089  -0.73525  -0.53229  -0.42915  -0.27407
 Alpha virt. eigenvalues --   -0.04799   0.19671   0.28593   0.54633   0.70319

 Mulliken charges:
               1
     1  H    0.141960
     2  H   -0.076413
     3  H   -0.015928
     4  H   -0.052567
     5  H    0.002949
     6  H    0.002949
     7  H   -0.052567
     8  H   -0.015928
     9  H   -0.076413
    10  H    0.141960
 Sum of Mulliken charges =   0.00000

 Dipole moment (field-independent basis, Debye):
    X=             -0.0000    Y=             -0.0000    Z=              0.0000  Tot=              0.0000
 Quadrupole moment (field-independent basis, Debye-Ang):
   XX=            -11.3622   YY=            -14.3425   ZZ=            -12.9755
   XY=              5.2041   XZ=             -0.0000   YZ=             -0.0000

 Normal termination of Gaussian 09 at Thu Feb  9 18:22:23 2017.
