 Gaussian 09, Revision E.01,
 Gaussian 09:  ES64L-G09RevE.01 30-Nov-2015

 --------------------------------------
 #P uhf/sto-3g pop=naturalorbitals test
 --------------------------------------

 CF(4,5) spe calculation for rhombic H4 with side length = 1.7320510 sh
 ort diagonal = 2.0000000 and long diagonal = 3.4641020
 ----------------------------------------------------------------------
 Symbolic Z-matrix:
 Charge =  0 Multiplicity = 1

                         Standard orientation:
 ---------------------------------------------------------------------
 Center     Atomic      Atomic             Coordinates (Angstroms)
 Number     Number       Type             X           Y           Z
 ---------------------------------------------------------------------
      1          1           0        0.000000    0.000000    1.732051
      2          1           0        0.000000    0.000000   -1.732051
      3          1           0        0.000000    1.000000    0.000000
      4          1           0       -0.000000   -1.000000    0.000000
 ---------------------------------------------------------------------

 SCF Done:  E(UHF) =  -1.52826278662     A.U. after    6 cycles

 Mulliken charges and spin densities:
               1          2
     1  H   -0.261184   0.000000
     2  H   -0.261184   0.000000
     3  H    0.261184   0.000000
     4  H    0.261184   0.000000
 Sum of Mulliken charges =  -0.00000   0.00000

 Dipole moment (field-independent basis, Debye):
    X=             -0.0000    Y=             -0.0000    Z=              0.0000  Tot=              0.0000
 Quadrupole moment (field-independent basis, Debye-Ang):
   XX=             -3.7170   YY=             -0.3379   ZZ=            -10.4577
   XY=              0.0000   XZ=              0.0000   YZ=              0.0000

 Normal termination of Gaussian 09 at Thu Dec  8 16:36:27 2016.
