 Gaussian 09, Revision E.01,
 Gaussian 09:  ES64L-G09RevE.01 30-Nov-2015

 ----------------------------------------------------------------------
 #rhf/gen scf(symm,tight,novaracc,noincfock,fulldiag) stable(crhf) gues
 s=read geom=nocrowd test
 ----------------------------------------------------------------------

 ----------------------------------------------------------------------
 hf stability analysis of h12 triangular lattice, y= 1.3850361609029067
 ----------------------------------------------------------------------
 Symbolic Z-matrix:
 Charge =  0 Multiplicity = 1

                         Standard orientation:
 ---------------------------------------------------------------------
 Center     Atomic      Atomic             Coordinates (Angstroms)
 Number     Number       Type             X           Y           Z
 ---------------------------------------------------------------------
      1          1           0        0.798324    3.375744   -0.000000
      2          1           0        0.000000    2.169608   -0.000000
      3          1           0        0.798324    1.929339   -0.000000
      4          1           0        0.000000    0.723203   -0.000000
      5          1           0       -0.798324    0.963471   -0.000000
      6          1           0       -0.798324   -0.482934    0.000000
      7          1           0       -0.798324   -1.929339   -0.000000
      8          1           0       -0.000000   -0.723203   -0.000000
      9          1           0        0.798324    0.482934    0.000000
     10          1           0        0.798324   -0.963471    0.000000
     11          1           0       -0.000000   -2.169608   -0.000000
     12          1           0       -0.798324   -3.375744   -0.000000
 ---------------------------------------------------------------------

 SCF Done:  E(RHF) =  -5.36553547758     A.U. after   17 cycles
 E2 =    -0.1594652739D+01 EUMP2 =    -0.69601882167425D+01

 The electronic state is 1-AG.
 Alpha  occ. eigenvalues --   -0.92042  -0.78080  -0.59987  -0.51107  -0.27689
 Alpha  occ. eigenvalues --   -0.11899
 Alpha virt. eigenvalues --   -0.22386  -0.00694   0.36882   0.42479   0.51849
 Alpha virt. eigenvalues --    0.72523

 Mulliken charges:
               1
     1  H   -0.135369
     2  H    0.110297
     3  H   -0.081495
     4  H   -0.162672
     5  H   -0.072633
     6  H    0.341872
     7  H   -0.081495
     8  H   -0.162672
     9  H    0.341872
    10  H   -0.072633
    11  H    0.110297
    12  H   -0.135369
 Sum of Mulliken charges =   0.00000

 Dipole moment (field-independent basis, Debye):
    X=              0.0000    Y=              0.0000    Z=              0.0000  Tot=              0.0000
 Quadrupole moment (field-independent basis, Debye-Ang):
   XX=            -15.4359   YY=            -35.0541   ZZ=            -14.8659
   XY=             -3.9333   XZ=             -0.0000   YZ=             -0.0000

 Normal termination of Gaussian 09 at Fri Feb 17 15:08:04 2017.
