 Gaussian 09, Revision E.01,
 Gaussian 09:  ES64L-G09RevE.01 30-Nov-2015

 ----------------------------------------------------------------------
 #rhf/gen scf(symm,tight,novaracc,noincfock,fulldiag) stable(crhf) gues
 s=read geom=nocrowd test
 ----------------------------------------------------------------------

 ----------------------------------------------------------------------
 hf stability analysis of h12 triangular lattice, y= 1.4941379400594756
 ----------------------------------------------------------------------
 Symbolic Z-matrix:
 Charge =  0 Multiplicity = 1

                         Standard orientation:
 ---------------------------------------------------------------------
 Center     Atomic      Atomic             Coordinates (Angstroms)
 Number     Number       Type             X           Y           Z
 ---------------------------------------------------------------------
      1          1           0        0.748205    3.664740   -0.000000
      2          1           0        0.000000    2.314943   -0.000000
      3          1           0        0.748205    2.121444   -0.000000
      4          1           0        0.000000    0.771648   -0.000000
      5          1           0       -0.748205    0.965147   -0.000000
      6          1           0       -0.748205   -0.578149    0.000000
      7          1           0       -0.748205   -2.121444   -0.000000
      8          1           0       -0.000000   -0.771648   -0.000000
      9          1           0        0.748205    0.578149    0.000000
     10          1           0        0.748205   -0.965147   -0.000000
     11          1           0       -0.000000   -2.314943   -0.000000
     12          1           0       -0.748205   -3.664740   -0.000000
 ---------------------------------------------------------------------

 SCF Done:  E(RHF) =  -5.40540967415     A.U. after   15 cycles
 E2 =    -0.6147730104D+00 EUMP2 =    -0.60201826845097D+01

 The electronic state is 1-AG.
 Alpha  occ. eigenvalues --   -0.89472  -0.78089  -0.61570  -0.54852  -0.25014
 Alpha  occ. eigenvalues --   -0.13696
 Alpha virt. eigenvalues --   -0.17888  -0.05102   0.41832   0.45938   0.62902
 Alpha virt. eigenvalues --    0.83359

 Mulliken charges:
               1
     1  H   -0.097231
     2  H    0.032363
     3  H   -0.038904
     4  H   -0.206425
     5  H    0.058332
     6  H    0.251866
     7  H   -0.038904
     8  H   -0.206425
     9  H    0.251866
    10  H    0.058332
    11  H    0.032363
    12  H   -0.097231
 Sum of Mulliken charges =   0.00000

 Dipole moment (field-independent basis, Debye):
    X=              0.0000    Y=              0.0000    Z=              0.0000  Tot=              0.0000
 Quadrupole moment (field-independent basis, Debye-Ang):
   XX=            -14.1775   YY=            -34.5865   ZZ=            -14.8208
   XY=             -3.3755   XZ=             -0.0000   YZ=             -0.0000

 Normal termination of Gaussian 09 at Fri Feb 17 15:08:30 2017.
