 Gaussian 09, Revision E.01,
 Gaussian 09:  ES64L-G09RevE.01 30-Nov-2015

 ----------------------------------------------------------------------
 #rhf/gen scf(symm,tight,novaracc,noincfock,fulldiag) stable(crhf) gues
 s=read geom=nocrowd test
 ----------------------------------------------------------------------

 ----------------------------------------------------------------------
 hf stability analysis of h12 triangular lattice, y= 1.1806129676413906
 ----------------------------------------------------------------------
 Symbolic Z-matrix:
 Charge =  0 Multiplicity = 1

                         Standard orientation:
 ---------------------------------------------------------------------
 Center     Atomic      Atomic             Coordinates (Angstroms)
 Number     Number       Type             X           Y           Z
 ---------------------------------------------------------------------
      1          1           0        0.903602    2.820431    0.000000
      2          1           0        0.000000    1.916829    0.000000
      3          1           0        0.903602    1.542545    0.000000
      4          1           0        0.000000    0.638943    0.000000
      5          1           0       -0.903602    1.013227    0.000000
      6          1           0       -0.903602   -0.264659    0.000000
      7          1           0       -0.903602   -1.542545    0.000000
      8          1           0       -0.000000   -0.638943    0.000000
      9          1           0        0.903602    0.264659    0.000000
     10          1           0        0.903602   -1.013227    0.000000
     11          1           0       -0.000000   -1.916829    0.000000
     12          1           0       -0.903602   -2.820431    0.000000
 ---------------------------------------------------------------------

 SCF Done:  E(RHF) =  -5.40592665218     A.U. after   17 cycles
 E2 =    -0.3640395204D+00 EUMP2 =    -0.57699661725634D+01

 The electronic state is 1-AG.
 Alpha  occ. eigenvalues --   -0.96015  -0.77310  -0.56640  -0.55037  -0.31959
 Alpha  occ. eigenvalues --   -0.08602
 Alpha virt. eigenvalues --   -0.18196   0.16465   0.24812   0.28059   0.51731
 Alpha virt. eigenvalues --    0.53575

 Mulliken charges:
               1
     1  H   -0.035450
     2  H    0.043854
     3  H   -0.099997
     4  H    0.118258
     5  H   -0.112995
     6  H    0.086330
     7  H   -0.099997
     8  H    0.118258
     9  H    0.086330
    10  H   -0.112995
    11  H    0.043854
    12  H   -0.035450
 Sum of Mulliken charges =   0.00000

 Dipole moment (field-independent basis, Debye):
    X=              0.0000    Y=             -0.0000    Z=             -0.0000  Tot=              0.0000
 Quadrupole moment (field-independent basis, Debye-Ang):
   XX=            -19.1325   YY=            -23.5251   ZZ=            -15.0753
   XY=             -1.2421   XZ=             -0.0000   YZ=              0.0000

 Normal termination of Gaussian 09 at Fri Feb 17 15:06:53 2017.
