 Gaussian 09, Revision E.01,
 Gaussian 09:  ES64L-G09RevE.01 30-Nov-2015

 ----------------------------------------------------------------------
 #rhf/gen scf(symm,tight,novaracc,noincfock,fulldiag) stable(crhf) gues
 s=read geom=nocrowd test
 ----------------------------------------------------------------------

 hf stability analysis of h12 triangular lattice, y= 0.6929481720257152
 4
 ----------------------------------------------------------------------
 Symbolic Z-matrix:
 Charge =  0 Multiplicity = 1

                         Standard orientation:
 ---------------------------------------------------------------------
 Center     Atomic      Atomic             Coordinates (Angstroms)
 Number     Number       Type             X           Y           Z
 ---------------------------------------------------------------------
      1          1           0        1.065535    1.428037   -0.000000
      2          1           0        0.000000    1.625522   -0.000000
      3          1           0        1.065535    0.344355    0.000000
      4          1           0        0.000000    0.541841   -0.000000
      5          1           0       -1.065535    1.823007   -0.000000
      6          1           0       -1.065535    0.739326   -0.000000
      7          1           0       -1.065535   -0.344355   -0.000000
      8          1           0       -0.000000   -0.541841   -0.000000
      9          1           0        1.065535   -0.739326   -0.000000
     10          1           0        1.065535   -1.823007   -0.000000
     11          1           0       -0.000000   -1.625522   -0.000000
     12          1           0       -1.065535   -1.428037   -0.000000
 ---------------------------------------------------------------------

 SCF Done:  E(RHF) =  -5.82744466088     A.U. after    7 cycles
 E2 =    -0.1393054582D+00 EUMP2 =    -0.59667501191117D+01

 The electronic state is 1-AG.
 Alpha  occ. eigenvalues --   -0.93273  -0.75601  -0.65292  -0.49170  -0.41526
 Alpha  occ. eigenvalues --   -0.25398
 Alpha virt. eigenvalues --    0.02475   0.18975   0.23479   0.44461   0.62061
 Alpha virt. eigenvalues --    0.94098

 Mulliken charges:
               1
     1  H   -0.008533
     2  H   -0.057852
     3  H   -0.003727
     4  H   -0.050834
     5  H    0.140364
     6  H   -0.019418
     7  H   -0.003727
     8  H   -0.050834
     9  H   -0.019418
    10  H    0.140364
    11  H   -0.057852
    12  H   -0.008533
 Sum of Mulliken charges =   0.00000

 Dipole moment (field-independent basis, Debye):
    X=              0.0000    Y=             -0.0000    Z=             -0.0000  Tot=              0.0000
 Quadrupole moment (field-independent basis, Debye-Ang):
   XX=            -19.4826   YY=            -14.0438   ZZ=            -15.1961
   XY=             -3.1655   XZ=             -0.0000   YZ=             -0.0000

 Normal termination of Gaussian 09 at Fri Feb 17 15:01:04 2017.
