 Gaussian 09, Revision E.01,
 Gaussian 09:  ES64L-G09RevE.01 30-Nov-2015

 ----------------------------------------------------------------------
 #rhf/gen scf(symm,tight,novaracc,noincfock,fulldiag) stable(crhf) gues
 s=read geom=nocrowd test
 ----------------------------------------------------------------------

 ----------------------------------------------------------------------
 hf stability analysis of h12 triangular lattice, y= 1.7438440595774944
 ----------------------------------------------------------------------
 Symbolic Z-matrix:
 Charge =  0 Multiplicity = 1

                         Standard orientation:
 ---------------------------------------------------------------------
 Center     Atomic      Atomic             Coordinates (Angstroms)
 Number     Number       Type             X           Y           Z
 ---------------------------------------------------------------------
      1          1           0        0.650538    4.313978    0.000000
      2          1           0        0.000000    2.662492    0.000000
      3          1           0        0.650538    2.538983    0.000000
      4          1           0        0.000000    0.887497    0.000000
      5          1           0       -0.650538    1.011006    0.000000
      6          1           0       -0.650538   -0.763989   -0.000000
      7          1           0       -0.650538   -2.538983    0.000000
      8          1           0       -0.000000   -0.887497    0.000000
      9          1           0        0.650538    0.763989    0.000000
     10          1           0        0.650538   -1.011006    0.000000
     11          1           0       -0.000000   -2.662492    0.000000
     12          1           0       -0.650538   -4.313978    0.000000
 ---------------------------------------------------------------------

 SCF Done:  E(RHF) =  -5.33323698329     A.U. after   11 cycles
 E2 =    -0.7758151497D+00 EUMP2 =    -0.61090521329920D+01

 The electronic state is 1-AG.
 Alpha  occ. eigenvalues --   -0.87023  -0.79813  -0.64948  -0.62831  -0.20202
 Alpha  occ. eigenvalues --   -0.17932
 Alpha virt. eigenvalues --   -0.11662  -0.09717   0.49142   0.50675   0.89062
 Alpha virt. eigenvalues --    1.06683

 Mulliken charges:
               1
     1  H   -0.024221
     2  H    0.000714
     3  H   -0.018298
     4  H   -0.277609
     5  H    0.129687
     6  H    0.189727
     7  H   -0.018298
     8  H   -0.277609
     9  H    0.189727
    10  H    0.129687
    11  H    0.000714
    12  H   -0.024221
 Sum of Mulliken charges =   0.00000

 Dipole moment (field-independent basis, Debye):
    X=             -0.0000    Y=              0.0000    Z=             -0.0000  Tot=              0.0000
 Quadrupole moment (field-independent basis, Debye-Ang):
   XX=            -14.5858   YY=            -26.2037   ZZ=            -14.9715
   XY=             -1.1406   XZ=             -0.0000   YZ=             -0.0000

 Normal termination of Gaussian 09 at Fri Feb 17 15:09:12 2017.
