 Gaussian 09, Revision E.01,
 Gaussian 09:  ES64L-G09RevE.01 30-Nov-2015

 ----------------------------------------------------------------------
 #rhf/gen scf(symm,tight,novaracc,noincfock,fulldiag) stable(crhf) gues
 s=read geom=nocrowd test
 ----------------------------------------------------------------------

 hf stability analysis of h12 triangular lattice, y= 0.6686047848167678
 8
 ----------------------------------------------------------------------
 Symbolic Z-matrix:
 Charge =  0 Multiplicity = 1

                         Standard orientation:
 ---------------------------------------------------------------------
 Center     Atomic      Atomic             Coordinates (Angstroms)
 Number     Number       Type             X           Y           Z
 ---------------------------------------------------------------------
      1          1           0        1.057318    1.364715   -0.000000
      2          1           0       -0.000000    1.638156   -0.000000
      3          1           0        1.057318    0.272611   -0.000000
      4          1           0       -0.000000    0.546052   -0.000000
      5          1           0       -1.057318    1.911597   -0.000000
      6          1           0       -1.057318    0.819493   -0.000000
      7          1           0       -1.057318   -0.272611   -0.000000
      8          1           0       -0.000000   -0.546052   -0.000000
      9          1           0        1.057318   -0.819493   -0.000000
     10          1           0        1.057318   -1.911597   -0.000000
     11          1           0       -0.000000   -1.638156   -0.000000
     12          1           0       -1.057318   -1.364715   -0.000000
 ---------------------------------------------------------------------

 SCF Done:  E(RHF) =  -5.79857169598     A.U. after    9 cycles
 E2 =    -0.1407047526D+00 EUMP2 =    -0.59392764486164D+01

 The electronic state is 1-AG.
 Alpha  occ. eigenvalues --   -0.92806  -0.75665  -0.64223  -0.50355  -0.39907
 Alpha  occ. eigenvalues --   -0.23832
 Alpha virt. eigenvalues --    0.00172   0.19355   0.26842   0.40186   0.63685
 Alpha virt. eigenvalues --    0.88520

 Mulliken charges:
               1
     1  H   -0.038255
     2  H   -0.058086
     3  H   -0.000935
     4  H   -0.048735
     5  H    0.167513
     6  H   -0.021502
     7  H   -0.000935
     8  H   -0.048735
     9  H   -0.021502
    10  H    0.167513
    11  H   -0.058086
    12  H   -0.038255
 Sum of Mulliken charges =   0.00000

 Dipole moment (field-independent basis, Debye):
    X=             -0.0000    Y=             -0.0000    Z=             -0.0000  Tot=              0.0000
 Quadrupole moment (field-independent basis, Debye-Ang):
   XX=            -19.6066   YY=            -13.0843   ZZ=            -15.1949
   XY=             -4.3648   XZ=              0.0000   YZ=             -0.0000

 Normal termination of Gaussian 09 at Fri Feb 17 15:00:39 2017.
