 Gaussian 09, Revision E.01,
 Gaussian 09:  ES64L-G09RevE.01 30-Nov-2015

 ----------------------------------------------------------------------
 #rhf/gen scf(symm,tight,novaracc,noincfock,fulldiag) stable(crhf) gues
 s=read geom=nocrowd test
 ----------------------------------------------------------------------

 hf stability analysis of h12 triangular lattice, y= 0.9706441525749213
 2
 ----------------------------------------------------------------------
 Symbolic Z-matrix:
 Charge =  0 Multiplicity = 1

                         Standard orientation:
 ---------------------------------------------------------------------
 Center     Atomic      Atomic             Coordinates (Angstroms)
 Number     Number       Type             X           Y           Z
 ---------------------------------------------------------------------
      1          1           0        1.014320    2.224420   -0.000000
      2          1           0        0.000000    1.707597   -0.000000
      3          1           0        1.014320    1.086021   -0.000000
      4          1           0        0.000000    0.569199   -0.000000
      5          1           0       -1.014320    1.190775    0.000000
      6          1           0       -1.014320    0.052377    0.000000
      7          1           0       -1.014320   -1.086021   -0.000000
      8          1           0       -0.000000   -0.569199   -0.000000
      9          1           0        1.014320   -0.052377    0.000000
     10          1           0        1.014320   -1.190775   -0.000000
     11          1           0       -0.000000   -1.707597   -0.000000
     12          1           0       -1.014320   -2.224420   -0.000000
 ---------------------------------------------------------------------

 SCF Done:  E(RHF) =  -5.63096384459     A.U. after   11 cycles
 E2 =    -0.1506837588D+00 EUMP2 =    -0.57816476033690D+01

 The electronic state is 1-AG.
 Alpha  occ. eigenvalues --   -0.90400  -0.75497  -0.59114  -0.53397  -0.34346
 Alpha  occ. eigenvalues --   -0.15589
 Alpha virt. eigenvalues --   -0.06921   0.21301   0.26342   0.39335   0.64677
 Alpha virt. eigenvalues --    0.65720

 Mulliken charges:
               1
     1  H    0.249500
     2  H   -0.061278
     3  H   -0.020422
     4  H   -0.035526
     5  H   -0.136292
     6  H    0.004018
     7  H   -0.020422
     8  H   -0.035526
     9  H    0.004018
    10  H   -0.136292
    11  H   -0.061278
    12  H    0.249500
 Sum of Mulliken charges =  -0.00000

 Dipole moment (field-independent basis, Debye):
    X=             -0.0000    Y=             -0.0000    Z=             -0.0000  Tot=              0.0000
 Quadrupole moment (field-independent basis, Debye-Ang):
   XX=            -20.2217   YY=             -7.8664   ZZ=            -15.1857
   XY=              8.0887   XZ=              0.0000   YZ=              0.0000

 Normal termination of Gaussian 09 at Fri Feb 17 15:04:59 2017.
