 Gaussian 09, Revision E.01,
 Gaussian 09:  ES64L-G09RevE.01 30-Nov-2015

 ----------------------------------------------------------------------
 #rhf/gen scf(symm,tight,novaracc,noincfock,fulldiag) stable(crhf) gues
 s=read geom=nocrowd test
 ----------------------------------------------------------------------

 hf stability analysis of h12 triangular lattice, y= 0.8113826706734035
 3
 ----------------------------------------------------------------------
 Symbolic Z-matrix:
 Charge =  0 Multiplicity = 1

                         Standard orientation:
 ---------------------------------------------------------------------
 Center     Atomic      Atomic             Coordinates (Angstroms)
 Number     Number       Type             X           Y           Z
 ---------------------------------------------------------------------
      1          1           0        1.069964    1.759658    0.000000
      2          1           0        0.000000    1.618794    0.000000
      3          1           0        1.069964    0.680461   -0.000000
      4          1           0        0.000000    0.539598    0.000000
      5          1           0       -1.069964    1.477931    0.000000
      6          1           0       -1.069964    0.398735    0.000000
      7          1           0       -1.069964   -0.680461   -0.000000
      8          1           0       -0.000000   -0.539598   -0.000000
      9          1           0        1.069964   -0.398735   -0.000000
     10          1           0        1.069964   -1.477931   -0.000000
     11          1           0       -0.000000   -1.618794   -0.000000
     12          1           0       -1.069964   -1.759658   -0.000000
 ---------------------------------------------------------------------

 SCF Done:  E(RHF) =  -5.84258926678     A.U. after    8 cycles
 E2 =    -0.1385865867D+00 EUMP2 =    -0.59811758534788D+01

 The electronic state is 1-AG.
 Alpha  occ. eigenvalues --   -0.93525  -0.75544  -0.65891  -0.48222  -0.42704
 Alpha  occ. eigenvalues --   -0.26239
 Alpha virt. eigenvalues --    0.04086   0.18764   0.21301   0.47526   0.60448
 Alpha virt. eigenvalues --    0.97325

 Mulliken charges:
               1
     1  H    0.119750
     2  H   -0.057748
     3  H   -0.017494
     4  H   -0.051951
     5  H    0.013426
     6  H   -0.005984
     7  H   -0.017494
     8  H   -0.051951
     9  H   -0.005984
    10  H    0.013426
    11  H   -0.057748
    12  H    0.119750
 Sum of Mulliken charges =   0.00000

 Dipole moment (field-independent basis, Debye):
    X=              0.0000    Y=              0.0000    Z=             -0.0000  Tot=              0.0000
 Quadrupole moment (field-independent basis, Debye-Ang):
   XX=            -19.4149   YY=            -14.5555   ZZ=            -15.1966
   XY=              2.2631   XZ=              0.0000   YZ=             -0.0000

 Normal termination of Gaussian 09 at Fri Feb 17 15:02:57 2017.
