 Gaussian 09, Revision E.01,
 Gaussian 09:  ES64L-G09RevE.01 30-Nov-2015

 ----------------------------------------------------------------------
 #rhf/gen scf(symm,tight,novaracc,noincfock,fulldiag) stable(crhf) gues
 s=read geom=nocrowd test
 ----------------------------------------------------------------------

 hf stability analysis of h12 triangular lattice, y= 0.7972534768479298
 0
 ----------------------------------------------------------------------
 Symbolic Z-matrix:
 Charge =  0 Multiplicity = 1

                         Standard orientation:
 ---------------------------------------------------------------------
 Center     Atomic      Atomic             Coordinates (Angstroms)
 Number     Number       Type             X           Y           Z
 ---------------------------------------------------------------------
      1          1           0        1.072094    1.718809    0.000000
      2          1           0        0.000000    1.615578    0.000000
      3          1           0        1.072094    0.641757    0.000000
      4          1           0        0.000000    0.538526    0.000000
      5          1           0       -1.072094    1.512347    0.000000
      6          1           0       -1.072094    0.435295    0.000000
      7          1           0       -1.072094   -0.641757    0.000000
      8          1           0       -0.000000   -0.538526    0.000000
      9          1           0        1.072094   -0.435295    0.000000
     10          1           0        1.072094   -1.512347    0.000000
     11          1           0       -0.000000   -1.615578    0.000000
     12          1           0       -1.072094   -1.718809    0.000000
 ---------------------------------------------------------------------

 SCF Done:  E(RHF) =  -5.84977053874     A.U. after    8 cycles
 E2 =    -0.1382487065D+00 EUMP2 =    -0.59880192452867D+01

 The electronic state is 1-AG.
 Alpha  occ. eigenvalues --   -0.93646  -0.75509  -0.66185  -0.47568  -0.43468
 Alpha  occ. eigenvalues --   -0.26642
 Alpha virt. eigenvalues --    0.05028   0.18650   0.20099   0.49466   0.59213
 Alpha virt. eigenvalues --    0.98939

 Mulliken charges:
               1
     1  H    0.105888
     2  H   -0.057702
     3  H   -0.016086
     4  H   -0.052486
     5  H    0.027926
     6  H   -0.007540
     7  H   -0.016086
     8  H   -0.052486
     9  H   -0.007540
    10  H    0.027926
    11  H   -0.057702
    12  H    0.105888
 Sum of Mulliken charges =  -0.00000

 Dipole moment (field-independent basis, Debye):
    X=             -0.0000    Y=             -0.0000    Z=              0.0000  Tot=              0.0000
 Quadrupole moment (field-independent basis, Debye-Ang):
   XX=            -19.3822   YY=            -14.8003   ZZ=            -15.1969
   XY=              1.6603   XZ=             -0.0000   YZ=             -0.0000

 Normal termination of Gaussian 09 at Fri Feb 17 15:02:45 2017.
