 Gaussian 09, Revision E.01,
 Gaussian 09:  ES64L-G09RevE.01 30-Nov-2015

 ----------------------------------------------------------------------
 #rhf/gen scf(symm,tight,novaracc,noincfock,fulldiag) stable(crhf) gues
 s=read geom=nocrowd test
 ----------------------------------------------------------------------

 ----------------------------------------------------------------------
 hf stability analysis of h12 triangular lattice, y= 1.0760973851886237
 ----------------------------------------------------------------------
 Symbolic Z-matrix:
 Charge =  0 Multiplicity = 1

                         Standard orientation:
 ---------------------------------------------------------------------
 Center     Atomic      Atomic             Coordinates (Angstroms)
 Number     Number       Type             X           Y           Z
 ---------------------------------------------------------------------
      1          1           0        0.960305    2.527289    0.000000
      2          1           0        0.000000    1.803647    0.000000
      3          1           0        0.960305    1.324857    0.000000
      4          1           0        0.000000    0.601216    0.000000
      5          1           0       -0.960305    1.080006    0.000000
      6          1           0       -0.960305   -0.122426    0.000000
      7          1           0       -0.960305   -1.324857    0.000000
      8          1           0       -0.000000   -0.601216    0.000000
      9          1           0        0.960305    0.122426   -0.000000
     10          1           0        0.960305   -1.080006   -0.000000
     11          1           0       -0.000000   -1.803647    0.000000
     12          1           0       -0.960305   -2.527289    0.000000
 ---------------------------------------------------------------------

 SCF Done:  E(RHF) =  -5.41013016146     A.U. after   20 cycles
 E2 =    -0.1912286230D+00 EUMP2 =    -0.56013587844176D+01

 The electronic state is 1-AG.
 Alpha  occ. eigenvalues --   -0.92041  -0.75540  -0.56406  -0.54260  -0.30432
 Alpha  occ. eigenvalues --   -0.06782
 Alpha virt. eigenvalues --   -0.13487   0.17953   0.23426   0.37752   0.50010
 Alpha virt. eigenvalues --    0.58878

 Mulliken charges:
               1
     1  H    0.166479
     2  H   -0.078718
     3  H   -0.005988
     4  H    0.090128
     5  H   -0.152973
     6  H   -0.018928
     7  H   -0.005988
     8  H    0.090128
     9  H   -0.018928
    10  H   -0.152973
    11  H   -0.078718
    12  H    0.166479
 Sum of Mulliken charges =  -0.00000

 Dipole moment (field-independent basis, Debye):
    X=             -0.0000    Y=             -0.0000    Z=              0.0000  Tot=              0.0000
 Quadrupole moment (field-independent basis, Debye-Ang):
   XX=            -19.9258   YY=            -11.0036   ZZ=            -15.0877
   XY=              5.8229   XZ=              0.0000   YZ=             -0.0000

 Normal termination of Gaussian 09 at Fri Feb 17 15:06:02 2017.
