 Gaussian 09, Revision E.01,
 Gaussian 09:  ES64L-G09RevE.01 30-Nov-2015

 ----------------------------------------------------------------------
 #rhf/gen scf(symm,tight,novaracc,noincfock,fulldiag) stable(crhf) gues
 s=read geom=nocrowd test
 ----------------------------------------------------------------------

 hf stability analysis of h12 triangular lattice, y= 0.8713519307064939
 7
 ----------------------------------------------------------------------
 Symbolic Z-matrix:
 Charge =  0 Multiplicity = 1

                         Standard orientation:
 ---------------------------------------------------------------------
 Center     Atomic      Atomic             Coordinates (Angstroms)
 Number     Number       Type             X           Y           Z
 ---------------------------------------------------------------------
      1          1           0        1.054848    1.934526    0.000000
      2          1           0        0.000000    1.641991    0.000000
      3          1           0        1.054848    0.839866    0.000000
      4          1           0        0.000000    0.547330    0.000000
      5          1           0       -1.054848    1.349455   -0.000000
      6          1           0       -1.054848    0.254795   -0.000000
      7          1           0       -1.054848   -0.839866    0.000000
      8          1           0       -0.000000   -0.547330    0.000000
      9          1           0        1.054848   -0.254795    0.000000
     10          1           0        1.054848   -1.349455    0.000000
     11          1           0       -0.000000   -1.641991    0.000000
     12          1           0       -1.054848   -1.934526    0.000000
 ---------------------------------------------------------------------

 SCF Done:  E(RHF) =  -5.78969805271     A.U. after   10 cycles
 E2 =    -0.1411439263D+00 EUMP2 =    -0.59308419790367D+01

 The electronic state is 1-AG.
 Alpha  occ. eigenvalues --   -0.92666  -0.75675  -0.63909  -0.50637  -0.39493
 Alpha  occ. eigenvalues --   -0.23360
 Alpha virt. eigenvalues --   -0.00411   0.19468   0.27745   0.39095   0.63992
 Alpha virt. eigenvalues --    0.86939

 Mulliken charges:
               1
     1  H    0.174241
     2  H   -0.058169
     3  H   -0.021913
     4  H   -0.048094
     5  H   -0.045777
     6  H   -0.000288
     7  H   -0.021913
     8  H   -0.048094
     9  H   -0.000288
    10  H   -0.045777
    11  H   -0.058169
    12  H    0.174241
 Sum of Mulliken charges =  -0.00000

 Dipole moment (field-independent basis, Debye):
    X=             -0.0000    Y=             -0.0000    Z=              0.0000  Tot=              0.0000
 Quadrupole moment (field-independent basis, Debye-Ang):
   XX=            -19.6435   YY=            -12.7934   ZZ=            -15.1945
   XY=              4.6639   XZ=             -0.0000   YZ=             -0.0000

 Normal termination of Gaussian 09 at Fri Feb 17 15:03:48 2017.
