 Gaussian 09, Revision E.01,
 Gaussian 09:  ES64L-G09RevE.01 30-Nov-2015

 ----------------------------------------------------------------------
 #rhf/gen scf(symm,tight,novaracc,noincfock,fulldiag) stable(crhf) gues
 s=read geom=nocrowd test
 ----------------------------------------------------------------------

 ----------------------------------------------------------------------
 hf stability analysis of h12 triangular lattice, y= 1.1454817383776770
 ----------------------------------------------------------------------
 Symbolic Z-matrix:
 Charge =  0 Multiplicity = 1

                         Standard orientation:
 ---------------------------------------------------------------------
 Center     Atomic      Atomic             Coordinates (Angstroms)
 Number     Number       Type             X           Y           Z
 ---------------------------------------------------------------------
      1          1           0        0.922678    2.722678   -0.000000
      2          1           0        0.000000    1.877200   -0.000000
      3          1           0        0.922678    1.471212   -0.000000
      4          1           0        0.000000    0.625733   -0.000000
      5          1           0       -0.922678    1.031721   -0.000000
      6          1           0       -0.922678   -0.219745   -0.000000
      7          1           0       -0.922678   -1.471212   -0.000000
      8          1           0       -0.000000   -0.625733   -0.000000
      9          1           0        0.922678    0.219745    0.000000
     10          1           0        0.922678   -1.031721    0.000000
     11          1           0       -0.000000   -1.877200   -0.000000
     12          1           0       -0.922678   -2.722678   -0.000000
 ---------------------------------------------------------------------

 SCF Done:  E(RHF) =  -5.40091613497     A.U. after   17 cycles
 E2 =    -0.3202047524D+00 EUMP2 =    -0.57211208873663D+01

 The electronic state is 1-AG.
 Alpha  occ. eigenvalues --   -0.96506  -0.77269  -0.57856  -0.54417  -0.32669
 Alpha  occ. eigenvalues --   -0.06978
 Alpha virt. eigenvalues --   -0.16820   0.20792   0.21550   0.27408   0.50402
 Alpha virt. eigenvalues --    0.52986

 Mulliken charges:
               1
     1  H   -0.030306
     2  H    0.023740
     3  H   -0.098151
     4  H    0.128019
     5  H   -0.103514
     6  H    0.080212
     7  H   -0.098151
     8  H    0.128019
     9  H    0.080212
    10  H   -0.103514
    11  H    0.023740
    12  H   -0.030306
 Sum of Mulliken charges =   0.00000

 Dipole moment (field-independent basis, Debye):
    X=              0.0000    Y=             -0.0000    Z=              0.0000  Tot=              0.0000
 Quadrupole moment (field-independent basis, Debye-Ang):
   XX=            -19.0691   YY=            -23.4990   ZZ=            -15.0471
   XY=             -1.1919   XZ=             -0.0000   YZ=             -0.0000

 Normal termination of Gaussian 09 at Fri Feb 17 15:06:37 2017.
