 Gaussian 09, Revision E.01,
 Gaussian 09:  ES64L-G09RevE.01 30-Nov-2015

 ----------------------------------------------------------------------
 #rhf/gen scf(symm,tight,novaracc,noincfock,fulldiag) stable(crhf) gues
 s=read geom=nocrowd test
 ----------------------------------------------------------------------

 hf stability analysis of h12 triangular lattice, y= 0.5860779187036555
 5
 ----------------------------------------------------------------------
 Symbolic Z-matrix:
 Charge =  0 Multiplicity = 1

                         Standard orientation:
 ---------------------------------------------------------------------
 Center     Atomic      Atomic             Coordinates (Angstroms)
 Number     Number       Type             X           Y           Z
 ---------------------------------------------------------------------
      1          1           0        1.007358    1.172448   -0.000000
      2          1           0        0.000000    1.719399    0.000000
      3          1           0        1.007358    0.026182   -0.000000
      4          1           0        0.000000    0.573133    0.000000
      5          1           0       -1.007358    2.266350    0.000000
      6          1           0       -1.007358    1.120084    0.000000
      7          1           0       -1.007358   -0.026182   -0.000000
      8          1           0       -0.000000   -0.573133    0.000000
      9          1           0        1.007358   -1.120084    0.000000
     10          1           0        1.007358   -2.266350    0.000000
     11          1           0       -0.000000   -1.719399    0.000000
     12          1           0       -1.007358   -1.172448   -0.000000
 ---------------------------------------------------------------------

 SCF Done:  E(RHF) =  -5.60123978717     A.U. after   11 cycles
 E2 =    -0.1534083441D+00 EUMP2 =    -0.57546481312469D+01

 The electronic state is 1-AG.
 Alpha  occ. eigenvalues --   -0.90032  -0.75427  -0.58338  -0.53691  -0.33596
 Alpha  occ. eigenvalues --   -0.14254
 Alpha virt. eigenvalues --   -0.07733   0.21607   0.24689   0.40932   0.62793
 Alpha virt. eigenvalues --    0.64407

 Mulliken charges:
               1
     1  H   -0.148884
     2  H   -0.062487
     3  H    0.003450
     4  H   -0.032368
     5  H    0.258742
     6  H   -0.018453
     7  H    0.003450
     8  H   -0.032368
     9  H   -0.018453
    10  H    0.258742
    11  H   -0.062487
    12  H   -0.148884
 Sum of Mulliken charges =   0.00000

 Dipole moment (field-independent basis, Debye):
    X=             -0.0000    Y=              0.0000    Z=              0.0000  Tot=              0.0000
 Quadrupole moment (field-independent basis, Debye-Ang):
   XX=            -20.3152   YY=             -7.0051   ZZ=            -15.1835
   XY=             -8.5330   XZ=             -0.0000   YZ=              0.0000

 Normal termination of Gaussian 09 at Fri Feb 17 14:59:06 2017.
