 Gaussian 09, Revision E.01,
 Gaussian 09:  ES64L-G09RevE.01 30-Nov-2015

 ----------------------------------------------------------------------
 #rhf/gen scf(symm,tight,novaracc,noincfock,fulldiag) stable(crhf) gues
 s=read geom=nocrowd test
 ----------------------------------------------------------------------

 ----------------------------------------------------------------------
 hf stability analysis of h12 triangular lattice, y= 1.9367771983277440
 ----------------------------------------------------------------------
 Symbolic Z-matrix:
 Charge =  0 Multiplicity = 1

                         Standard orientation:
 ---------------------------------------------------------------------
 Center     Atomic      Atomic             Coordinates (Angstroms)
 Number     Number       Type             X           Y           Z
 ---------------------------------------------------------------------
      1          1           0        0.589258    4.808264    0.000000
      2          1           0        0.000000    2.939376    0.000000
      3          1           0        0.589258    2.848680    0.000000
      4          1           0        0.000000    0.979792    0.000000
      5          1           0       -0.589258    1.070487   -0.000000
      6          1           0       -0.589258   -0.889096   -0.000000
      7          1           0       -0.589258   -2.848680    0.000000
      8          1           0       -0.000000   -0.979792    0.000000
      9          1           0        0.589258    0.889096   -0.000000
     10          1           0        0.589258   -1.070487    0.000000
     11          1           0       -0.000000   -2.939376    0.000000
     12          1           0       -0.589258   -4.808264    0.000000
 ---------------------------------------------------------------------

 SCF Done:  E(RHF) =  -5.13604944181     A.U. after   10 cycles
 E2 =    -0.8888937246D+00 EUMP2 =    -0.60249431663822D+01

 The electronic state is 1-AG.
 Alpha  occ. eigenvalues --   -0.87447  -0.83106  -0.67418  -0.66804  -0.19458
 Alpha  occ. eigenvalues --   -0.17811
 Alpha virt. eigenvalues --   -0.13925  -0.05594   0.53770   0.54426   1.07694
 Alpha virt. eigenvalues --    1.22583

 Mulliken charges:
               1
     1  H   -0.006277
     2  H   -0.002971
     3  H   -0.011556
     4  H   -0.359645
     5  H    0.177853
     6  H    0.202595
     7  H   -0.011556
     8  H   -0.359645
     9  H    0.202595
    10  H    0.177853
    11  H   -0.002971
    12  H   -0.006277
 Sum of Mulliken charges =   0.00000

 Dipole moment (field-independent basis, Debye):
    X=              0.0000    Y=              0.0000    Z=             -0.0000  Tot=              0.0000
 Quadrupole moment (field-independent basis, Debye-Ang):
   XX=            -15.0591   YY=            -22.3617   ZZ=            -15.0844
   XY=             -0.4427   XZ=              0.0000   YZ=              0.0000

 Normal termination of Gaussian 09 at Fri Feb 17 15:09:34 2017.
