 Gaussian 09, Revision E.01,
 Gaussian 09:  ES64L-G09RevE.01 30-Nov-2015

 ----------------------------------------------------------------------
 #rhf/gen scf(symm,tight,novaracc,noincfock,fulldiag) stable(crhf) gues
 s=read geom=nocrowd test
 ----------------------------------------------------------------------

 hf stability analysis of h12 triangular lattice, y= 0.4799368795303601
 3
 ----------------------------------------------------------------------
 Symbolic Z-matrix:
 Charge =  0 Multiplicity = 1

                         Standard orientation:
 ---------------------------------------------------------------------
 Center     Atomic      Atomic             Coordinates (Angstroms)
 Number     Number       Type             X           Y           Z
 ---------------------------------------------------------------------
      1          1           0        0.891540    1.003276    0.000000
      2          1           0        0.000000    1.942763    0.000000
      3          1           0        0.891540   -0.291899    0.000000
      4          1           0        0.000000    0.647588    0.000000
      5          1           0       -0.891540    2.882250   -0.000000
      6          1           0       -0.891540    1.587075   -0.000000
      7          1           0       -0.891540    0.291899    0.000000
      8          1           0       -0.000000   -0.647588   -0.000000
      9          1           0        0.891540   -1.587075   -0.000000
     10          1           0        0.891540   -2.882250   -0.000000
     11          1           0       -0.000000   -1.942763   -0.000000
     12          1           0       -0.891540   -1.003276    0.000000
 ---------------------------------------------------------------------

 SCF Done:  E(RHF) =  -5.40581520080     A.U. after   15 cycles
 E2 =    -0.3945123835D+00 EUMP2 =    -0.58003275842873D+01

 The electronic state is 1-AG.
 Alpha  occ. eigenvalues --   -0.95599  -0.77307  -0.55792  -0.55453  -0.31404
 Alpha  occ. eigenvalues --   -0.09631
 Alpha virt. eigenvalues --   -0.19035   0.13754   0.26983   0.28657   0.51048
 Alpha virt. eigenvalues --    0.55746

 Mulliken charges:
               1
     1  H   -0.121603
     2  H    0.054605
     3  H    0.088772
     4  H    0.111136
     5  H   -0.036124
     6  H   -0.096786
     7  H    0.088772
     8  H    0.111136
     9  H   -0.096786
    10  H   -0.036124
    11  H    0.054605
    12  H   -0.121603
 Sum of Mulliken charges =   0.00000

 Dipole moment (field-independent basis, Debye):
    X=             -0.0000    Y=              0.0000    Z=              0.0000  Tot=              0.0000
 Quadrupole moment (field-independent basis, Debye-Ang):
   XX=            -19.1839   YY=            -23.2896   ZZ=            -15.0926
   XY=              1.1286   XZ=              0.0000   YZ=             -0.0000

 Normal termination of Gaussian 09 at Fri Feb 17 14:57:16 2017.
