 Gaussian 09, Revision E.01,
 Gaussian 09:  ES64L-G09RevE.01 30-Nov-2015

 ----------------------------------------------------------------------
 #rhf/gen scf(symm,tight,novaracc,noincfock,fulldiag) stable(crhf) gues
 s=read geom=nocrowd test
 ----------------------------------------------------------------------

 hf stability analysis of h12 triangular lattice, y= 0.5715322184328752
 7
 ----------------------------------------------------------------------
 Symbolic Z-matrix:
 Charge =  0 Multiplicity = 1

                         Standard orientation:
 ---------------------------------------------------------------------
 Center     Atomic      Atomic             Coordinates (Angstroms)
 Number     Number       Type             X           Y           Z
 ---------------------------------------------------------------------
      1          1           0        0.994873    1.143198   -0.000000
      2          1           0        0.000000    1.740977   -0.000000
      3          1           0        0.994873   -0.017454    0.000000
      4          1           0        0.000000    0.580326   -0.000000
      5          1           0       -0.994873    2.338757   -0.000000
      6          1           0       -0.994873    1.178106   -0.000000
      7          1           0       -0.994873    0.017454    0.000000
      8          1           0       -0.000000   -0.580326   -0.000000
      9          1           0        0.994873   -1.178106   -0.000000
     10          1           0        0.994873   -2.338757   -0.000000
     11          1           0       -0.000000   -1.740977   -0.000000
     12          1           0       -0.994873   -1.143198    0.000000
 ---------------------------------------------------------------------

 SCF Done:  E(RHF) =  -5.54631848336     A.U. after   12 cycles
 E2 =    -0.1628355479D+00 EUMP2 =    -0.57091540312609D+01

 The electronic state is 1-AG.
 Alpha  occ. eigenvalues --   -0.89428  -0.75299  -0.56989  -0.54143  -0.32283
 Alpha  occ. eigenvalues --   -0.11872
 Alpha virt. eigenvalues --   -0.09092   0.21968   0.22136   0.43448   0.58024
 Alpha virt. eigenvalues --    0.63779

 Mulliken charges:
               1
     1  H   -0.170252
     2  H   -0.065980
     3  H    0.000134
     4  H   -0.024275
     5  H    0.272819
     6  H   -0.012445
     7  H    0.000134
     8  H   -0.024275
     9  H   -0.012445
    10  H    0.272819
    11  H   -0.065980
    12  H   -0.170252
 Sum of Mulliken charges =   0.00000

 Dipole moment (field-independent basis, Debye):
    X=             -0.0000    Y=             -0.0000    Z=             -0.0000  Tot=              0.0000
 Quadrupole moment (field-independent basis, Debye-Ang):
   XX=            -20.4754   YY=             -5.5078   ZZ=            -15.1786
   XY=             -9.2555   XZ=              0.0000   YZ=              0.0000

 Normal termination of Gaussian 09 at Fri Feb 17 14:58:51 2017.
