 Gaussian 09, Revision E.01,
 Gaussian 09:  ES64L-G09RevE.01 30-Nov-2015

 ----------------------------------------------------------------------
 #rhf/gen scf(symm,tight,novaracc,noincfock,fulldiag) stable(crhf) gues
 s=read geom=nocrowd test
 ----------------------------------------------------------------------

 ----------------------------------------------------------------------
 hf stability analysis of h12 triangular lattice, y= 1.2680906370950717
 ----------------------------------------------------------------------
 Symbolic Z-matrix:
 Charge =  0 Multiplicity = 1

                         Standard orientation:
 ---------------------------------------------------------------------
 Center     Atomic      Atomic             Coordinates (Angstroms)
 Number     Number       Type             X           Y           Z
 ---------------------------------------------------------------------
      1          1           0        0.857018    3.060666    0.000000
      2          1           0        0.000000    2.021020    0.000000
      3          1           0        0.857018    1.713319    0.000000
      4          1           0        0.000000    0.673673    0.000000
      5          1           0       -0.857018    0.981374    0.000000
      6          1           0       -0.857018   -0.365973   -0.000000
      7          1           0       -0.857018   -1.713319    0.000000
      8          1           0       -0.000000   -0.673673    0.000000
      9          1           0        0.857018    0.365973   -0.000000
     10          1           0        0.857018   -0.981374   -0.000000
     11          1           0       -0.000000   -2.021020    0.000000
     12          1           0       -0.857018   -3.060666    0.000000
 ---------------------------------------------------------------------

 SCF Done:  E(RHF) =  -5.39115089807     A.U. after   13 cycles
 E2 =    -0.4963239368D+00 EUMP2 =    -0.58874748348955D+01

 The electronic state is 1-AG.
 Alpha  occ. eigenvalues --   -0.94308  -0.77309  -0.56753  -0.53352  -0.29760
 Alpha  occ. eigenvalues --   -0.12196
 Alpha virt. eigenvalues --   -0.21267   0.06654   0.30538   0.33329   0.49521
 Alpha virt. eigenvalues --    0.62212

 Mulliken charges:
               1
     1  H   -0.042121
     2  H    0.088610
     3  H   -0.086888
     4  H    0.078782
     5  H   -0.152475
     6  H    0.114092
     7  H   -0.086888
     8  H    0.078782
     9  H    0.114092
    10  H   -0.152475
    11  H    0.088610
    12  H   -0.042121
 Sum of Mulliken charges =   0.00000

 Dipole moment (field-independent basis, Debye):
    X=              0.0000    Y=             -0.0000    Z=             -0.0000  Tot=              0.0000
 Quadrupole moment (field-independent basis, Debye-Ang):
   XX=            -19.2096   YY=            -22.8390   ZZ=            -15.1280
   XY=             -0.8397   XZ=              0.0000   YZ=             -0.0000

 Normal termination of Gaussian 09 at Fri Feb 17 15:07:26 2017.
