 Gaussian 09, Revision E.01,
 Gaussian 09:  ES64L-G09RevE.01 30-Nov-2015

 ----------------------------------------------------------------------
 #rhf/gen scf(symm,tight,novaracc,noincfock,fulldiag) stable(crhf) gues
 s=read geom=nocrowd test
 ----------------------------------------------------------------------

 ----------------------------------------------------------------------
 hf stability analysis of h12 triangular lattice, y= 1.8330252138232914
 ----------------------------------------------------------------------
 Symbolic Z-matrix:
 Charge =  0 Multiplicity = 1

                         Standard orientation:
 ---------------------------------------------------------------------
 Center     Atomic      Atomic             Coordinates (Angstroms)
 Number     Number       Type             X           Y           Z
 ---------------------------------------------------------------------
      1          1           0        0.620844    4.543043    0.000000
      2          1           0        0.000000    2.789834    0.000000
      3          1           0        0.620844    2.683154    0.000000
      4          1           0        0.000000    0.929945    0.000000
      5          1           0       -0.620844    1.036625    0.000000
      6          1           0       -0.620844   -0.823264    0.000000
      7          1           0       -0.620844   -2.683154   -0.000000
      8          1           0       -0.000000   -0.929945   -0.000000
      9          1           0        0.620844    0.823264    0.000000
     10          1           0        0.620844   -1.036625   -0.000000
     11          1           0       -0.000000   -2.789834   -0.000000
     12          1           0       -0.620844   -4.543043   -0.000000
 ---------------------------------------------------------------------

 SCF Done:  E(RHF) =  -5.25484277278     A.U. after   11 cycles
 E2 =    -0.8306059038D+00 EUMP2 =    -0.60854486765395D+01

 The electronic state is 1-AG.
 Alpha  occ. eigenvalues --   -0.87040  -0.81191  -0.66126  -0.64888  -0.19074
 Alpha  occ. eigenvalues --   -0.18716
 Alpha virt. eigenvalues --   -0.12879  -0.07663   0.51347   0.52387   0.97816
 Alpha virt. eigenvalues --    1.14177

 Mulliken charges:
               1
     1  H   -0.013567
     2  H   -0.001793
     3  H   -0.014796
     4  H   -0.312688
     5  H    0.151254
     6  H    0.191591
     7  H   -0.014796
     8  H   -0.312688
     9  H    0.191591
    10  H    0.151254
    11  H   -0.001793
    12  H   -0.013567
 Sum of Mulliken charges =  -0.00000

 Dipole moment (field-independent basis, Debye):
    X=             -0.0000    Y=             -0.0000    Z=              0.0000  Tot=              0.0000
 Quadrupole moment (field-independent basis, Debye-Ang):
   XX=            -14.8077   YY=            -24.1852   ZZ=            -15.0262
   XY=             -0.7470   XZ=             -0.0000   YZ=             -0.0000

 Normal termination of Gaussian 09 at Fri Feb 17 15:09:22 2017.
