 Gaussian 09, Revision E.01,
 Gaussian 09:  ES64L-G09RevE.01 30-Nov-2015

 ----------------------------------------------------------------------
 #rhf/gen scf(symm,tight,novaracc,noincfock,fulldiag) stable(crhf) gues
 s=read geom=nocrowd test
 ----------------------------------------------------------------------

 ----------------------------------------------------------------------
 hf stability analysis of h12 triangular lattice, y= 1.1879529318790409
 ----------------------------------------------------------------------
 Symbolic Z-matrix:
 Charge =  0 Multiplicity = 1

                         Standard orientation:
 ---------------------------------------------------------------------
 Center     Atomic      Atomic             Coordinates (Angstroms)
 Number     Number       Type             X           Y           Z
 ---------------------------------------------------------------------
      1          1           0        0.899633    2.840759   -0.000000
      2          1           0        0.000000    1.925285   -0.000000
      3          1           0        0.899633    1.557235   -0.000000
      4          1           0        0.000000    0.641762   -0.000000
      5          1           0       -0.899633    1.009811   -0.000000
      6          1           0       -0.899633   -0.273712   -0.000000
      7          1           0       -0.899633   -1.557235    0.000000
      8          1           0       -0.000000   -0.641762   -0.000000
      9          1           0        0.899633    0.273712   -0.000000
     10          1           0        0.899633   -1.009811   -0.000000
     11          1           0       -0.000000   -1.925285   -0.000000
     12          1           0       -0.899633   -2.840759    0.000000
 ---------------------------------------------------------------------

 SCF Done:  E(RHF) =  -5.40618927995     A.U. after   17 cycles
 E2 =    -0.3735456759D+00 EUMP2 =    -0.57797349558171D+01

 The electronic state is 1-AG.
 Alpha  occ. eigenvalues --   -0.95883  -0.77310  -0.56364  -0.55172  -0.31780
 Alpha  occ. eigenvalues --   -0.08945
 Alpha virt. eigenvalues --   -0.18475   0.15563   0.25520   0.28250   0.51499
 Alpha virt. eigenvalues --    0.54281

 Mulliken charges:
               1
     1  H   -0.035704
     2  H    0.047427
     3  H   -0.099115
     4  H    0.116022
     5  H   -0.115669
     6  H    0.087039
     7  H   -0.099115
     8  H    0.116022
     9  H    0.087039
    10  H   -0.115669
    11  H    0.047427
    12  H   -0.035704
 Sum of Mulliken charges =   0.00000

 Dipole moment (field-independent basis, Debye):
    X=             -0.0000    Y=             -0.0000    Z=              0.0000  Tot=              0.0000
 Quadrupole moment (field-independent basis, Debye-Ang):
   XX=            -19.1499   YY=            -23.4548   ZZ=            -15.0811
   XY=             -1.2092   XZ=              0.0000   YZ=              0.0000

 Normal termination of Gaussian 09 at Fri Feb 17 15:06:56 2017.
