 Gaussian 09, Revision E.01,
 Gaussian 09:  ES64L-G09RevE.01 30-Nov-2015

 ----------------------------------------------------------------------
 #rhf/gen scf(symm,tight,novaracc,noincfock,fulldiag) stable(crhf) gues
 s=read geom=nocrowd test
 ----------------------------------------------------------------------

 hf stability analysis of h12 triangular lattice, y= 0.4490208748124050
 5
 ----------------------------------------------------------------------
 Symbolic Z-matrix:
 Charge =  0 Multiplicity = 1

                         Standard orientation:
 ---------------------------------------------------------------------
 Center     Atomic      Atomic             Coordinates (Angstroms)
 Number     Number       Type             X           Y           Z
 ---------------------------------------------------------------------
      1          1           0        0.847831    0.977049   -0.000000
      2          1           0        0.000000    2.042919   -0.000000
      3          1           0        0.847831   -0.384897    0.000000
      4          1           0        0.000000    0.680973   -0.000000
      5          1           0       -0.847831    3.108789   -0.000000
      6          1           0       -0.847831    1.746843   -0.000000
      7          1           0       -0.847831    0.384897    0.000000
      8          1           0       -0.000000   -0.680973   -0.000000
      9          1           0        0.847831   -1.746843   -0.000000
     10          1           0        0.847831   -3.108789   -0.000000
     11          1           0       -0.000000   -2.042919   -0.000000
     12          1           0       -0.847831   -0.977049    0.000000
 ---------------------------------------------------------------------

 SCF Done:  E(RHF) =  -5.38428774644     A.U. after   14 cycles
 E2 =    -0.5557684224D+00 EUMP2 =    -0.59400561688277D+01

 The electronic state is 1-AG.
 Alpha  occ. eigenvalues --   -0.93960  -0.77325  -0.57147  -0.52737  -0.29333
 Alpha  occ. eigenvalues --   -0.12721
 Alpha virt. eigenvalues --   -0.21798   0.04972   0.31094   0.34999   0.49264
 Alpha virt. eigenvalues --    0.63965

 Mulliken charges:
               1
     1  H   -0.161566
     2  H    0.099811
     3  H    0.131310
     4  H    0.063202
     5  H   -0.046707
     6  H   -0.086049
     7  H    0.131310
     8  H    0.063202
     9  H   -0.086049
    10  H   -0.046707
    11  H    0.099811
    12  H   -0.161566
 Sum of Mulliken charges =  -0.00000

 Dipole moment (field-independent basis, Debye):
    X=             -0.0000    Y=             -0.0000    Z=              0.0000  Tot=              0.0000
 Quadrupole moment (field-independent basis, Debye-Ang):
   XX=            -19.1307   YY=            -23.0196   ZZ=            -15.1298
   XY=              0.8517   XZ=              0.0000   YZ=              0.0000

 Normal termination of Gaussian 09 at Fri Feb 17 14:56:44 2017.
