 Gaussian 09, Revision E.01,
 Gaussian 09:  ES64L-G09RevE.01 30-Nov-2015

 ----------------------------------------------------------------------
 #rhf/gen scf(symm,tight,novaracc,noincfock,fulldiag) stable(crhf) gues
 s=read geom=nocrowd test
 ----------------------------------------------------------------------

 ----------------------------------------------------------------------
 hf stability analysis of h12 triangular lattice, y= 1.0587704668665670
 ----------------------------------------------------------------------
 Symbolic Z-matrix:
 Charge =  0 Multiplicity = 1

                         Standard orientation:
 ---------------------------------------------------------------------
 Center     Atomic      Atomic             Coordinates (Angstroms)
 Number     Number       Type             X           Y           Z
 ---------------------------------------------------------------------
      1          1           0        0.969567    2.478003   -0.000000
      2          1           0        0.000000    1.786417   -0.000000
      3          1           0        0.969567    1.287058   -0.000000
      4          1           0        0.000000    0.595472   -0.000000
      5          1           0       -0.969567    1.094832   -0.000000
      6          1           0       -0.969567   -0.096113   -0.000000
      7          1           0       -0.969567   -1.287058   -0.000000
      8          1           0       -0.000000   -0.595472   -0.000000
      9          1           0        0.969567    0.096113   -0.000000
     10          1           0        0.969567   -1.094832   -0.000000
     11          1           0       -0.000000   -1.786417   -0.000000
     12          1           0       -0.969567   -2.478003   -0.000000
 ---------------------------------------------------------------------

 SCF Done:  E(RHF) =  -5.43644363849     A.U. after   16 cycles
 E2 =    -0.1691015625D+00 EUMP2 =    -0.56055452009491D+01

 The electronic state is 1-AG.
 Alpha  occ. eigenvalues --   -0.90007  -0.75244  -0.55493  -0.54555  -0.30055
 Alpha  occ. eigenvalues --   -0.07623
 Alpha virt. eigenvalues --   -0.12178   0.18019   0.23031   0.42465   0.51492
 Alpha virt. eigenvalues --    0.61087

 Mulliken charges:
               1
     1  H    0.243693
     2  H   -0.087191
     3  H    0.013373
     4  H    0.044187
     5  H   -0.182595
     6  H   -0.031467
     7  H    0.013373
     8  H    0.044187
     9  H   -0.031467
    10  H   -0.182595
    11  H   -0.087191
    12  H    0.243693
 Sum of Mulliken charges =  -0.00000

 Dipole moment (field-independent basis, Debye):
    X=             -0.0000    Y=             -0.0000    Z=              0.0000  Tot=              0.0000
 Quadrupole moment (field-independent basis, Debye-Ang):
   XX=            -20.4189   YY=             -6.1331   ZZ=            -15.1358
   XY=              8.6793   XZ=             -0.0000   YZ=             -0.0000

 Normal termination of Gaussian 09 at Fri Feb 17 15:05:53 2017.
