 Gaussian 09, Revision E.01,
 Gaussian 09:  ES64L-G09RevE.01 30-Nov-2015

 ----------------------------------------------------------------------
 #rhf/gen scf(symm,tight,novaracc,noincfock,fulldiag) stable(crhf) gues
 s=read geom=nocrowd test
 ----------------------------------------------------------------------

 hf stability analysis of h12 triangular lattice, y= 0.5070038553873883
 5
 ----------------------------------------------------------------------
 Symbolic Z-matrix:
 Charge =  0 Multiplicity = 1

                         Standard orientation:
 ---------------------------------------------------------------------
 Center     Atomic      Atomic             Coordinates (Angstroms)
 Number     Number       Type             X           Y           Z
 ---------------------------------------------------------------------
      1          1           0        0.926342    1.035692    0.000000
      2          1           0        0.000000    1.869774    0.000000
      3          1           0        0.926342   -0.210824   -0.000000
      4          1           0        0.000000    0.623258    0.000000
      5          1           0       -0.926342    2.703857    0.000000
      6          1           0       -0.926342    1.457340    0.000000
      7          1           0       -0.926342    0.210824    0.000000
      8          1           0       -0.000000   -0.623258    0.000000
      9          1           0        0.926342   -1.457340   -0.000000
     10          1           0        0.926342   -2.703857   -0.000000
     11          1           0       -0.000000   -1.869774    0.000000
     12          1           0       -0.926342   -1.035692    0.000000
 ---------------------------------------------------------------------

 SCF Done:  E(RHF) =  -5.39942074625     A.U. after   21 cycles
 E2 =    -0.3106451009D+00 EUMP2 =    -0.57100658471515D+01

 The electronic state is 1-AG.
 Alpha  occ. eigenvalues --   -0.96532  -0.77238  -0.58036  -0.54308  -0.32739
 Alpha  occ. eigenvalues --   -0.06701
 Alpha virt. eigenvalues --   -0.16548   0.20973   0.21560   0.27423   0.49879
 Alpha virt. eigenvalues --    0.53273

 Mulliken charges:
               1
     1  H   -0.102818
     2  H    0.018474
     3  H    0.077342
     4  H    0.129620
     5  H   -0.027077
     6  H   -0.095541
     7  H    0.077342
     8  H    0.129620
     9  H   -0.095541
    10  H   -0.027077
    11  H    0.018474
    12  H   -0.102818
 Sum of Mulliken charges =   0.00000

 Dipole moment (field-independent basis, Debye):
    X=              0.0000    Y=             -0.0000    Z=             -0.0000  Tot=              0.0000
 Quadrupole moment (field-independent basis, Debye-Ang):
   XX=            -19.0689   YY=            -23.3204   ZZ=            -15.0423
   XY=              1.0851   XZ=              0.0000   YZ=             -0.0000

 Normal termination of Gaussian 09 at Fri Feb 17 14:57:43 2017.
