 Gaussian 09, Revision E.01,
 Gaussian 09:  ES64L-G09RevE.01 30-Nov-2015

 ----------------------------------------------------------------------
 #rhf/gen scf(symm,tight,novaracc,noincfock,fulldiag) stable(crhf) gues
 s=read geom=nocrowd test
 ----------------------------------------------------------------------

 ----------------------------------------------------------------------
 hf stability analysis of h12 triangular lattice, y= 2.2086216254199424
 ----------------------------------------------------------------------
 Symbolic Z-matrix:
 Charge =  0 Multiplicity = 1

                         Standard orientation:
 ---------------------------------------------------------------------
 Center     Atomic      Atomic             Coordinates (Angstroms)
 Number     Number       Type             X           Y           Z
 ---------------------------------------------------------------------
      1          1           0        0.519191    5.498644   -0.000000
      2          1           0        0.000000    3.336056   -0.000000
      3          1           0        0.519191    3.274606   -0.000000
      4          1           0        0.000000    1.112019   -0.000000
      5          1           0       -0.519191    1.173469   -0.000000
      6          1           0       -0.519191   -1.050568   -0.000000
      7          1           0       -0.519191   -3.274606    0.000000
      8          1           0       -0.000000   -1.112019    0.000000
      9          1           0        0.519191    1.050568   -0.000000
     10          1           0        0.519191   -1.173469    0.000000
     11          1           0       -0.000000   -3.336056    0.000000
     12          1           0       -0.519191   -5.498644    0.000000
 ---------------------------------------------------------------------

 SCF Done:  E(RHF) =  -4.71671747486     A.U. after   10 cycles
 E2 =    -0.1027309451D+01 EUMP2 =    -0.57440269258011D+01

 The electronic state is 1-AG.
 Alpha  occ. eigenvalues --   -0.89789  -0.88626  -0.70311  -0.70248  -0.20302
 Alpha  occ. eigenvalues --   -0.15046
 Alpha virt. eigenvalues --   -0.15501  -0.01317   0.59680   0.59869   1.32497
 Alpha virt. eigenvalues --    1.43844

 Mulliken charges:
               1
     1  H    0.000532
     2  H   -0.002795
     3  H   -0.005957
     4  H   -0.509685
     5  H    0.256766
     6  H    0.261138
     7  H   -0.005957
     8  H   -0.509685
     9  H    0.261138
    10  H    0.256766
    11  H   -0.002795
    12  H    0.000532
 Sum of Mulliken charges =   0.00000

 Dipole moment (field-independent basis, Debye):
    X=              0.0000    Y=             -0.0000    Z=             -0.0000  Tot=              0.0000
 Quadrupole moment (field-independent basis, Debye-Ang):
   XX=            -15.6280   YY=            -19.3351   ZZ=            -15.2002
   XY=             -0.0639   XZ=             -0.0000   YZ=              0.0000

 Normal termination of Gaussian 09 at Fri Feb 17 15:09:57 2017.
