 Gaussian 09, Revision E.01,
 Gaussian 09:  ES64L-G09RevE.01 30-Nov-2015

 ----------------------------------------------------------------------
 #rhf/gen scf(symm,tight,novaracc,noincfock,fulldiag) stable(crhf) gues
 s=read geom=nocrowd test
 ----------------------------------------------------------------------

 ----------------------------------------------------------------------
 hf stability analysis of h12 triangular lattice, y= 1.1321087319861824
 ----------------------------------------------------------------------
 Symbolic Z-matrix:
 Charge =  0 Multiplicity = 1

                         Standard orientation:
 ---------------------------------------------------------------------
 Center     Atomic      Atomic             Coordinates (Angstroms)
 Number     Number       Type             X           Y           Z
 ---------------------------------------------------------------------
      1          1           0        0.929957    2.685263   -0.000000
      2          1           0        0.000000    1.862507   -0.000000
      3          1           0        0.929957    1.443592   -0.000000
      4          1           0        0.000000    0.620836   -0.000000
      5          1           0       -0.929957    1.039751   -0.000000
      6          1           0       -0.929957   -0.201921   -0.000000
      7          1           0       -0.929957   -1.443592    0.000000
      8          1           0       -0.000000   -0.620836    0.000000
      9          1           0        0.929957    0.201921   -0.000000
     10          1           0        0.929957   -1.039751   -0.000000
     11          1           0       -0.000000   -1.862507    0.000000
     12          1           0       -0.929957   -2.685263    0.000000
 ---------------------------------------------------------------------

 SCF Done:  E(RHF) =  -5.39790750448     A.U. after   17 cycles
 E2 =    -0.3000752384D+00 EUMP2 =    -0.56979827428739D+01

 The electronic state is 1-AG.
 Alpha  occ. eigenvalues --   -0.96506  -0.77188  -0.58176  -0.54208  -0.32762
 Alpha  occ. eigenvalues --   -0.06458
 Alpha virt. eigenvalues --   -0.16277   0.20435   0.22249   0.27556   0.49419
 Alpha virt. eigenvalues --    0.53588

 Mulliken charges:
               1
     1  H   -0.022107
     2  H    0.012340
     3  H   -0.091709
     4  H    0.130950
     5  H   -0.102807
     6  H    0.073334
     7  H   -0.091709
     8  H    0.130950
     9  H    0.073334
    10  H   -0.102807
    11  H    0.012340
    12  H   -0.022107
 Sum of Mulliken charges =  -0.00000

 Dipole moment (field-independent basis, Debye):
    X=              0.0000    Y=             -0.0000    Z=              0.0000  Tot=              0.0000
 Quadrupole moment (field-independent basis, Debye-Ang):
   XX=            -19.0774   YY=            -23.0181   ZZ=            -15.0383
   XY=             -0.9106   XZ=              0.0000   YZ=              0.0000

 Normal termination of Gaussian 09 at Fri Feb 17 15:06:31 2017.
