 Gaussian 09, Revision E.01,
 Gaussian 09:  ES64L-G09RevE.01 30-Nov-2015

 ----------------------------------------------------------------------
 #rhf/gen scf(symm,tight,novaracc,noincfock,fulldiag) stable(crhf) gues
 s=read geom=nocrowd test
 ----------------------------------------------------------------------

 ----------------------------------------------------------------------
 hf stability analysis of h12 triangular lattice, y= 2.2960291063410230
 ----------------------------------------------------------------------
 Symbolic Z-matrix:
 Charge =  0 Multiplicity = 1

                         Standard orientation:
 ---------------------------------------------------------------------
 Center     Atomic      Atomic             Coordinates (Angstroms)
 Number     Number       Type             X           Y           Z
 ---------------------------------------------------------------------
      1          1           0        0.499923    5.719643   -0.000000
      2          1           0        0.000000    3.464636   -0.000000
      3          1           0        0.499923    3.409886   -0.000000
      4          1           0        0.000000    1.154879   -0.000000
      5          1           0       -0.499923    1.209629   -0.000000
      6          1           0       -0.499923   -1.100128   -0.000000
      7          1           0       -0.499923   -3.409886   -0.000000
      8          1           0       -0.000000   -1.154879   -0.000000
      9          1           0        0.499923    1.100128   -0.000000
     10          1           0        0.499923   -1.209629   -0.000000
     11          1           0       -0.000000   -3.464636   -0.000000
     12          1           0       -0.499923   -5.719643   -0.000000
 ---------------------------------------------------------------------

 SCF Done:  E(RHF) =  -4.55646698562     A.U. after   10 cycles
 E2 =    -0.1070133343D+01 EUMP2 =    -0.56266003287943D+01

 The electronic state is 1-AG.
 Alpha  occ. eigenvalues --   -0.90782  -0.90348  -0.71100  -0.71077  -0.20414
 Alpha  occ. eigenvalues --   -0.14180
 Alpha virt. eigenvalues --   -0.15801  -0.00167   0.61484   0.61610   1.40244
 Alpha virt. eigenvalues --    1.50599

 Mulliken charges:
               1
     1  H    0.001074
     2  H   -0.002450
     3  H   -0.004791
     4  H   -0.564887
     5  H    0.284854
     6  H    0.286201
     7  H   -0.004791
     8  H   -0.564887
     9  H    0.286201
    10  H    0.284854
    11  H   -0.002450
    12  H    0.001074
 Sum of Mulliken charges =  -0.00000

 Dipole moment (field-independent basis, Debye):
    X=              0.0000    Y=             -0.0000    Z=             -0.0000  Tot=              0.0000
 Quadrupole moment (field-independent basis, Debye-Ang):
   XX=            -15.7795   YY=            -18.7073   ZZ=            -15.2256
   XY=             -0.0090   XZ=              0.0000   YZ=             -0.0000

 Normal termination of Gaussian 09 at Fri Feb 17 15:10:02 2017.
