 Gaussian 09, Revision E.01,
 Gaussian 09:  ES64L-G09RevE.01 30-Nov-2015

 ----------------------------------------------------------------------
 #rhf/gen scf(symm,tight,novaracc,noincfock,fulldiag) stable(crhf) gues
 s=read geom=nocrowd test
 ----------------------------------------------------------------------

 ----------------------------------------------------------------------
 hf stability analysis of h12 triangular lattice, y= 1.6845675376176648
 ----------------------------------------------------------------------
 Symbolic Z-matrix:
 Charge =  0 Multiplicity = 1

                         Standard orientation:
 ---------------------------------------------------------------------
 Center     Atomic      Atomic             Coordinates (Angstroms)
 Number     Number       Type             X           Y           Z
 ---------------------------------------------------------------------
      1          1           0        0.671697    4.161038   -0.000000
      2          1           0        0.000000    2.578618   -0.000000
      3          1           0        0.671697    2.441959   -0.000000
      4          1           0        0.000000    0.859539   -0.000000
      5          1           0       -0.671697    0.996198   -0.000000
      6          1           0       -0.671697   -0.722881    0.000000
      7          1           0       -0.671697   -2.441959   -0.000000
      8          1           0       -0.000000   -0.859539   -0.000000
      9          1           0        0.671697    0.722881    0.000000
     10          1           0        0.671697   -0.996198   -0.000000
     11          1           0       -0.000000   -2.578618   -0.000000
     12          1           0       -0.671697   -4.161038   -0.000000
 ---------------------------------------------------------------------

 SCF Done:  E(RHF) =  -5.37139608011     A.U. after   11 cycles
 E2 =    -0.7364204520D+00 EUMP2 =    -0.61078165321523D+01

 The electronic state is 1-AG.
 Alpha  occ. eigenvalues --   -0.87227  -0.79091  -0.64143  -0.61225  -0.21101
 Alpha  occ. eigenvalues --   -0.17209
 Alpha virt. eigenvalues --   -0.11469  -0.10425   0.47590   0.49561   0.83081
 Alpha virt. eigenvalues --    1.01507

 Mulliken charges:
               1
     1  H   -0.034677
     2  H    0.003731
     3  H   -0.021148
     4  H   -0.257143
     5  H    0.115653
     6  H    0.193585
     7  H   -0.021148
     8  H   -0.257143
     9  H    0.193585
    10  H    0.115653
    11  H    0.003731
    12  H   -0.034677
 Sum of Mulliken charges =   0.00000

 Dipole moment (field-independent basis, Debye):
    X=             -0.0000    Y=              0.0000    Z=              0.0000  Tot=              0.0000
 Quadrupole moment (field-independent basis, Debye-Ang):
   XX=            -14.4424   YY=            -27.8284   ZZ=            -14.9339
   XY=             -1.4976   XZ=             -0.0000   YZ=             -0.0000

 Normal termination of Gaussian 09 at Fri Feb 17 15:09:04 2017.
