 Gaussian 09, Revision E.01,
 Gaussian 09:  ES64L-G09RevE.01 30-Nov-2015

 ----------------------------------------------------------------------
 #rhf/gen scf(symm,tight,novaracc,noincfock,fulldiag) stable(crhf) gues
 s=read geom=nocrowd test
 ----------------------------------------------------------------------

 hf stability analysis of h12 triangular lattice, y= 0.2937440693806230
 9
 ----------------------------------------------------------------------
 Symbolic Z-matrix:
 Charge =  0 Multiplicity = 1

                         Standard orientation:
 ---------------------------------------------------------------------
 Center     Atomic      Atomic             Coordinates (Angstroms)
 Number     Number       Type             X           Y           Z
 ---------------------------------------------------------------------
      1          1           0        0.581035    1.080494   -0.000000
      2          1           0        0.000000    2.980975   -0.000000
      3          1           0        0.581035   -0.906822   -0.000000
      4          1           0        0.000000    0.993658   -0.000000
      5          1           0       -0.581035    4.881455    0.000000
      6          1           0       -0.581035    2.894138    0.000000
      7          1           0       -0.581035    0.906822   -0.000000
      8          1           0       -0.000000   -0.993658    0.000000
      9          1           0        0.581035   -2.894138    0.000000
     10          1           0        0.581035   -4.881455    0.000000
     11          1           0       -0.000000   -2.980975    0.000000
     12          1           0       -0.581035   -1.080494   -0.000000
 ---------------------------------------------------------------------

 SCF Done:  E(RHF) =  -5.09857098701     A.U. after   11 cycles
 E2 =    -0.9042591722D+00 EUMP2 =    -0.60028301592063D+01

 The electronic state is 1-AG.
 Alpha  occ. eigenvalues --   -0.87619  -0.83673  -0.67757  -0.67259  -0.19598
 Alpha  occ. eigenvalues --   -0.17504
 Alpha virt. eigenvalues --   -0.14158  -0.05074   0.54420   0.54997   1.10379
 Alpha virt. eigenvalues --    1.24867

 Mulliken charges:
               1
     1  H    0.185553
     2  H   -0.003103
     3  H    0.206985
     4  H   -0.373733
     5  H   -0.004916
     6  H   -0.010786
     7  H    0.206985
     8  H   -0.373733
     9  H   -0.010786
    10  H   -0.004916
    11  H   -0.003103
    12  H    0.185553
 Sum of Mulliken charges =  -0.00000

 Dipole moment (field-independent basis, Debye):
    X=              0.0000    Y=              0.0000    Z=             -0.0000  Tot=              0.0000
 Quadrupole moment (field-independent basis, Debye-Ang):
   XX=            -15.1259   YY=            -21.9379   ZZ=            -15.0993
   XY=              0.3795   XZ=             -0.0000   YZ=              0.0000

 Normal termination of Gaussian 09 at Fri Feb 17 14:54:33 2017.
