 Gaussian 09, Revision E.01,
 Gaussian 09:  ES64L-G09RevE.01 30-Nov-2015

 ----------------------------------------------------------------------
 #rhf/gen scf(symm,tight,novaracc,noincfock,fulldiag) stable(crhf) gues
 s=read geom=nocrowd test
 ----------------------------------------------------------------------

 hf stability analysis of h12 triangular lattice, y= 0.5540600992415728
 5
 ----------------------------------------------------------------------
 Symbolic Z-matrix:
 Charge =  0 Multiplicity = 1

                         Standard orientation:
 ---------------------------------------------------------------------
 Center     Atomic      Atomic             Coordinates (Angstroms)
 Number     Number       Type             X           Y           Z
 ---------------------------------------------------------------------
      1          1           0        0.978412    1.110320   -0.000000
      2          1           0        0.000000    1.770267    0.000000
      3          1           0        0.978412   -0.069858   -0.000000
      4          1           0        0.000000    0.590089    0.000000
      5          1           0       -0.978412    2.430214    0.000000
      6          1           0       -0.978412    1.250036    0.000000
      7          1           0       -0.978412    0.069858   -0.000000
      8          1           0       -0.000000   -0.590089   -0.000000
      9          1           0        0.978412   -1.250036    0.000000
     10          1           0        0.978412   -2.430214   -0.000000
     11          1           0       -0.000000   -1.770267   -0.000000
     12          1           0       -0.978412   -1.110320   -0.000000
 ---------------------------------------------------------------------

 SCF Done:  E(RHF) =  -5.47242199907     A.U. after   14 cycles
 E2 =    -0.1481115217D+00 EUMP2 =    -0.56205335207286D+01

 The electronic state is 1-AG.
 Alpha  occ. eigenvalues --   -0.89113  -0.75193  -0.55510  -0.54573  -0.30607
 Alpha  occ. eigenvalues --   -0.08873
 Alpha virt. eigenvalues --   -0.10917   0.18931   0.22736   0.44812   0.53149
 Alpha virt. eigenvalues --    0.62518

 Mulliken charges:
               1
     1  H   -0.191561
     2  H   -0.077522
     3  H   -0.016791
     4  H    0.003479
     5  H    0.276863
     6  H    0.005532
     7  H   -0.016791
     8  H    0.003479
     9  H    0.005532
    10  H    0.276863
    11  H   -0.077522
    12  H   -0.191561
 Sum of Mulliken charges =  -0.00000

 Dipole moment (field-independent basis, Debye):
    X=              0.0000    Y=              0.0000    Z=              0.0000  Tot=              0.0000
 Quadrupole moment (field-independent basis, Debye-Ang):
   XX=            -20.6106   YY=             -4.3307   ZZ=            -15.1645
   XY=             -9.7603   XZ=             -0.0000   YZ=              0.0000

 Normal termination of Gaussian 09 at Fri Feb 17 14:58:32 2017.
