 Gaussian 09, Revision E.01,
 Gaussian 09:  ES64L-G09RevE.01 30-Nov-2015

 ----------------------------------------------------------------------
 #rhf/gen scf(symm,tight,novaracc,noincfock,fulldiag) stable(crhf) gues
 s=read geom=nocrowd test
 ----------------------------------------------------------------------

 ----------------------------------------------------------------------
 hf stability analysis of h12 triangular lattice, y= 1.6137717412076256
 ----------------------------------------------------------------------
 Symbolic Z-matrix:
 Charge =  0 Multiplicity = 1

                         Standard orientation:
 ---------------------------------------------------------------------
 Center     Atomic      Atomic             Coordinates (Angstroms)
 Number     Number       Type             X           Y           Z
 ---------------------------------------------------------------------
      1          1           0        0.698568    3.977514   -0.000000
      2          1           0        0.000000    2.479430   -0.000000
      3          1           0        0.698568    2.324561   -0.000000
      4          1           0        0.000000    0.826477   -0.000000
      5          1           0       -0.698568    0.981346    0.000000
      6          1           0       -0.698568   -0.671608    0.000000
      7          1           0       -0.698568   -2.324561   -0.000000
      8          1           0       -0.000000   -0.826477   -0.000000
      9          1           0        0.698568    0.671608    0.000000
     10          1           0        0.698568   -0.981346   -0.000000
     11          1           0       -0.000000   -2.479430   -0.000000
     12          1           0       -0.698568   -3.977514   -0.000000
 ---------------------------------------------------------------------

 SCF Done:  E(RHF) =  -5.40064730701     A.U. after   12 cycles
 E2 =    -0.6866705595D+00 EUMP2 =    -0.60873178664649D+01

 The electronic state is 1-AG.
 Alpha  occ. eigenvalues --   -0.87747  -0.78474  -0.63176  -0.59053  -0.22349
 Alpha  occ. eigenvalues --   -0.16125
 Alpha virt. eigenvalues --   -0.13532  -0.08898   0.45614   0.48249   0.75743
 Alpha virt. eigenvalues --    0.95060

 Mulliken charges:
               1
     1  H   -0.052055
     2  H    0.009722
     3  H   -0.025475
     4  H   -0.235730
     5  H    0.098301
     6  H    0.205237
     7  H   -0.025475
     8  H   -0.235730
     9  H    0.205237
    10  H    0.098301
    11  H    0.009722
    12  H   -0.052055
 Sum of Mulliken charges =  -0.00000

 Dipole moment (field-independent basis, Debye):
    X=             -0.0000    Y=              0.0000    Z=              0.0000  Tot=              0.0000
 Quadrupole moment (field-independent basis, Debye-Ang):
   XX=            -14.2884   YY=            -30.0995   ZZ=            -14.8889
   XY=             -2.0548   XZ=             -0.0000   YZ=             -0.0000

 Normal termination of Gaussian 09 at Fri Feb 17 15:08:53 2017.
