 Gaussian 09, Revision E.01,
 Gaussian 09:  ES64L-G09RevE.01 30-Nov-2015

 ----------------------------------------------------------------------
 #rhf/gen scf(symm,tight,novaracc,noincfock,fulldiag) stable(crhf) gues
 s=read geom=nocrowd test
 ----------------------------------------------------------------------

 hf stability analysis of h12 triangular lattice, y= 0.8519558688473642
 9
 ----------------------------------------------------------------------
 Symbolic Z-matrix:
 Charge =  0 Multiplicity = 1

                         Standard orientation:
 ---------------------------------------------------------------------
 Center     Atomic      Atomic             Coordinates (Angstroms)
 Number     Number       Type             X           Y           Z
 ---------------------------------------------------------------------
      1          1           0        1.060710    1.877801    0.000000
      2          1           0        0.000000    1.632917   -0.000000
      3          1           0        1.060710    0.789190    0.000000
      4          1           0        0.000000    0.544306   -0.000000
      5          1           0       -1.060710    1.388032   -0.000000
      6          1           0       -1.060710    0.299421   -0.000000
      7          1           0       -1.060710   -0.789190    0.000000
      8          1           0       -0.000000   -0.544306   -0.000000
      9          1           0        1.060710   -0.299421   -0.000000
     10          1           0        1.060710   -1.388032   -0.000000
     11          1           0       -0.000000   -1.632917   -0.000000
     12          1           0       -1.060710   -1.877801   -0.000000
 ---------------------------------------------------------------------

 SCF Done:  E(RHF) =  -5.81061286991     A.U. after    9 cycles
 E2 =    -0.1401160671D+00 EUMP2 =    -0.59507289369894D+01

 The electronic state is 1-AG.
 Alpha  occ. eigenvalues --   -0.92999  -0.75644  -0.64659  -0.49922  -0.40520
 Alpha  occ. eigenvalues --   -0.24479
 Alpha virt. eigenvalues --    0.01045   0.19199   0.25532   0.41808   0.63150
 Alpha virt. eigenvalues --    0.90762

 Mulliken charges:
               1
     1  H    0.157377
     2  H   -0.057982
     3  H   -0.020798
     4  H   -0.049607
     5  H   -0.027044
     6  H   -0.001947
     7  H   -0.020798
     8  H   -0.049607
     9  H   -0.001947
    10  H   -0.027044
    11  H   -0.057982
    12  H    0.157377
 Sum of Mulliken charges =  -0.00000

 Dipole moment (field-independent basis, Debye):
    X=             -0.0000    Y=             -0.0000    Z=              0.0000  Tot=              0.0000
 Quadrupole moment (field-independent basis, Debye-Ang):
   XX=            -19.5557   YY=            -13.4820   ZZ=            -15.1954
   XY=              3.9156   XZ=              0.0000   YZ=             -0.0000

 Normal termination of Gaussian 09 at Fri Feb 17 15:03:32 2017.
