 Gaussian 09, Revision E.01,
 Gaussian 09:  ES64L-G09RevE.01 30-Nov-2015

 ----------------------------------------------------------------------
 #rhf/gen scf(symm,tight,novaracc,noincfock,fulldiag) stable(crhf) gues
 s=read geom=nocrowd test
 ----------------------------------------------------------------------

 hf stability analysis of h12 triangular lattice, y= 0.5977250200806807
 4
 ----------------------------------------------------------------------
 Symbolic Z-matrix:
 Charge =  0 Multiplicity = 1

                         Standard orientation:
 ---------------------------------------------------------------------
 Center     Atomic      Atomic             Coordinates (Angstroms)
 Number     Number       Type             X           Y           Z
 ---------------------------------------------------------------------
      1          1           0        1.016554    1.197011    0.000000
      2          1           0        0.000000    1.703846   -0.000000
      3          1           0        1.016554    0.061114    0.000000
      4          1           0        0.000000    0.567949   -0.000000
      5          1           0       -1.016554    2.210681   -0.000000
      6          1           0       -1.016554    1.074784   -0.000000
      7          1           0       -1.016554   -0.061114    0.000000
      8          1           0       -0.000000   -0.567949   -0.000000
      9          1           0        1.016554   -1.074784   -0.000000
     10          1           0        1.016554   -2.210681   -0.000000
     11          1           0       -0.000000   -1.703846   -0.000000
     12          1           0       -1.016554   -1.197011    0.000000
 ---------------------------------------------------------------------

 SCF Done:  E(RHF) =  -5.64035079773     A.U. after   10 cycles
 E2 =    -0.1499441500D+00 EUMP2 =    -0.57902949477454D+01

 The electronic state is 1-AG.
 Alpha  occ. eigenvalues --   -0.90521  -0.75518  -0.59366  -0.53296  -0.34590
 Alpha  occ. eigenvalues --   -0.16018
 Alpha virt. eigenvalues --   -0.06649   0.21202   0.26895   0.38801   0.64750
 Alpha virt. eigenvalues --    0.66699

 Mulliken charges:
               1
     1  H   -0.132145
     2  H   -0.060959
     3  H    0.004082
     4  H   -0.036424
     5  H    0.246357
     6  H   -0.020910
     7  H    0.004082
     8  H   -0.036424
     9  H   -0.020910
    10  H    0.246357
    11  H   -0.060959
    12  H   -0.132145
 Sum of Mulliken charges =   0.00000

 Dipole moment (field-independent basis, Debye):
    X=             -0.0000    Y=              0.0000    Z=             -0.0000  Tot=              0.0000
 Quadrupole moment (field-independent basis, Debye-Ang):
   XX=            -20.1913   YY=             -8.1433   ZZ=            -15.1863
   XY=             -7.9402   XZ=             -0.0000   YZ=             -0.0000

 Normal termination of Gaussian 09 at Fri Feb 17 14:59:18 2017.
