 Gaussian 09, Revision E.01,
 Gaussian 09:  ES64L-G09RevE.01 30-Nov-2015

 ----------------------------------------------------------------------
 #rhf/gen scf(symm,tight,novaracc,noincfock,fulldiag) stable(crhf) gues
 s=read geom=nocrowd test
 ----------------------------------------------------------------------

 hf stability analysis of h12 triangular lattice, y= 0.3758679504228169
 5
 ----------------------------------------------------------------------
 Symbolic Z-matrix:
 Charge =  0 Multiplicity = 1

                         Standard orientation:
 ---------------------------------------------------------------------
 Center     Atomic      Atomic             Coordinates (Angstroms)
 Number     Number       Type             X           Y           Z
 ---------------------------------------------------------------------
      1          1           0        0.730193    0.969359   -0.000000
      2          1           0        0.000000    2.372046   -0.000000
      3          1           0        0.730193   -0.612005   -0.000000
      4          1           0        0.000000    0.790682   -0.000000
      5          1           0       -0.730193    3.774733   -0.000000
      6          1           0       -0.730193    2.193369   -0.000000
      7          1           0       -0.730193    0.612005   -0.000000
      8          1           0       -0.000000   -0.790682   -0.000000
      9          1           0        0.730193   -2.193369   -0.000000
     10          1           0        0.730193   -3.774733   -0.000000
     11          1           0       -0.000000   -2.372046   -0.000000
     12          1           0       -0.730193   -0.969359   -0.000000
 ---------------------------------------------------------------------

 SCF Done:  E(RHF) =  -5.41038908411     A.U. after   14 cycles
 E2 =    -0.6322256916D+00 EUMP2 =    -0.60426147756738D+01

 The electronic state is 1-AG.
 Alpha  occ. eigenvalues --   -0.88732  -0.78131  -0.62126  -0.56384  -0.23995
 Alpha  occ. eigenvalues --   -0.14628
 Alpha virt. eigenvalues --   -0.16250  -0.06609   0.43239   0.46789   0.67444
 Alpha virt. eigenvalues --    0.87578

 Mulliken charges:
               1
     1  H    0.075489
     2  H    0.021615
     3  H    0.230387
     4  H   -0.215856
     5  H   -0.078976
     6  H   -0.032659
     7  H    0.230387
     8  H   -0.215856
     9  H   -0.032659
    10  H   -0.078976
    11  H    0.021615
    12  H    0.075489
 Sum of Mulliken charges =   0.00000

 Dipole moment (field-independent basis, Debye):
    X=              0.0000    Y=             -0.0000    Z=             -0.0000  Tot=              0.0000
 Quadrupole moment (field-independent basis, Debye-Ang):
   XX=            -14.1768   YY=            -32.9726   ZZ=            -14.8422
   XY=              2.8616   XZ=              0.0000   YZ=             -0.0000

 Normal termination of Gaussian 09 at Fri Feb 17 14:55:39 2017.
