 Gaussian 09, Revision E.01,
 Gaussian 09:  ES64L-G09RevE.01 30-Nov-2015

 ----------------------------------------------------------------------
 #rhf/gen scf(symm,tight,novaracc,noincfock,fulldiag) stable(crhf) gues
 s=read geom=nocrowd test
 ----------------------------------------------------------------------

 hf stability analysis of h12 triangular lattice, y= 0.6093965744756328
 9
 ----------------------------------------------------------------------
 Symbolic Z-matrix:
 Charge =  0 Multiplicity = 1

                         Standard orientation:
 ---------------------------------------------------------------------
 Center     Atomic      Atomic             Coordinates (Angstroms)
 Number     Number       Type             X           Y           Z
 ---------------------------------------------------------------------
      1          1           0        1.025053    1.222576    0.000000
      2          1           0        0.000000    1.689719    0.000000
      3          1           0        1.025053    0.096096    0.000000
      4          1           0        0.000000    0.563240    0.000000
      5          1           0       -1.025053    2.156862    0.000000
      6          1           0       -1.025053    1.030383    0.000000
      7          1           0       -1.025053   -0.096096   -0.000000
      8          1           0       -0.000000   -0.563240    0.000000
      9          1           0        1.025053   -1.030383    0.000000
     10          1           0        1.025053   -2.156862    0.000000
     11          1           0       -0.000000   -1.689719    0.000000
     12          1           0       -1.025053   -1.222576    0.000000
 ---------------------------------------------------------------------

 SCF Done:  E(RHF) =  -5.67540058636     A.U. after   10 cycles
 E2 =    -0.1474920086D+00 EUMP2 =    -0.58228925949511D+01

 The electronic state is 1-AG.
 Alpha  occ. eigenvalues --   -0.90987  -0.75589  -0.60335  -0.52873  -0.35545
 Alpha  occ. eigenvalues --   -0.17649
 Alpha virt. eigenvalues --   -0.05551   0.20822   0.29114   0.36673   0.64953
 Alpha virt. eigenvalues --    0.70601

 Mulliken charges:
               1
     1  H   -0.115796
     2  H   -0.059975
     3  H    0.003935
     4  H   -0.039498
     5  H    0.233594
     6  H   -0.022259
     7  H    0.003935
     8  H   -0.039498
     9  H   -0.022259
    10  H    0.233594
    11  H   -0.059975
    12  H   -0.115796
 Sum of Mulliken charges =  -0.00000

 Dipole moment (field-independent basis, Debye):
    X=             -0.0000    Y=             -0.0000    Z=              0.0000  Tot=              0.0000
 Quadrupole moment (field-independent basis, Debye-Ang):
   XX=            -20.0738   YY=             -9.1943   ZZ=            -15.1886
   XY=             -7.3456   XZ=             -0.0000   YZ=             -0.0000

 Normal termination of Gaussian 09 at Fri Feb 17 14:59:30 2017.
