 Gaussian 09, Revision E.01,
 Gaussian 09:  ES64L-G09RevE.01 30-Nov-2015

 ----------------------------------------------------------------------
 #rhf/gen scf(symm,tight,novaracc,noincfock,fulldiag) stable(crhf) gues
 s=read geom=nocrowd test
 ----------------------------------------------------------------------

 hf stability analysis of h12 triangular lattice, y= 0.2411143230343760
 2
 ----------------------------------------------------------------------
 Symbolic Z-matrix:
 Charge =  0 Multiplicity = 1

                         Standard orientation:
 ---------------------------------------------------------------------
 Center     Atomic      Atomic             Coordinates (Angstroms)
 Number     Number       Type             X           Y           Z
 ---------------------------------------------------------------------
      1          1           0        0.479802    1.251622    0.000000
      2          1           0        0.000000    3.609926    0.000000
      3          1           0        0.479802   -1.154995   -0.000000
      4          1           0        0.000000    1.203309    0.000000
      5          1           0       -0.479802    5.968230    0.000000
      6          1           0       -0.479802    3.561612    0.000000
      7          1           0       -0.479802    1.154995   -0.000000
      8          1           0       -0.000000   -1.203309    0.000000
      9          1           0        0.479802   -3.561612    0.000000
     10          1           0        0.479802   -5.968230    0.000000
     11          1           0       -0.000000   -3.609926    0.000000
     12          1           0       -0.479802   -1.251622    0.000000
 ---------------------------------------------------------------------

 SCF Done:  E(RHF) =  -4.36445894908     A.U. after   10 cycles
 E2 =    -0.1118254088D+01 EUMP2 =    -0.54827130373945D+01

 The electronic state is 1-AG.
 Alpha  occ. eigenvalues --   -0.92205  -0.91977  -0.71921  -0.71917  -0.20490
 Alpha  occ. eigenvalues --   -0.13195
 Alpha virt. eigenvalues --   -0.16069   0.01044   0.63470   0.63549   1.48882
 Alpha virt. eigenvalues --    1.58213

 Mulliken charges:
               1
     1  H    0.317928
     2  H   -0.002053
     3  H    0.317009
     4  H   -0.630453
     5  H    0.001308
     6  H   -0.003739
     7  H    0.317009
     8  H   -0.630453
     9  H   -0.003739
    10  H    0.001308
    11  H   -0.002053
    12  H    0.317928
 Sum of Mulliken charges =  -0.00000

 Dipole moment (field-independent basis, Debye):
    X=              0.0000    Y=             -0.0000    Z=             -0.0000  Tot=              0.0000
 Quadrupole moment (field-independent basis, Debye-Ang):
   XX=            -15.9328   YY=            -18.1302   ZZ=            -15.2478
   XY=             -0.0328   XZ=             -0.0000   YZ=             -0.0000

 Normal termination of Gaussian 09 at Fri Feb 17 14:54:01 2017.
