 Gaussian 09, Revision E.01,
 Gaussian 09:  ES64L-G09RevE.01 30-Nov-2015

 ----------------------------------------------------------------------
 #rhf/gen scf(symm,tight,novaracc,noincfock,fulldiag) stable(crhf) gues
 s=read geom=nocrowd test
 ----------------------------------------------------------------------

 hf stability analysis of h12 triangular lattice, y= 0.5744413597680069
 2
 ----------------------------------------------------------------------
 Symbolic Z-matrix:
 Charge =  0 Multiplicity = 1

                         Standard orientation:
 ---------------------------------------------------------------------
 Center     Atomic      Atomic             Coordinates (Angstroms)
 Number     Number       Type             X           Y           Z
 ---------------------------------------------------------------------
      1          1           0        0.997459    1.148916    0.000000
      2          1           0        0.000000    1.736464    0.000000
      3          1           0        0.997459   -0.008727    0.000000
      4          1           0        0.000000    0.578821    0.000000
      5          1           0       -0.997459    2.324012    0.000000
      6          1           0       -0.997459    1.166369    0.000000
      7          1           0       -0.997459    0.008727    0.000000
      8          1           0       -0.000000   -0.578821   -0.000000
      9          1           0        0.997459   -1.166369   -0.000000
     10          1           0        0.997459   -2.324012   -0.000000
     11          1           0       -0.000000   -1.736464   -0.000000
     12          1           0       -0.997459   -1.148916    0.000000
 ---------------------------------------------------------------------

 SCF Done:  E(RHF) =  -5.55784601265     A.U. after   12 cycles
 E2 =    -0.1597979879D+00 EUMP2 =    -0.57176440005029D+01

 The electronic state is 1-AG.
 Alpha  occ. eigenvalues --   -0.89543  -0.75325  -0.57262  -0.54057  -0.32553
 Alpha  occ. eigenvalues --   -0.12363
 Alpha virt. eigenvalues --   -0.08817   0.22029   0.22507   0.42977   0.58956
 Alpha virt. eigenvalues --    0.63924

 Mulliken charges:
               1
     1  H   -0.165969
     2  H   -0.065055
     3  H    0.001178
     4  H   -0.026349
     5  H    0.270240
     6  H   -0.014045
     7  H    0.001178
     8  H   -0.026349
     9  H   -0.014045
    10  H    0.270240
    11  H   -0.065055
    12  H   -0.165969
 Sum of Mulliken charges =  -0.00000

 Dipole moment (field-independent basis, Debye):
    X=             -0.0000    Y=              0.0000    Z=             -0.0000  Tot=              0.0000
 Quadrupole moment (field-independent basis, Debye-Ang):
   XX=            -20.4434   YY=             -5.8070   ZZ=            -15.1798
   XY=             -9.1152   XZ=             -0.0000   YZ=              0.0000

 Normal termination of Gaussian 09 at Fri Feb 17 14:58:54 2017.
