 Gaussian 09, Revision E.01,
 Gaussian 09:  ES64L-G09RevE.01 30-Nov-2015

 ----------------------------------------------------------------------
 #rhf/gen scf(symm,tight,novaracc,noincfock,fulldiag) stable(crhf) gues
 s=read geom=nocrowd test
 ----------------------------------------------------------------------

 hf stability analysis of h12 triangular lattice, y= 0.5423787099077283
 0
 ----------------------------------------------------------------------
 Symbolic Z-matrix:
 Charge =  0 Multiplicity = 1

                         Standard orientation:
 ---------------------------------------------------------------------
 Center     Atomic      Atomic             Coordinates (Angstroms)
 Number     Number       Type             X           Y           Z
 ---------------------------------------------------------------------
      1          1           0        0.966526    1.089815    0.000000
      2          1           0        0.000000    1.792038    0.000000
      3          1           0        0.966526   -0.104876    0.000000
      4          1           0        0.000000    0.597346    0.000000
      5          1           0       -0.966526    2.494260    0.000000
      6          1           0       -0.966526    1.299568   -0.000000
      7          1           0       -0.966526    0.104876   -0.000000
      8          1           0       -0.000000   -0.597346    0.000000
      9          1           0        0.966526   -1.299568    0.000000
     10          1           0        0.966526   -2.494260    0.000000
     11          1           0       -0.000000   -1.792038    0.000000
     12          1           0       -0.966526   -1.089815    0.000000
 ---------------------------------------------------------------------

 SCF Done:  E(RHF) =  -5.42624738415     A.U. after   17 cycles
 E2 =    -0.1763065720D+00 EUMP2 =    -0.56025539561619D+01

 The electronic state is 1-AG.
 Alpha  occ. eigenvalues --   -0.90604  -0.75303  -0.55728  -0.54473  -0.30070
 Alpha  occ. eigenvalues --   -0.07305
 Alpha virt. eigenvalues --   -0.12635   0.17921   0.23158   0.41028   0.50978
 Alpha virt. eigenvalues --    0.60398

 Mulliken charges:
               1
     1  H   -0.173616
     2  H   -0.087355
     3  H   -0.031244
     4  H    0.060799
     5  H    0.221357
     6  H    0.010059
     7  H   -0.031244
     8  H    0.060799
     9  H    0.010059
    10  H    0.221357
    11  H   -0.087355
    12  H   -0.173616
 Sum of Mulliken charges =  -0.00000

 Dipole moment (field-independent basis, Debye):
    X=             -0.0000    Y=             -0.0000    Z=             -0.0000  Tot=              0.0000
 Quadrupole moment (field-independent basis, Debye-Ang):
   XX=            -20.2696   YY=             -7.5251   ZZ=            -15.1202
   XY=             -7.8571   XZ=             -0.0000   YZ=             -0.0000

 Normal termination of Gaussian 09 at Fri Feb 17 14:58:20 2017.
