 Gaussian 09, Revision E.01,
 Gaussian 09:  ES64L-G09RevE.01 30-Nov-2015

 ----------------------------------------------------------------------
 #rhf/gen scf(symm,tight,novaracc,noincfock,fulldiag) stable(crhf) gues
 s=read geom=nocrowd test
 ----------------------------------------------------------------------

 hf stability analysis of h12 triangular lattice, y= 0.4266589340790049
 6
 ----------------------------------------------------------------------
 Symbolic Z-matrix:
 Charge =  0 Multiplicity = 1

                         Standard orientation:
 ---------------------------------------------------------------------
 Center     Atomic      Atomic             Coordinates (Angstroms)
 Number     Number       Type             X           Y           Z
 ---------------------------------------------------------------------
      1          1           0        0.813824    0.966027   -0.000000
      2          1           0        0.000000    2.128287    0.000000
      3          1           0        0.813824   -0.452832   -0.000000
      4          1           0        0.000000    0.709429    0.000000
      5          1           0       -0.813824    3.290548    0.000000
      6          1           0       -0.813824    1.871690    0.000000
      7          1           0       -0.813824    0.452832   -0.000000
      8          1           0       -0.000000   -0.709429    0.000000
      9          1           0        0.813824   -1.871690    0.000000
     10          1           0        0.813824   -3.290548    0.000000
     11          1           0       -0.000000   -2.128287    0.000000
     12          1           0       -0.813824   -0.966027   -0.000000
 ---------------------------------------------------------------------

 SCF Done:  E(RHF) =  -5.36065202483     A.U. after   16 cycles
 E2 =    -0.9543694287D+00 EUMP2 =    -0.63150214535599D+01

 The electronic state is 1-AG.
 Alpha  occ. eigenvalues --   -0.92698  -0.77688  -0.59066  -0.50931  -0.28015
 Alpha  occ. eigenvalues --   -0.12921
 Alpha virt. eigenvalues --   -0.23026   0.00209   0.34279   0.40584   0.49782
 Alpha virt. eigenvalues --    0.70169

 Mulliken charges:
               1
     1  H   -0.158267
     2  H    0.141609
     3  H    0.293450
     4  H   -0.080715
     5  H   -0.102062
     6  H   -0.094016
     7  H    0.293450
     8  H   -0.080715
     9  H   -0.094016
    10  H   -0.102062
    11  H    0.141609
    12  H   -0.158267
 Sum of Mulliken charges =  -0.00000

 Dipole moment (field-independent basis, Debye):
    X=             -0.0000    Y=             -0.0000    Z=             -0.0000  Tot=              0.0000
 Quadrupole moment (field-independent basis, Debye-Ang):
   XX=            -17.3347   YY=            -29.1122   ZZ=            -15.0117
   XY=              2.3881   XZ=             -0.0000   YZ=              0.0000

 Normal termination of Gaussian 09 at Fri Feb 17 14:56:24 2017.
