 Gaussian 09, Revision E.01,
 Gaussian 09:  ES64L-G09RevE.01 30-Nov-2015

 ----------------------------------------------------------------------
 #rhf/gen scf(symm,tight,novaracc,noincfock,fulldiag) stable(crhf) gues
 s=read geom=nocrowd test
 ----------------------------------------------------------------------

 hf stability analysis of h12 triangular lattice, y= 0.3350007865764852
 4
 ----------------------------------------------------------------------
 Symbolic Z-matrix:
 Charge =  0 Multiplicity = 1

                         Standard orientation:
 ---------------------------------------------------------------------
 Center     Atomic      Atomic             Coordinates (Angstroms)
 Number     Number       Type             X           Y           Z
 ---------------------------------------------------------------------
      1          1           0        0.657692    1.005686    0.000000
      2          1           0        0.000000    2.633530    0.000000
      3          1           0        0.657692   -0.750001   -0.000000
      4          1           0        0.000000    0.877843    0.000000
      5          1           0       -0.657692    4.261374    0.000000
      6          1           0       -0.657692    2.505687    0.000000
      7          1           0       -0.657692    0.750001    0.000000
      8          1           0       -0.000000   -0.877843    0.000000
      9          1           0        0.657692   -2.505687    0.000000
     10          1           0        0.657692   -4.261374    0.000000
     11          1           0       -0.000000   -2.633530    0.000000
     12          1           0       -0.657692   -1.005686    0.000000
 ---------------------------------------------------------------------

 SCF Done:  E(RHF) =  -5.34771005348     A.U. after   11 cycles
 E2 =    -0.7625250107D+00 EUMP2 =    -0.61102350642194D+01

 The electronic state is 1-AG.
 Alpha  occ. eigenvalues --   -0.87072  -0.79545  -0.64672  -0.62300  -0.20498
 Alpha  occ. eigenvalues --   -0.17700
 Alpha virt. eigenvalues --   -0.11360  -0.10202   0.48616   0.50289   0.87018
 Alpha virt. eigenvalues --    1.04921

 Mulliken charges:
               1
     1  H    0.124852
     2  H    0.001598
     3  H    0.190535
     4  H   -0.270300
     5  H   -0.027464
     6  H   -0.019222
     7  H    0.190535
     8  H   -0.270300
     9  H   -0.019222
    10  H   -0.027464
    11  H    0.001598
    12  H    0.124852
 Sum of Mulliken charges =  -0.00000

 Dipole moment (field-independent basis, Debye):
    X=              0.0000    Y=             -0.0000    Z=             -0.0000  Tot=              0.0000
 Quadrupole moment (field-independent basis, Debye-Ang):
   XX=            -14.5356   YY=            -26.7358   ZZ=            -14.9587
   XY=              1.2537   XZ=              0.0000   YZ=             -0.0000

 Normal termination of Gaussian 09 at Fri Feb 17 14:55:02 2017.
