 Gaussian 09, Revision E.01,
 Gaussian 09:  ES64L-G09RevE.01 30-Nov-2015

 ----------------------------------------------------------------------
 #rhf/gen scf(symm,tight,novaracc,noincfock,fulldiag) stable(crhf) gues
 s=read geom=nocrowd test
 ----------------------------------------------------------------------

 hf stability analysis of h12 triangular lattice, y= 0.6181745873441064
 6
 ----------------------------------------------------------------------
 Symbolic Z-matrix:
 Charge =  0 Multiplicity = 1

                         Standard orientation:
 ---------------------------------------------------------------------
 Center     Atomic      Atomic             Coordinates (Angstroms)
 Number     Number       Type             X           Y           Z
 ---------------------------------------------------------------------
      1          1           0        1.030974    1.242391   -0.000000
      2          1           0        0.000000    1.680014   -0.000000
      3          1           0        1.030974    0.122382   -0.000000
      4          1           0        0.000000    0.560005   -0.000000
      5          1           0       -1.030974    2.117637   -0.000000
      6          1           0       -1.030974    0.997627   -0.000000
      7          1           0       -1.030974   -0.122382    0.000000
      8          1           0       -0.000000   -0.560005    0.000000
      9          1           0        1.030974   -0.997627    0.000000
     10          1           0        1.030974   -2.117637    0.000000
     11          1           0       -0.000000   -1.680014    0.000000
     12          1           0       -1.030974   -1.242391    0.000000
 ---------------------------------------------------------------------

 SCF Done:  E(RHF) =  -5.69918184461     A.U. after   10 cycles
 E2 =    -0.1460184630D+00 EUMP2 =    -0.58452003076294D+01

 The electronic state is 1-AG.
 Alpha  occ. eigenvalues --   -0.91317  -0.75630  -0.61022  -0.52538  -0.36238
 Alpha  occ. eigenvalues --   -0.18786
 Alpha virt. eigenvalues --   -0.04717   0.20555   0.30783   0.35101   0.65011
 Alpha virt. eigenvalues --    0.73498

 Mulliken charges:
               1
     1  H   -0.103763
     2  H   -0.059453
     3  H    0.003534
     4  H   -0.041407
     5  H    0.223879
     6  H   -0.022791
     7  H    0.003534
     8  H   -0.041407
     9  H   -0.022791
    10  H    0.223879
    11  H   -0.059453
    12  H   -0.103763
 Sum of Mulliken charges =  -0.00000

 Dipole moment (field-independent basis, Debye):
    X=             -0.0000    Y=             -0.0000    Z=             -0.0000  Tot=              0.0000
 Quadrupole moment (field-independent basis, Debye-Ang):
   XX=            -19.9906   YY=             -9.9217   ZZ=            -15.1900
   XY=             -6.8994   XZ=              0.0000   YZ=             -0.0000

 Normal termination of Gaussian 09 at Fri Feb 17 14:59:40 2017.
