 Gaussian 09, Revision E.01,
 Gaussian 09:  ES64L-G09RevE.01 30-Nov-2015

 ----------------------------------------------------------------------
 #rhf/gen scf(symm,tight,novaracc,noincfock,fulldiag) stable(crhf) gues
 s=read geom=nocrowd test
 ----------------------------------------------------------------------

 hf stability analysis of h12 triangular lattice, y= 0.6064756379129316
 9
 ----------------------------------------------------------------------
 Symbolic Z-matrix:
 Charge =  0 Multiplicity = 1

                         Standard orientation:
 ---------------------------------------------------------------------
 Center     Atomic      Atomic             Coordinates (Angstroms)
 Number     Number       Type             X           Y           Z
 ---------------------------------------------------------------------
      1          1           0        1.022993    1.216092    0.000000
      2          1           0        0.000000    1.693121    0.000000
      3          1           0        1.022993    0.087344    0.000000
      4          1           0        0.000000    0.564374    0.000000
      5          1           0       -1.022993    2.170151    0.000000
      6          1           0       -1.022993    1.041403    0.000000
      7          1           0       -1.022993   -0.087344    0.000000
      8          1           0       -0.000000   -0.564374    0.000000
      9          1           0        1.022993   -1.041403    0.000000
     10          1           0        1.022993   -2.170151    0.000000
     11          1           0       -0.000000   -1.693121    0.000000
     12          1           0       -1.022993   -1.216092    0.000000
 ---------------------------------------------------------------------

 SCF Done:  E(RHF) =  -5.66700450883     A.U. after   10 cycles
 E2 =    -0.1480437235D+00 EUMP2 =    -0.58150482323738D+01

 The electronic state is 1-AG.
 Alpha  occ. eigenvalues --   -0.90873  -0.75573  -0.60099  -0.52981  -0.35309
 Alpha  occ. eigenvalues --   -0.17254
 Alpha virt. eigenvalues --   -0.05827   0.20915   0.28558   0.37203   0.64916
 Alpha virt. eigenvalues --    0.69629

 Mulliken charges:
               1
     1  H   -0.119849
     2  H   -0.060185
     3  H    0.004021
     4  H   -0.038795
     5  H    0.236808
     6  H   -0.022000
     7  H    0.004021
     8  H   -0.038795
     9  H   -0.022000
    10  H    0.236808
    11  H   -0.060185
    12  H   -0.119849
 Sum of Mulliken charges =   0.00000

 Dipole moment (field-independent basis, Debye):
    X=             -0.0000    Y=             -0.0000    Z=              0.0000  Tot=              0.0000
 Quadrupole moment (field-independent basis, Debye-Ang):
   XX=            -20.1025   YY=             -8.9402   ZZ=            -15.1880
   XY=             -7.4943   XZ=              0.0000   YZ=              0.0000

 Normal termination of Gaussian 09 at Fri Feb 17 14:59:27 2017.
