 Gaussian 09, Revision E.01,
 Gaussian 09:  ES64L-G09RevE.01 30-Nov-2015

 ----------------------------------------------------------------------
 #rhf/gen scf(symm,tight,novaracc,noincfock,fulldiag) stable(crhf) gues
 s=read geom=nocrowd test
 ----------------------------------------------------------------------

 hf stability analysis of h12 triangular lattice, y= 0.5306529471566099
 3
 ----------------------------------------------------------------------
 Symbolic Z-matrix:
 Charge =  0 Multiplicity = 1

                         Standard orientation:
 ---------------------------------------------------------------------
 Center     Atomic      Atomic             Coordinates (Angstroms)
 Number     Number       Type             X           Y           Z
 ---------------------------------------------------------------------
      1          1           0        0.953895    1.070501   -0.000000
      2          1           0        0.000000    1.815766    0.000000
      3          1           0        0.953895   -0.140009   -0.000000
      4          1           0        0.000000    0.605255    0.000000
      5          1           0       -0.953895    2.561031    0.000000
      6          1           0       -0.953895    1.350520    0.000000
      7          1           0       -0.953895    0.140009   -0.000000
      8          1           0       -0.000000   -0.605255    0.000000
      9          1           0        0.953895   -1.350520    0.000000
     10          1           0        0.953895   -2.561031    0.000000
     11          1           0       -0.000000   -1.815766    0.000000
     12          1           0       -0.953895   -1.070501   -0.000000
 ---------------------------------------------------------------------

 SCF Done:  E(RHF) =  -5.39998484468     A.U. after   19 cycles
 E2 =    -0.2086311875D+00 EUMP2 =    -0.56086160321395D+01

 The electronic state is 1-AG.
 Alpha  occ. eigenvalues --   -0.93553  -0.75939  -0.57155  -0.54074  -0.31082
 Alpha  occ. eigenvalues --   -0.06377
 Alpha virt. eigenvalues --   -0.14227   0.18175   0.23635   0.34453   0.49215
 Alpha virt. eigenvalues --    0.57357

 Mulliken charges:
               1
     1  H   -0.134153
     2  H   -0.060223
     3  H    0.003509
     4  H    0.111448
     5  H    0.107622
     6  H   -0.028203
     7  H    0.003509
     8  H    0.111448
     9  H   -0.028203
    10  H    0.107622
    11  H   -0.060223
    12  H   -0.134153
 Sum of Mulliken charges =   0.00000

 Dipole moment (field-independent basis, Debye):
    X=              0.0000    Y=              0.0000    Z=              0.0000  Tot=              0.0000
 Quadrupole moment (field-independent basis, Debye-Ang):
   XX=            -19.6090   YY=            -14.7391   ZZ=            -15.0606
   XY=             -3.6871   XZ=              0.0000   YZ=             -0.0000

 Normal termination of Gaussian 09 at Fri Feb 17 14:58:07 2017.
