 Gaussian 09, Revision E.01,
 Gaussian 09:  ES64L-G09RevE.01 30-Nov-2015

 ----------------------------------------------------------------------
 #rhf/gen scf(symm,tight,novaracc,noincfock,fulldiag) stable(crhf) gues
 s=read geom=nocrowd test
 ----------------------------------------------------------------------

 hf stability analysis of h12 triangular lattice, y= 0.4707695940863088
 6
 ----------------------------------------------------------------------
 Symbolic Z-matrix:
 Charge =  0 Multiplicity = 1

                         Standard orientation:
 ---------------------------------------------------------------------
 Center     Atomic      Atomic             Coordinates (Angstroms)
 Number     Number       Type             X           Y           Z
 ---------------------------------------------------------------------
      1          1           0        0.879003    0.994242    0.000000
      2          1           0        0.000000    1.970473    0.000000
      3          1           0        0.879003   -0.319407    0.000000
      4          1           0        0.000000    0.656824    0.000000
      5          1           0       -0.879003    2.946704    0.000000
      6          1           0       -0.879003    1.633056    0.000000
      7          1           0       -0.879003    0.319407    0.000000
      8          1           0       -0.000000   -0.656824    0.000000
      9          1           0        0.879003   -1.633056   -0.000000
     10          1           0        0.879003   -2.946704    0.000000
     11          1           0       -0.000000   -1.970473    0.000000
     12          1           0       -0.879003   -0.994242    0.000000
 ---------------------------------------------------------------------

 SCF Done:  E(RHF) =  -5.40284024768     A.U. after   14 cycles
 E2 =    -0.4333951413D+00 EUMP2 =    -0.58362353889843D+01

 The electronic state is 1-AG.
 Alpha  occ. eigenvalues --   -0.95139  -0.77303  -0.55902  -0.54897  -0.30806
 Alpha  occ. eigenvalues --   -0.10643
 Alpha virt. eigenvalues --   -0.19878   0.11050   0.29279   0.29316   0.50413
 Alpha virt. eigenvalues --    0.58062

 Mulliken charges:
               1
     1  H   -0.131878
     2  H    0.065971
     3  H    0.093423
     4  H    0.102236
     5  H   -0.037104
     6  H   -0.092649
     7  H    0.093423
     8  H    0.102236
     9  H   -0.092649
    10  H   -0.037104
    11  H    0.065971
    12  H   -0.131878
 Sum of Mulliken charges =   0.00000

 Dipole moment (field-independent basis, Debye):
    X=              0.0000    Y=              0.0000    Z=             -0.0000  Tot=              0.0000
 Quadrupole moment (field-independent basis, Debye-Ang):
   XX=            -19.2251   YY=            -23.0313   ZZ=            -15.1087
   XY=              0.9956   XZ=              0.0000   YZ=              0.0000

 Normal termination of Gaussian 09 at Fri Feb 17 11:35:25 2017.
