 Gaussian 09, Revision E.01,
 Gaussian 09:  ES64L-G09RevE.01 30-Nov-2015

 ----------------------------------------------------------------------
 #rhf/gen scf(symm,tight,novaracc,noincfock,fulldiag) stable(crhf) gues
 s=read geom=nocrowd test
 ----------------------------------------------------------------------

 hf stability analysis of h12 triangular lattice, y= 0.5159090308841330
 9
 ----------------------------------------------------------------------
 Symbolic Z-matrix:
 Charge =  0 Multiplicity = 1

                         Standard orientation:
 ---------------------------------------------------------------------
 Center     Atomic      Atomic             Coordinates (Angstroms)
 Number     Number       Type             X           Y           Z
 ---------------------------------------------------------------------
      1          1           0        0.937039    1.048124    0.000000
      2          1           0       -0.000000    1.848431    0.000000
      3          1           0        0.937039   -0.184163    0.000000
      4          1           0       -0.000000    0.616144    0.000000
      5          1           0       -0.937039    2.648737   -0.000000
      6          1           0       -0.937039    1.416450   -0.000000
      7          1           0       -0.937039    0.184163    0.000000
      8          1           0       -0.000000   -0.616144    0.000000
      9          1           0        0.937039   -1.416450   -0.000000
     10          1           0        0.937039   -2.648737   -0.000000
     11          1           0       -0.000000   -1.848431    0.000000
     12          1           0       -0.937039   -1.048124    0.000000
 ---------------------------------------------------------------------

 SCF Done:  E(RHF) =  -5.39531405185     A.U. after   20 cycles
 E2 =    -0.2748279556D+00 EUMP2 =    -0.56701420074261D+01

 The electronic state is 1-AG.
 Alpha  occ. eigenvalues --   -0.96210  -0.76997  -0.58273  -0.54049  -0.32611
 Alpha  occ. eigenvalues --   -0.06124
 Alpha virt. eigenvalues --   -0.15733   0.19505   0.23247   0.28401   0.48772
 Alpha virt. eigenvalues --    0.54346

 Mulliken charges:
               1
     1  H   -0.105648
     2  H   -0.003561
     3  H    0.060636
     4  H    0.131964
     5  H   -0.003767
     6  H   -0.079624
     7  H    0.060636
     8  H    0.131964
     9  H   -0.079624
    10  H   -0.003767
    11  H   -0.003561
    12  H   -0.105648
 Sum of Mulliken charges =  -0.00000

 Dipole moment (field-independent basis, Debye):
    X=              0.0000    Y=              0.0000    Z=              0.0000  Tot=              0.0000
 Quadrupole moment (field-independent basis, Debye-Ang):
   XX=            -19.1341   YY=            -21.8459   ZZ=            -15.0339
   XY=              0.2548   XZ=              0.0000   YZ=             -0.0000

 Normal termination of Gaussian 09 at Fri Feb 17 14:57:52 2017.
