 Gaussian 09, Revision E.01,
 Gaussian 09:  ES64L-G09RevE.01 30-Nov-2015

 ----------------------------------------------------------------------
 #rhf/gen scf(symm,tight,novaracc,noincfock,fulldiag) stable(crhf) gues
 s=read geom=nocrowd test
 ----------------------------------------------------------------------

 hf stability analysis of h12 triangular lattice, y= 0.8557834790083491
 7
 ----------------------------------------------------------------------
 Symbolic Z-matrix:
 Charge =  0 Multiplicity = 1

                         Standard orientation:
 ---------------------------------------------------------------------
 Center     Atomic      Atomic             Coordinates (Angstroms)
 Number     Number       Type             X           Y           Z
 ---------------------------------------------------------------------
      1          1           0        1.059621    1.888988    0.000000
      2          1           0        0.000000    1.634595    0.000000
      3          1           0        1.059621    0.799257    0.000000
      4          1           0        0.000000    0.544865    0.000000
      5          1           0       -1.059621    1.380203    0.000000
      6          1           0       -1.059621    0.290473    0.000000
      7          1           0       -1.059621   -0.799257    0.000000
      8          1           0       -0.000000   -0.544865    0.000000
      9          1           0        1.059621   -0.290473    0.000000
     10          1           0        1.059621   -1.380203    0.000000
     11          1           0       -0.000000   -1.634595    0.000000
     12          1           0       -1.059621   -1.888988    0.000000
 ---------------------------------------------------------------------

 SCF Done:  E(RHF) =  -5.80676525055     A.U. after    9 cycles
 E2 =    -0.1403033202D+00 EUMP2 =    -0.59470685707493D+01

 The electronic state is 1-AG.
 Alpha  occ. eigenvalues --   -0.92937  -0.75652  -0.64518  -0.50068  -0.40317
 Alpha  occ. eigenvalues --   -0.24272
 Alpha virt. eigenvalues --    0.00755   0.19249   0.25963   0.41270   0.63339
 Alpha virt. eigenvalues --    0.90033

 Mulliken charges:
               1
     1  H    0.160762
     2  H   -0.058014
     3  H   -0.021044
     4  H   -0.049328
     5  H   -0.030772
     6  H   -0.001605
     7  H   -0.021044
     8  H   -0.049328
     9  H   -0.001605
    10  H   -0.030772
    11  H   -0.058014
    12  H    0.160762
 Sum of Mulliken charges =   0.00000

 Dipole moment (field-independent basis, Debye):
    X=              0.0000    Y=             -0.0000    Z=              0.0000  Tot=              0.0000
 Quadrupole moment (field-independent basis, Debye-Ang):
   XX=            -19.5721   YY=            -13.3546   ZZ=            -15.1953
   XY=              4.0654   XZ=             -0.0000   YZ=              0.0000

 Normal termination of Gaussian 09 at Fri Feb 17 15:03:35 2017.
