 Gaussian 09, Revision E.01,
 Gaussian 09:  ES64L-G09RevE.01 30-Nov-2015

 ----------------------------------------------------------------------
 #rhf/gen scf(symm,tight,novaracc,noincfock,fulldiag) stable(crhf) gues
 s=read geom=nocrowd test
 ----------------------------------------------------------------------

 ----------------------------------------------------------------------
 hf stability analysis of h12 triangular lattice, y= 1.2426558648313226
 ----------------------------------------------------------------------
 Symbolic Z-matrix:
 Charge =  0 Multiplicity = 1

                         Standard orientation:
 ---------------------------------------------------------------------
 Center     Atomic      Atomic             Coordinates (Angstroms)
 Number     Number       Type             X           Y           Z
 ---------------------------------------------------------------------
      1          1           0        0.870375    2.991258   -0.000000
      2          1           0        0.000000    1.990007   -0.000000
      3          1           0        0.870375    1.664587   -0.000000
      4          1           0        0.000000    0.663336   -0.000000
      5          1           0       -0.870375    0.988755   -0.000000
      6          1           0       -0.870375   -0.337916    0.000000
      7          1           0       -0.870375   -1.664587    0.000000
      8          1           0       -0.000000   -0.663336    0.000000
      9          1           0        0.870375    0.337916    0.000000
     10          1           0        0.870375   -0.988755    0.000000
     11          1           0       -0.000000   -1.990007    0.000000
     12          1           0       -0.870375   -2.991258    0.000000
 ---------------------------------------------------------------------

 SCF Done:  E(RHF) =  -5.39917087988     A.U. after   13 cycles
 E2 =    -0.4695255916D+00 EUMP2 =    -0.58686964714390D+01

 The electronic state is 1-AG.
 Alpha  occ. eigenvalues --   -0.94815  -0.77302  -0.56224  -0.54283  -0.30393
 Alpha  occ. eigenvalues --   -0.11292
 Alpha virt. eigenvalues --   -0.20439   0.09268   0.29784   0.30870   0.50025
 Alpha virt. eigenvalues --    0.59680

 Mulliken charges:
               1
     1  H   -0.038382
     2  H    0.074305
     3  H   -0.089963
     4  H    0.094626
     5  H   -0.139621
     6  H    0.099035
     7  H   -0.089963
     8  H    0.094626
     9  H    0.099035
    10  H   -0.139621
    11  H    0.074305
    12  H   -0.038382
 Sum of Mulliken charges =   0.00000

 Dipole moment (field-independent basis, Debye):
    X=              0.0000    Y=              0.0000    Z=              0.0000  Tot=              0.0000
 Quadrupole moment (field-independent basis, Debye-Ang):
   XX=            -19.2378   YY=            -22.8926   ZZ=            -15.1180
   XY=             -0.9150   XZ=             -0.0000   YZ=              0.0000

 Normal termination of Gaussian 09 at Fri Feb 17 15:07:18 2017.
