 Gaussian 09, Revision E.01,
 Gaussian 09:  ES64L-G09RevE.01 30-Nov-2015

 ----------------------------------------------------------------------
 #rhf/gen scf(symm,tight,novaracc,noincfock,fulldiag) stable(crhf) gues
 s=read geom=nocrowd test
 ----------------------------------------------------------------------

 hf stability analysis of h12 triangular lattice, y= 0.9900233955345416
 6
 ----------------------------------------------------------------------
 Symbolic Z-matrix:
 Charge =  0 Multiplicity = 1

                         Standard orientation:
 ---------------------------------------------------------------------
 Center     Atomic      Atomic             Coordinates (Angstroms)
 Number     Number       Type             X           Y           Z
 ---------------------------------------------------------------------
      1          1           0        1.004950    2.280573   -0.000000
      2          1           0        0.000000    1.723520   -0.000000
      3          1           0        1.004950    1.131559   -0.000000
      4          1           0        0.000000    0.574507   -0.000000
      5          1           0       -1.004950    1.166467   -0.000000
      6          1           0       -1.004950    0.017454   -0.000000
      7          1           0       -1.004950   -1.131559   -0.000000
      8          1           0       -0.000000   -0.574507   -0.000000
      9          1           0        1.004950   -0.017454   -0.000000
     10          1           0        1.004950   -1.166467   -0.000000
     11          1           0       -0.000000   -1.723520   -0.000000
     12          1           0       -1.004950   -2.280573   -0.000000
 ---------------------------------------------------------------------

 SCF Done:  E(RHF) =  -5.59079907068     A.U. after   11 cycles
 E2 =    -0.1545727878D+00 EUMP2 =    -0.57453718585227D+01

 The electronic state is 1-AG.
 Alpha  occ. eigenvalues --   -0.89908  -0.75402  -0.58073  -0.53785  -0.33340
 Alpha  occ. eigenvalues --   -0.13793
 Alpha virt. eigenvalues --   -0.08003   0.21712   0.24140   0.41458   0.61823
 Alpha virt. eigenvalues --    0.64300

 Mulliken charges:
               1
     1  H    0.261735
     2  H   -0.063001
     3  H   -0.017584
     4  H   -0.031110
     5  H   -0.153129
     6  H    0.003090
     7  H   -0.017584
     8  H   -0.031110
     9  H    0.003090
    10  H   -0.153129
    11  H   -0.063001
    12  H    0.261735
 Sum of Mulliken charges =   0.00000

 Dipole moment (field-independent basis, Debye):
    X=             -0.0000    Y=             -0.0000    Z=              0.0000  Tot=              0.0000
 Quadrupole moment (field-independent basis, Debye-Ang):
   XX=            -20.3470   YY=             -6.7091   ZZ=            -15.1827
   XY=              8.6802   XZ=             -0.0000   YZ=             -0.0000

 Normal termination of Gaussian 09 at Fri Feb 17 15:05:14 2017.
