 Gaussian 09, Revision E.01,
 Gaussian 09:  ES64L-G09RevE.01 30-Nov-2015

 ----------------------------------------------------------------------
 #rhf/gen scf(symm,tight,novaracc,noincfock,fulldiag) stable(crhf) gues
 s=read geom=nocrowd test
 ----------------------------------------------------------------------

 ----------------------------------------------------------------------
 hf stability analysis of h12 triangular lattice, y= 1.2106565115415191
 ----------------------------------------------------------------------
 Symbolic Z-matrix:
 Charge =  0 Multiplicity = 1

                         Standard orientation:
 ---------------------------------------------------------------------
 Center     Atomic      Atomic             Coordinates (Angstroms)
 Number     Number       Type             X           Y           Z
 ---------------------------------------------------------------------
      1          1           0        0.887414    2.903431   -0.000000
      2          1           0        0.000000    1.951795   -0.000000
      3          1           0        0.887414    1.602234   -0.000000
      4          1           0        0.000000    0.650598   -0.000000
      5          1           0       -0.887414    1.000160   -0.000000
      6          1           0       -0.887414   -0.301037   -0.000000
      7          1           0       -0.887414   -1.602234    0.000000
      8          1           0       -0.000000   -0.650598   -0.000000
      9          1           0        0.887414    0.301037   -0.000000
     10          1           0        0.887414   -1.000160   -0.000000
     11          1           0       -0.000000   -1.951795   -0.000000
     12          1           0       -0.887414   -2.903431    0.000000
 ---------------------------------------------------------------------

 SCF Done:  E(RHF) =  -5.40515433096     A.U. after   15 cycles
 E2 =    -0.4062688024D+00 EUMP2 =    -0.58114231333511D+01

 The electronic state is 1-AG.
 Alpha  occ. eigenvalues --   -0.95450  -0.77306  -0.55598  -0.55497  -0.31208
 Alpha  occ. eigenvalues --   -0.09971
 Alpha virt. eigenvalues --   -0.19316   0.12850   0.27735   0.28871   0.50830
 Alpha virt. eigenvalues --    0.56502

 Mulliken charges:
               1
     1  H   -0.036370
     2  H    0.058282
     3  H   -0.095447
     4  H    0.108422
     5  H   -0.124848
     6  H    0.089961
     7  H   -0.095447
     8  H    0.108422
     9  H    0.089961
    10  H   -0.124848
    11  H    0.058282
    12  H   -0.036370
 Sum of Mulliken charges =  -0.00000

 Dipole moment (field-independent basis, Debye):
    X=             -0.0000    Y=             -0.0000    Z=              0.0000  Tot=              0.0000
 Quadrupole moment (field-independent basis, Debye-Ang):
   XX=            -19.1995   YY=            -23.2017   ZZ=            -15.0982
   XY=             -1.0845   XZ=              0.0000   YZ=              0.0000

 Normal termination of Gaussian 09 at Fri Feb 17 15:07:05 2017.
