 Gaussian 09, Revision E.01,
 Gaussian 09:  ES64L-G09RevE.01 30-Nov-2015

 ----------------------------------------------------------------------
 #rhf/gen scf(symm,tight,novaracc,noincfock,fulldiag) stable(crhf) gues
 s=read geom=nocrowd test
 ----------------------------------------------------------------------

 ----------------------------------------------------------------------
 hf stability analysis of h12 triangular lattice, y= 1.0475506882612993
 ----------------------------------------------------------------------
 Symbolic Z-matrix:
 Charge =  0 Multiplicity = 1

                         Standard orientation:
 ---------------------------------------------------------------------
 Center     Atomic      Atomic             Coordinates (Angstroms)
 Number     Number       Type             X           Y           Z
 ---------------------------------------------------------------------
      1          1           0        0.975510    2.445984    0.000000
      2          1           0        0.000000    1.775534   -0.000000
      3          1           0        0.975510    1.262294    0.000000
      4          1           0        0.000000    0.591845   -0.000000
      5          1           0       -0.975510    1.105085   -0.000000
      6          1           0       -0.975510   -0.078604   -0.000000
      7          1           0       -0.975510   -1.262294    0.000000
      8          1           0       -0.000000   -0.591845    0.000000
      9          1           0        0.975510    0.078604   -0.000000
     10          1           0        0.975510   -1.105085    0.000000
     11          1           0       -0.000000   -1.775534    0.000000
     12          1           0       -0.975510   -2.445984    0.000000
 ---------------------------------------------------------------------

 SCF Done:  E(RHF) =  -5.45989326702     A.U. after   14 cycles
 E2 =    -0.1555062363D+00 EUMP2 =    -0.56153995033216D+01

 The electronic state is 1-AG.
 Alpha  occ. eigenvalues --   -0.89261  -0.75197  -0.55390  -0.54603  -0.30355
 Alpha  occ. eigenvalues --   -0.08412
 Alpha virt. eigenvalues --   -0.11300   0.18533   0.22826   0.44396   0.52554
 Alpha virt. eigenvalues --    0.62151

 Mulliken charges:
               1
     1  H    0.271145
     2  H   -0.081089
     3  H    0.009801
     4  H    0.014265
     5  H   -0.191686
     6  H   -0.022437
     7  H    0.009801
     8  H    0.014265
     9  H   -0.022437
    10  H   -0.191686
    11  H   -0.081089
    12  H    0.271145
 Sum of Mulliken charges =  -0.00000

 Dipole moment (field-independent basis, Debye):
    X=             -0.0000    Y=             -0.0000    Z=              0.0000  Tot=              0.0000
 Quadrupole moment (field-independent basis, Debye-Ang):
   XX=            -20.5890   YY=             -4.5569   ZZ=            -15.1582
   XY=              9.6156   XZ=             -0.0000   YZ=             -0.0000

 Normal termination of Gaussian 09 at Fri Feb 17 15:05:47 2017.
