 Gaussian 09, Revision E.01,
 Gaussian 09:  ES64L-G09RevE.01 30-Nov-2015

 ----------------------------------------------------------------------
 #rhf/gen scf(symm,tight,novaracc,noincfock,fulldiag) stable(crhf) gues
 s=read geom=nocrowd test
 ----------------------------------------------------------------------

 hf stability analysis of h12 triangular lattice, y= 0.6566033129082584
 6
 ----------------------------------------------------------------------
 Symbolic Z-matrix:
 Charge =  0 Multiplicity = 1

                         Standard orientation:
 ---------------------------------------------------------------------
 Center     Atomic      Atomic             Coordinates (Angstroms)
 Number     Number       Type             X           Y           Z
 ---------------------------------------------------------------------
      1          1           0        1.052212    1.334425   -0.000000
      2          1           0        0.000000    1.646105   -0.000000
      3          1           0        1.052212    0.237022   -0.000000
      4          1           0        0.000000    0.548702   -0.000000
      5          1           0       -1.052212    1.957784   -0.000000
      6          1           0       -1.052212    0.860381    0.000000
      7          1           0       -1.052212   -0.237022   -0.000000
      8          1           0       -0.000000   -0.548702    0.000000
      9          1           0        1.052212   -0.860381    0.000000
     10          1           0        1.052212   -1.957784    0.000000
     11          1           0       -0.000000   -1.646105    0.000000
     12          1           0       -1.052212   -1.334425    0.000000
 ---------------------------------------------------------------------

 SCF Done:  E(RHF) =  -5.78012409523     A.U. after    9 cycles
 E2 =    -0.1416233990D+00 EUMP2 =    -0.59217474942308D+01

 The electronic state is 1-AG.
 Alpha  occ. eigenvalues --   -0.92516  -0.75683  -0.63579  -0.50911  -0.39075
 Alpha  occ. eigenvalues --   -0.22856
 Alpha virt. eigenvalues --   -0.00994   0.19588   0.28668   0.37998   0.64258
 Alpha virt. eigenvalues --    0.85295

 Mulliken charges:
               1
     1  H   -0.053341
     2  H   -0.058266
     3  H    0.000335
     4  H   -0.047404
     5  H    0.180944
     6  H   -0.022269
     7  H    0.000335
     8  H   -0.047404
     9  H   -0.022269
    10  H    0.180944
    11  H   -0.058266
    12  H   -0.053341
 Sum of Mulliken charges =   0.00000

 Dipole moment (field-independent basis, Debye):
    X=             -0.0000    Y=             -0.0000    Z=              0.0000  Tot=              0.0000
 Quadrupole moment (field-independent basis, Debye-Ang):
   XX=            -19.6827   YY=            -12.4816   ZZ=            -15.1941
   XY=             -4.9627   XZ=              0.0000   YZ=             -0.0000

 Normal termination of Gaussian 09 at Fri Feb 17 15:00:25 2017.
