 Gaussian 09, Revision E.01,
 Gaussian 09:  ES64L-G09RevE.01 30-Nov-2015

 ----------------------------------------------------------------------
 #rhf/gen scf(symm,tight,novaracc,noincfock,fulldiag) stable(crhf) gues
 s=read geom=nocrowd test
 ----------------------------------------------------------------------

 hf stability analysis of h12 triangular lattice, y= 0.6868150944822820
 6
 ----------------------------------------------------------------------
 Symbolic Z-matrix:
 Charge =  0 Multiplicity = 1

                         Standard orientation:
 ---------------------------------------------------------------------
 Center     Atomic      Atomic             Coordinates (Angstroms)
 Number     Number       Type             X           Y           Z
 ---------------------------------------------------------------------
      1          1           0        1.063729    1.411864   -0.000000
      2          1           0        0.000000    1.628282   -0.000000
      3          1           0        1.063729    0.326342   -0.000000
      4          1           0        0.000000    0.542761   -0.000000
      5          1           0       -1.063729    1.844700   -0.000000
      6          1           0       -1.063729    0.759179   -0.000000
      7          1           0       -1.063729   -0.326342   -0.000000
      8          1           0       -0.000000   -0.542761   -0.000000
      9          1           0        1.063729   -0.759179    0.000000
     10          1           0        1.063729   -1.844700    0.000000
     11          1           0       -0.000000   -1.628282   -0.000000
     12          1           0       -1.063729   -1.411864   -0.000000
 ---------------------------------------------------------------------

 SCF Done:  E(RHF) =  -5.82118521573     A.U. after    8 cycles
 E2 =    -0.1396053644D+00 EUMP2 =    -0.59607905800888D+01

 The electronic state is 1-AG.
 Alpha  occ. eigenvalues --   -0.93171  -0.75619  -0.65053  -0.49475  -0.41126
 Alpha  occ. eigenvalues --   -0.25055
 Alpha virt. eigenvalues --    0.01908   0.19059   0.24278   0.43409   0.62526
 Alpha virt. eigenvalues --    0.92828

 Mulliken charges:
               1
     1  H   -0.015913
     2  H   -0.057898
     3  H   -0.003003
     4  H   -0.050376
     5  H    0.147187
     6  H   -0.019998
     7  H   -0.003003
     8  H   -0.050376
     9  H   -0.019998
    10  H    0.147187
    11  H   -0.057898
    12  H   -0.015913
 Sum of Mulliken charges =  -0.00000

 Dipole moment (field-independent basis, Debye):
    X=              0.0000    Y=              0.0000    Z=              0.0000  Tot=              0.0000
 Quadrupole moment (field-independent basis, Debye-Ang):
   XX=            -19.5100   YY=            -13.8341   ZZ=            -15.1958
   XY=             -3.4657   XZ=             -0.0000   YZ=             -0.0000

 Normal termination of Gaussian 09 at Fri Feb 17 15:00:58 2017.
