 Gaussian 09, Revision E.01,
 Gaussian 09:  ES64L-G09RevE.01 30-Nov-2015

 ----------------------------------------------------------------------
 #rhf/gen scf(symm,tight,novaracc,noincfock,fulldiag) stable(crhf) gues
 s=read geom=nocrowd test
 ----------------------------------------------------------------------

 hf stability analysis of h12 triangular lattice, y= 0.6417319999662348
 7
 ----------------------------------------------------------------------
 Symbolic Z-matrix:
 Charge =  0 Multiplicity = 1

                         Standard orientation:
 ---------------------------------------------------------------------
 Center     Atomic      Atomic             Coordinates (Angstroms)
 Number     Number       Type             X           Y           Z
 ---------------------------------------------------------------------
      1          1           0        1.044888    1.297859    0.000000
      2          1           0        0.000000    1.657643    0.000000
      3          1           0        1.044888    0.192764    0.000000
      4          1           0        0.000000    0.552548    0.000000
      5          1           0       -1.044888    2.017426    0.000000
      6          1           0       -1.044888    0.912331    0.000000
      7          1           0       -1.044888   -0.192764   -0.000000
      8          1           0       -0.000000   -0.552548    0.000000
      9          1           0        1.044888   -0.912331    0.000000
     10          1           0        1.044888   -2.017426    0.000000
     11          1           0       -0.000000   -1.657643    0.000000
     12          1           0       -1.044888   -1.297859    0.000000
 ---------------------------------------------------------------------

 SCF Done:  E(RHF) =  -5.75297954011     A.U. after   10 cycles
 E2 =    -0.1430201946D+00 EUMP2 =    -0.58959997347307D+01

 The electronic state is 1-AG.
 Alpha  occ. eigenvalues --   -0.92101  -0.75684  -0.62678  -0.51570  -0.38011
 Alpha  occ. eigenvalues --   -0.21454
 Alpha virt. eigenvalues --   -0.02443   0.19923   0.31059   0.35234   0.64746
 Alpha virt. eigenvalues --    0.80952

 Mulliken charges:
               1
     1  H   -0.072451
     2  H   -0.058582
     3  H    0.001767
     4  H   -0.045439
     5  H    0.197594
     6  H   -0.022888
     7  H    0.001767
     8  H   -0.045439
     9  H   -0.022888
    10  H    0.197594
    11  H   -0.058582
    12  H   -0.072451
 Sum of Mulliken charges =   0.00000

 Dipole moment (field-independent basis, Debye):
    X=              0.0000    Y=             -0.0000    Z=              0.0000  Tot=              0.0000
 Quadrupole moment (field-independent basis, Debye-Ang):
   XX=            -19.7905   YY=            -11.6082   ZZ=            -15.1928
   XY=             -5.7086   XZ=              0.0000   YZ=             -0.0000

 Normal termination of Gaussian 09 at Fri Feb 17 15:00:05 2017.
