 Gaussian 09, Revision E.01,
 Gaussian 09:  ES64L-G09RevE.01 30-Nov-2015

 ----------------------------------------------------------------------
 #rhf/gen scf(symm,tight,novaracc,noincfock,fulldiag) stable(crhf) gues
 s=read geom=nocrowd test
 ----------------------------------------------------------------------

 hf stability analysis of h12 triangular lattice, y= 0.5277127250247978
 2
 ----------------------------------------------------------------------
 Symbolic Z-matrix:
 Charge =  0 Multiplicity = 1

                         Standard orientation:
 ---------------------------------------------------------------------
 Center     Atomic      Atomic             Coordinates (Angstroms)
 Number     Number       Type             X           Y           Z
 ---------------------------------------------------------------------
      1          1           0        0.950620    1.065865   -0.000000
      2          1           0       -0.000000    1.822023    0.000000
      3          1           0        0.950620   -0.148816   -0.000000
      4          1           0       -0.000000    0.607341    0.000000
      5          1           0       -0.950620    2.578180    0.000000
      6          1           0       -0.950620    1.363498    0.000000
      7          1           0       -0.950620    0.148816   -0.000000
      8          1           0       -0.000000   -0.607341    0.000000
      9          1           0        0.950620   -1.363498    0.000000
     10          1           0        0.950620   -2.578180    0.000000
     11          1           0       -0.000000   -1.822023    0.000000
     12          1           0       -0.950620   -1.065865   -0.000000
 ---------------------------------------------------------------------

 SCF Done:  E(RHF) =  -5.39698785761     A.U. after   20 cycles
 E2 =    -0.2193855682D+00 EUMP2 =    -0.56163734257785D+01

 The electronic state is 1-AG.
 Alpha  occ. eigenvalues --   -0.94263  -0.76176  -0.57501  -0.54013  -0.31451
 Alpha  occ. eigenvalues --   -0.06223
 Alpha virt. eigenvalues --   -0.14559   0.18343   0.23695   0.32913   0.48918
 Alpha virt. eigenvalues --    0.56640

 Mulliken charges:
               1
     1  H   -0.126141
     2  H   -0.048778
     3  H    0.016204
     4  H    0.119082
     5  H    0.079412
     6  H   -0.039779
     7  H    0.016204
     8  H    0.119082
     9  H   -0.039779
    10  H    0.079412
    11  H   -0.048778
    12  H   -0.126141
 Sum of Mulliken charges =  -0.00000

 Dipole moment (field-independent basis, Debye):
    X=             -0.0000    Y=              0.0000    Z=              0.0000  Tot=              0.0000
 Quadrupole moment (field-independent basis, Debye-Ang):
   XX=            -19.4748   YY=            -16.5292   ZZ=            -15.0503
   XY=             -2.6824   XZ=             -0.0000   YZ=              0.0000

 Normal termination of Gaussian 09 at Fri Feb 17 14:58:04 2017.
