 Gaussian 09, Revision E.01,
 Gaussian 09:  ES64L-G09RevE.01 30-Nov-2015

 ----------------------------------------------------------------------
 #rhf/gen scf(symm,tight,novaracc,noincfock,fulldiag) stable(crhf) gues
 s=read geom=nocrowd test
 ----------------------------------------------------------------------

 ----------------------------------------------------------------------
 hf stability analysis of h12 triangular lattice, y= 1.7868378553155890
 ----------------------------------------------------------------------
 Symbolic Z-matrix:
 Charge =  0 Multiplicity = 1

                         Standard orientation:
 ---------------------------------------------------------------------
 Center     Atomic      Atomic             Coordinates (Angstroms)
 Number     Number       Type             X           Y           Z
 ---------------------------------------------------------------------
      1          1           0        0.635913    4.424551   -0.000000
      2          1           0        0.000000    2.723726   -0.000000
      3          1           0        0.635913    2.608734   -0.000000
      4          1           0        0.000000    0.907909   -0.000000
      5          1           0       -0.635913    1.022900    0.000000
      6          1           0       -0.635913   -0.792917    0.000000
      7          1           0       -0.635913   -2.608734   -0.000000
      8          1           0       -0.000000   -0.907909    0.000000
      9          1           0        0.635913    0.792917    0.000000
     10          1           0        0.635913   -1.022900    0.000000
     11          1           0       -0.000000   -2.723726    0.000000
     12          1           0       -0.635913   -4.424551    0.000000
 ---------------------------------------------------------------------

 SCF Done:  E(RHF) =  -5.29841877294     A.U. after   11 cycles
 E2 =    -0.8028648173D+00 EUMP2 =    -0.61012835902873D+01

 The electronic state is 1-AG.
 Alpha  occ. eigenvalues --   -0.86987  -0.80439  -0.65522  -0.63875  -0.19618
 Alpha  occ. eigenvalues --   -0.18363
 Alpha virt. eigenvalues --   -0.12288  -0.08695   0.50222   0.51495   0.93316
 Alpha virt. eigenvalues --    1.10334

 Mulliken charges:
               1
     1  H   -0.018443
     2  H   -0.000732
     3  H   -0.016512
     4  H   -0.293888
     5  H    0.139967
     6  H    0.189607
     7  H   -0.016512
     8  H   -0.293888
     9  H    0.189607
    10  H    0.139967
    11  H   -0.000732
    12  H   -0.018443
 Sum of Mulliken charges =  -0.00000

 Dipole moment (field-independent basis, Debye):
    X=              0.0000    Y=             -0.0000    Z=              0.0000  Tot=              0.0000
 Quadrupole moment (field-independent basis, Debye-Ang):
   XX=            -14.6927   YY=            -25.1714   ZZ=            -14.9983
   XY=             -0.9322   XZ=              0.0000   YZ=              0.0000

 Normal termination of Gaussian 09 at Fri Feb 17 15:09:17 2017.
