 Gaussian 09, Revision E.01,
 Gaussian 09:  ES64L-G09RevE.01 30-Nov-2015

 ----------------------------------------------------------------------
 #rhf/gen scf(symm,tight,novaracc,noincfock,fulldiag) stable(crhf) gues
 s=read geom=nocrowd test
 ----------------------------------------------------------------------

 hf stability analysis of h12 triangular lattice, y= 0.5129460835266602
 7
 ----------------------------------------------------------------------
 Symbolic Z-matrix:
 Charge =  0 Multiplicity = 1

                         Standard orientation:
 ---------------------------------------------------------------------
 Center     Atomic      Atomic             Coordinates (Angstroms)
 Number     Number       Type             X           Y           Z
 ---------------------------------------------------------------------
      1          1           0        0.933522    1.043895   -0.000000
      2          1           0       -0.000000    1.855393    0.000000
      3          1           0        0.933522   -0.193034   -0.000000
      4          1           0       -0.000000    0.618464    0.000000
      5          1           0       -0.933522    2.666892    0.000000
      6          1           0       -0.933522    1.429963    0.000000
      7          1           0       -0.933522    0.193034   -0.000000
      8          1           0        0.000000   -0.618464    0.000000
      9          1           0        0.933522   -1.429963    0.000000
     10          1           0        0.933522   -2.666892    0.000000
     11          1           0        0.000000   -1.855393    0.000000
     12          1           0       -0.933522   -1.043895   -0.000000
 ---------------------------------------------------------------------

 SCF Done:  E(RHF) =  -5.39648868986     A.U. after   21 cycles
 E2 =    -0.2881673348D+00 EUMP2 =    -0.56846560246925D+01

 The electronic state is 1-AG.
 Alpha  occ. eigenvalues --   -0.96407  -0.77111  -0.58261  -0.54120  -0.32724
 Alpha  occ. eigenvalues --   -0.06262
 Alpha virt. eigenvalues --   -0.16006   0.19943   0.22822   0.27863   0.49043
 Alpha virt. eigenvalues --    0.53940

 Mulliken charges:
               1
     1  H   -0.103680
     2  H    0.005068
     3  H    0.067856
     4  H    0.131822
     5  H   -0.014623
     6  H   -0.086444
     7  H    0.067856
     8  H    0.131822
     9  H   -0.086444
    10  H   -0.014623
    11  H    0.005068
    12  H   -0.103680
 Sum of Mulliken charges =   0.00000

 Dipole moment (field-independent basis, Debye):
    X=             -0.0000    Y=              0.0000    Z=             -0.0000  Tot=              0.0000
 Quadrupole moment (field-independent basis, Debye-Ang):
   XX=            -19.0979   YY=            -22.5438   ZZ=            -15.0354
   XY=              0.6429   XZ=             -0.0000   YZ=              0.0000

 Normal termination of Gaussian 09 at Fri Feb 17 14:57:49 2017.
