 Gaussian 09, Revision E.01,
 Gaussian 09:  ES64L-G09RevE.01 30-Nov-2015

 ----------------------------------------------------------------------
 #rhf/gen scf(symm,tight,novaracc,noincfock,fulldiag) stable(crhf) gues
 s=read geom=nocrowd test
 ----------------------------------------------------------------------

 hf stability analysis of h12 triangular lattice, y= 0.4458672966047664
 3
 ----------------------------------------------------------------------
 Symbolic Z-matrix:
 Charge =  0 Multiplicity = 1

                         Standard orientation:
 ---------------------------------------------------------------------
 Center     Atomic      Atomic             Coordinates (Angstroms)
 Number     Number       Type             X           Y           Z
 ---------------------------------------------------------------------
      1          1           0        0.843152    0.975073    0.000000
      2          1           0        0.000000    2.054258    0.000000
      3          1           0        0.843152   -0.394432    0.000000
      4          1           0        0.000000    0.684753    0.000000
      5          1           0       -0.843152    3.133443    0.000000
      6          1           0       -0.843152    1.763937    0.000000
      7          1           0       -0.843152    0.394432    0.000000
      8          1           0       -0.000000   -0.684753    0.000000
      9          1           0        0.843152   -1.763937   -0.000000
     10          1           0        0.843152   -3.133443   -0.000000
     11          1           0       -0.000000   -2.054258    0.000000
     12          1           0       -0.843152   -0.975073    0.000000
 ---------------------------------------------------------------------

 SCF Done:  E(RHF) =  -5.38050317083     A.U. after   14 cycles
 E2 =    -0.5865285140D+00 EUMP2 =    -0.59670316848260D+01

 The electronic state is 1-AG.
 Alpha  occ. eigenvalues --   -0.93784  -0.77339  -0.57361  -0.52434  -0.29121
 Alpha  occ. eigenvalues --   -0.12946
 Alpha virt. eigenvalues --   -0.22052   0.04157   0.31397   0.35836   0.49170
 Alpha virt. eigenvalues --    0.64858

 Mulliken charges:
               1
     1  H   -0.166034
     2  H    0.106028
     3  H    0.143168
     4  H    0.053012
     5  H   -0.050008
     6  H   -0.086166
     7  H    0.143168
     8  H    0.053012
     9  H   -0.086166
    10  H   -0.050008
    11  H    0.106028
    12  H   -0.166034
 Sum of Mulliken charges =  -0.00000

 Dipole moment (field-independent basis, Debye):
    X=              0.0000    Y=             -0.0000    Z=             -0.0000  Tot=              0.0000
 Quadrupole moment (field-independent basis, Debye-Ang):
   XX=            -19.0596   YY=            -23.2263   ZZ=            -15.1281
   XY=              0.8904   XZ=              0.0000   YZ=             -0.0000

 Normal termination of Gaussian 09 at Fri Feb 17 14:56:42 2017.
