 Gaussian 09, Revision E.01,
 Gaussian 09:  ES64L-G09RevE.01 30-Nov-2015

 ----------------------------------------------------------------------
 #rhf/gen scf(symm,tight,novaracc,noincfock,fulldiag) stable(crhf) gues
 s=read geom=nocrowd test
 ----------------------------------------------------------------------

 hf stability analysis of h12 triangular lattice, y= 0.6035568768658181
 6
 ----------------------------------------------------------------------
 Symbolic Z-matrix:
 Charge =  0 Multiplicity = 1

                         Standard orientation:
 ---------------------------------------------------------------------
 Center     Atomic      Atomic             Coordinates (Angstroms)
 Number     Number       Type             X           Y           Z
 ---------------------------------------------------------------------
      1          1           0        1.020890    1.209670   -0.000000
      2          1           0        0.000000    1.696609   -0.000000
      3          1           0        1.020890    0.078597   -0.000000
      4          1           0        0.000000    0.565536   -0.000000
      5          1           0       -1.020890    2.183549   -0.000000
      6          1           0       -1.020890    1.052476    0.000000
      7          1           0       -1.020890   -0.078597   -0.000000
      8          1           0       -0.000000   -0.565536   -0.000000
      9          1           0        1.020890   -1.052476    0.000000
     10          1           0        1.020890   -2.183549   -0.000000
     11          1           0       -0.000000   -1.696609   -0.000000
     12          1           0       -1.020890   -1.209670   -0.000000
 ---------------------------------------------------------------------

 SCF Done:  E(RHF) =  -5.65836698464     A.U. after   10 cycles
 E2 =    -0.1486323606D+00 EUMP2 =    -0.58069993451972D+01

 The electronic state is 1-AG.
 Alpha  occ. eigenvalues --   -0.90758  -0.75556  -0.59858  -0.53088  -0.35072
 Alpha  occ. eigenvalues --   -0.16850
 Alpha virt. eigenvalues --   -0.06102   0.21009   0.28003   0.37734   0.64869
 Alpha virt. eigenvalues --    0.68654

 Mulliken charges:
               1
     1  H   -0.123925
     2  H   -0.060417
     3  H    0.004078
     4  H   -0.038052
     5  H    0.240008
     6  H   -0.021692
     7  H    0.004078
     8  H   -0.038052
     9  H   -0.021692
    10  H    0.240008
    11  H   -0.060417
    12  H   -0.123925
 Sum of Mulliken charges =   0.00000

 Dipole moment (field-independent basis, Debye):
    X=             -0.0000    Y=              0.0000    Z=              0.0000  Tot=              0.0000
 Quadrupole moment (field-independent basis, Debye-Ang):
   XX=            -20.1317   YY=             -8.6802   ZZ=            -15.1875
   XY=             -7.6429   XZ=              0.0000   YZ=              0.0000

 Normal termination of Gaussian 09 at Fri Feb 17 14:59:24 2017.
