 Gaussian 09, Revision E.01,
 Gaussian 09:  ES64L-G09RevE.01 30-Nov-2015

 ----------------------------------------------------------------------
 #rhf/gen scf(symm,tight,novaracc,noincfock,fulldiag) stable(crhf) gues
 s=read geom=nocrowd test
 ----------------------------------------------------------------------

 hf stability analysis of h12 triangular lattice, y= 0.8873592600485348
 3
 ----------------------------------------------------------------------
 Symbolic Z-matrix:
 Charge =  0 Multiplicity = 1

                         Standard orientation:
 ---------------------------------------------------------------------
 Center     Atomic      Atomic             Coordinates (Angstroms)
 Number     Number       Type             X           Y           Z
 ---------------------------------------------------------------------
      1          1           0        1.049408    1.981380    0.000000
      2          1           0        0.000000    1.650503    0.000000
      3          1           0        1.049408    0.881045    0.000000
      4          1           0        0.000000    0.550168    0.000000
      5          1           0       -1.049408    1.319625   -0.000000
      6          1           0       -1.049408    0.219290   -0.000000
      7          1           0       -1.049408   -0.881045    0.000000
      8          1           0       -0.000000   -0.550168    0.000000
      9          1           0        1.049408   -0.219290   -0.000000
     10          1           0        1.049408   -1.319625    0.000000
     11          1           0       -0.000000   -1.650503    0.000000
     12          1           0       -1.049408   -1.981380    0.000000
 ---------------------------------------------------------------------

 SCF Done:  E(RHF) =  -5.76982822159     A.U. after   10 cycles
 E2 =    -0.1421462465D+00 EUMP2 =    -0.59119744680946D+01

 The electronic state is 1-AG.
 Alpha  occ. eigenvalues --   -0.92357  -0.75686  -0.63231  -0.51180  -0.38653
 Alpha  occ. eigenvalues --   -0.22320
 Alpha virt. eigenvalues --   -0.01576   0.19717   0.29611   0.36895   0.64484
 Alpha virt. eigenvalues --    0.83595

 Mulliken charges:
               1
     1  H    0.187622
     2  H   -0.058378
     3  H   -0.022567
     4  H   -0.046660
     5  H   -0.060948
     6  H    0.000931
     7  H   -0.022567
     8  H   -0.046660
     9  H    0.000931
    10  H   -0.060948
    11  H   -0.058378
    12  H    0.187622
 Sum of Mulliken charges =  -0.00000

 Dipole moment (field-independent basis, Debye):
    X=             -0.0000    Y=             -0.0000    Z=              0.0000  Tot=              0.0000
 Quadrupole moment (field-independent basis, Debye-Ang):
   XX=            -19.7241   YY=            -12.1485   ZZ=            -15.1936
   XY=              5.2612   XZ=             -0.0000   YZ=             -0.0000

 Normal termination of Gaussian 09 at Fri Feb 17 15:04:01 2017.
