 Gaussian 09, Revision E.01,
 Gaussian 09:  ES64L-G09RevE.01 30-Nov-2015

 ----------------------------------------------------------------------
 #rhf/gen scf(symm,tight,novaracc,noincfock,fulldiag) stable(crhf) gues
 s=read geom=nocrowd test
 ----------------------------------------------------------------------

 hf stability analysis of h12 triangular lattice, y= 0.4363273688766223
 2
 ----------------------------------------------------------------------
 Symbolic Z-matrix:
 Charge =  0 Multiplicity = 1

                         Standard orientation:
 ---------------------------------------------------------------------
 Center     Atomic      Atomic             Coordinates (Angstroms)
 Number     Number       Type             X           Y           Z
 ---------------------------------------------------------------------
      1          1           0        0.828759    0.969928    0.000000
      2          1           0        0.000000    2.089932    0.000000
      3          1           0        0.828759   -0.423360   -0.000000
      4          1           0        0.000000    0.696644    0.000000
      5          1           0       -0.828759    3.209936    0.000000
      6          1           0       -0.828759    1.816648    0.000000
      7          1           0       -0.828759    0.423360   -0.000000
      8          1           0       -0.000000   -0.696644    0.000000
      9          1           0        0.828759   -1.816648    0.000000
     10          1           0        0.828759   -3.209936    0.000000
     11          1           0       -0.000000   -2.089932    0.000000
     12          1           0       -0.828759   -0.969928    0.000000
 ---------------------------------------------------------------------

 SCF Done:  E(RHF) =  -5.36873645284     A.U. after   15 cycles
 E2 =    -0.7086013241D+00 EUMP2 =    -0.60773377769268D+01

 The electronic state is 1-AG.
 Alpha  occ. eigenvalues --   -0.93249  -0.77431  -0.58103  -0.51579  -0.28505
 Alpha  occ. eigenvalues --   -0.13354
 Alpha virt. eigenvalues --   -0.22717   0.01891   0.32496   0.38310   0.49116
 Alpha virt. eigenvalues --    0.67575

 Mulliken charges:
               1
     1  H   -0.175855
     2  H    0.126953
     3  H    0.198738
     4  H    0.006247
     5  H   -0.066826
     6  H   -0.089256
     7  H    0.198738
     8  H    0.006247
     9  H   -0.089256
    10  H   -0.066826
    11  H    0.126953
    12  H   -0.175855
 Sum of Mulliken charges =   0.00000

 Dipole moment (field-independent basis, Debye):
    X=              0.0000    Y=             -0.0000    Z=             -0.0000  Tot=              0.0000
 Quadrupole moment (field-independent basis, Debye-Ang):
   XX=            -18.6024   YY=            -24.7414   ZZ=            -15.1035
   XY=              1.2509   XZ=             -0.0000   YZ=              0.0000

 Normal termination of Gaussian 09 at Fri Feb 17 14:56:33 2017.
