 Gaussian 09, Revision E.01,
 Gaussian 09:  ES64L-G09RevE.01 30-Nov-2015

 ----------------------------------------------------------------------
 #rhf/gen scf(symm,tight,novaracc,noincfock,fulldiag) stable(crhf) gues
 s=read geom=nocrowd test
 ----------------------------------------------------------------------

 ----------------------------------------------------------------------
 hf stability analysis of h12 triangular lattice, y= 1.6660489144325314
 ----------------------------------------------------------------------
 Symbolic Z-matrix:
 Charge =  0 Multiplicity = 1

                         Standard orientation:
 ---------------------------------------------------------------------
 Center     Atomic      Atomic             Coordinates (Angstroms)
 Number     Number       Type             X           Y           Z
 ---------------------------------------------------------------------
      1          1           0        0.678554    4.113129    0.000000
      2          1           0       -0.000000    2.552561    0.000000
      3          1           0        0.678554    2.411422    0.000000
      4          1           0       -0.000000    0.850854    0.000000
      5          1           0       -0.678554    0.991993    0.000000
      6          1           0       -0.678554   -0.709714   -0.000000
      7          1           0       -0.678554   -2.411422   -0.000000
      8          1           0       -0.000000   -0.850854   -0.000000
      9          1           0        0.678554    0.709714   -0.000000
     10          1           0        0.678554   -0.991993   -0.000000
     11          1           0       -0.000000   -2.552561   -0.000000
     12          1           0       -0.678554   -4.113129   -0.000000
 ---------------------------------------------------------------------

 SCF Done:  E(RHF) =  -5.38082769367     A.U. after   11 cycles
 E2 =    -0.7236300221D+00 EUMP2 =    -0.61044577157360D+01

 The electronic state is 1-AG.
 Alpha  occ. eigenvalues --   -0.87332  -0.78903  -0.63890  -0.60683  -0.21407
 Alpha  occ. eigenvalues --   -0.16949
 Alpha virt. eigenvalues --   -0.11950  -0.10094   0.47087   0.49217   0.81182
 Alpha virt. eigenvalues --    0.99851

 Mulliken charges:
               1
     1  H   -0.038653
     2  H    0.004997
     3  H   -0.022160
     4  H   -0.251225
     5  H    0.111230
     6  H    0.195810
     7  H   -0.022160
     8  H   -0.251225
     9  H    0.195810
    10  H    0.111230
    11  H    0.004997
    12  H   -0.038653
 Sum of Mulliken charges =   0.00000

 Dipole moment (field-independent basis, Debye):
    X=             -0.0000    Y=             -0.0000    Z=             -0.0000  Tot=              0.0000
 Quadrupole moment (field-independent basis, Debye-Ang):
   XX=            -14.3996   YY=            -28.3871   ZZ=            -14.9221
   XY=             -1.6284   XZ=             -0.0000   YZ=             -0.0000

 Normal termination of Gaussian 09 at Fri Feb 17 15:09:01 2017.
