 Gaussian 09, Revision E.01,
 Gaussian 09:  ES64L-G09RevE.01 30-Nov-2015

 ----------------------------------------------------------------------
 #rhf/gen scf(symm,tight,novaracc,noincfock,fulldiag) stable(crhf) gues
 s=read geom=nocrowd test
 ----------------------------------------------------------------------

 hf stability analysis of h12 triangular lattice, y= 0.4102222107631511
 3
 ----------------------------------------------------------------------
 Symbolic Z-matrix:
 Charge =  0 Multiplicity = 1

                         Standard orientation:
 ---------------------------------------------------------------------
 Center     Atomic      Atomic             Coordinates (Angstroms)
 Number     Number       Type             X           Y           Z
 ---------------------------------------------------------------------
      1          1           0        0.787668    0.962571   -0.000000
      2          1           0        0.000000    2.198962   -0.000000
      3          1           0        0.787668   -0.503403   -0.000000
      4          1           0        0.000000    0.732987   -0.000000
      5          1           0       -0.787668    3.435352   -0.000000
      6          1           0       -0.787668    1.969378   -0.000000
      7          1           0       -0.787668    0.503403   -0.000000
      8          1           0       -0.000000   -0.732987   -0.000000
      9          1           0        0.787668   -1.969378    0.000000
     10          1           0        0.787668   -3.435352   -0.000000
     11          1           0       -0.000000   -2.198962   -0.000000
     12          1           0       -0.787668   -0.962571   -0.000000
 ---------------------------------------------------------------------

 SCF Done:  E(RHF) =  -5.37476108105     A.U. after   18 cycles
 E2 =    -0.1126316215D+01 EUMP2 =    -0.65010772957083D+01

 The electronic state is 1-AG.
 Alpha  occ. eigenvalues --   -0.91483  -0.78166  -0.60387  -0.51727  -0.27257
 Alpha  occ. eigenvalues --   -0.11903
 Alpha virt. eigenvalues --   -0.21529  -0.01505   0.38261   0.43497   0.53845
 Alpha virt. eigenvalues --    0.74522

 Mulliken charges:
               1
     1  H   -0.022112
     2  H    0.082587
     3  H    0.324611
     4  H   -0.181996
     5  H   -0.135459
     6  H   -0.067630
     7  H    0.324611
     8  H   -0.181996
     9  H   -0.067630
    10  H   -0.135459
    11  H    0.082587
    12  H   -0.022112
 Sum of Mulliken charges =   0.00000

 Dipole moment (field-independent basis, Debye):
    X=             -0.0000    Y=             -0.0000    Z=              0.0000  Tot=              0.0000
 Quadrupole moment (field-independent basis, Debye-Ang):
   XX=            -14.7676   YY=            -36.4223   ZZ=            -14.8219
   XY=              4.2065   XZ=             -0.0000   YZ=              0.0000

 Normal termination of Gaussian 09 at Fri Feb 17 14:56:09 2017.
