 Gaussian 09, Revision E.01,
 Gaussian 09:  ES64L-G09RevE.01 30-Nov-2015

 ----------------------------------------------------------------------
 #rhf/gen scf(symm,tight,novaracc,noincfock,fulldiag) stable(crhf) gues
 s=read geom=nocrowd test
 ----------------------------------------------------------------------

 ----------------------------------------------------------------------
 hf stability analysis of h12 triangular lattice, y= 1.3961024673370386
 ----------------------------------------------------------------------
 Symbolic Z-matrix:
 Charge =  0 Multiplicity = 1

                         Standard orientation:
 ---------------------------------------------------------------------
 Center     Atomic      Atomic             Coordinates (Angstroms)
 Number     Number       Type             X           Y           Z
 ---------------------------------------------------------------------
      1          1           0        0.793029    3.405253    0.000000
      2          1           0        0.000000    2.184095    0.000000
      3          1           0        0.793029    1.949189   -0.000000
      4          1           0        0.000000    0.728032    0.000000
      5          1           0       -0.793029    0.962938    0.000000
      6          1           0       -0.793029   -0.493126    0.000000
      7          1           0       -0.793029   -1.949189   -0.000000
      8          1           0       -0.000000   -0.728032   -0.000000
      9          1           0        0.793029    0.493126    0.000000
     10          1           0        0.793029   -0.962938   -0.000000
     11          1           0       -0.000000   -2.184095   -0.000000
     12          1           0       -0.793029   -3.405253   -0.000000
 ---------------------------------------------------------------------

 SCF Done:  E(RHF) =  -5.36986197373     A.U. after   16 cycles
 E2 =    -0.1480694004D+01 EUMP2 =    -0.68505559777081D+01

 The electronic state is 1-AG.
 Alpha  occ. eigenvalues --   -0.91771  -0.78140  -0.60200  -0.51387  -0.27498
 Alpha  occ. eigenvalues --   -0.11836
 Alpha virt. eigenvalues --   -0.21981  -0.01069   0.37616   0.43014   0.52801
 Alpha virt. eigenvalues --    0.73471

 Mulliken charges:
               1
     1  H   -0.137007
     2  H    0.095537
     3  H   -0.074356
     4  H   -0.174421
     5  H   -0.044905
     6  H    0.335152
     7  H   -0.074356
     8  H   -0.174421
     9  H    0.335152
    10  H   -0.044905
    11  H    0.095537
    12  H   -0.137007
 Sum of Mulliken charges =  -0.00000

 Dipole moment (field-independent basis, Debye):
    X=              0.0000    Y=             -0.0000    Z=              0.0000  Tot=              0.0000
 Quadrupole moment (field-independent basis, Debye-Ang):
   XX=            -15.0430   YY=            -35.9709   ZZ=            -14.8387
   XY=             -4.1367   XZ=             -0.0000   YZ=             -0.0000

 Normal termination of Gaussian 09 at Fri Feb 17 15:08:07 2017.
