 Gaussian 09, Revision E.01,
 Gaussian 09:  ES64L-G09RevE.01 30-Nov-2015

 ----------------------------------------------------------------------
 #rhf/gen scf(symm,tight,novaracc,noincfock,fulldiag) stable(crhf) gues
 s=read geom=nocrowd test
 ----------------------------------------------------------------------

 hf stability analysis of h12 triangular lattice, y= 0.7565274741654608
 4
 ----------------------------------------------------------------------
 Symbolic Z-matrix:
 Charge =  0 Multiplicity = 1

                         Standard orientation:
 ---------------------------------------------------------------------
 Center     Atomic      Atomic             Coordinates (Angstroms)
 Number     Number       Type             X           Y           Z
 ---------------------------------------------------------------------
      1          1           0        1.074549    1.602508    0.000000
      2          1           0        0.000000    1.611886   -0.000000
      3          1           0        1.074549    0.527918    0.000000
      4          1           0        0.000000    0.537295   -0.000000
      5          1           0       -1.074549    1.621263   -0.000000
      6          1           0       -1.074549    0.546673   -0.000000
      7          1           0       -1.074549   -0.527918    0.000000
      8          1           0       -0.000000   -0.537295   -0.000000
      9          1           0        1.074549   -0.546673   -0.000000
     10          1           0        1.074549   -1.621263   -0.000000
     11          1           0       -0.000000   -1.611886   -0.000000
     12          1           0       -1.074549   -1.602508    0.000000
 ---------------------------------------------------------------------

 SCF Done:  E(RHF) =  -5.85796790530     A.U. after    8 cycles
 E2 =    -0.1378651053D+00 EUMP2 =    -0.59958330105681D+01

 The electronic state is 1-AG.
 Alpha  occ. eigenvalues --   -0.93786  -0.75463  -0.66531  -0.46059  -0.45103
 Alpha  occ. eigenvalues --   -0.27106
 Alpha virt. eigenvalues --    0.06347   0.18252   0.18746   0.53230   0.56267
 Alpha virt. eigenvalues --    1.00851

 Mulliken charges:
               1
     1  H    0.063728
     2  H   -0.057653
     3  H   -0.011500
     4  H   -0.053102
     5  H    0.070815
     6  H   -0.012288
     7  H   -0.011500
     8  H   -0.053102
     9  H   -0.012288
    10  H    0.070815
    11  H   -0.057653
    12  H    0.063728
 Sum of Mulliken charges =   0.00000

 Dipole moment (field-independent basis, Debye):
    X=             -0.0000    Y=             -0.0000    Z=             -0.0000  Tot=              0.0000
 Quadrupole moment (field-independent basis, Debye-Ang):
   XX=            -19.3442   YY=            -15.0815   ZZ=            -15.1971
   XY=             -0.1510   XZ=             -0.0000   YZ=             -0.0000

 Normal termination of Gaussian 09 at Fri Feb 17 15:02:06 2017.
