 Gaussian 09, Revision E.01,
 Gaussian 09:  ES64L-G09RevE.01 30-Nov-2015

 ----------------------------------------------------------------------
 #rhf/gen scf(symm,tight,novaracc,noincfock,fulldiag) stable(crhf) gues
 s=read geom=nocrowd test
 ----------------------------------------------------------------------

 hf stability analysis of h12 triangular lattice, y= 0.4920397018298700
 0
 ----------------------------------------------------------------------
 Symbolic Z-matrix:
 Charge =  0 Multiplicity = 1

                         Standard orientation:
 ---------------------------------------------------------------------
 Center     Atomic      Atomic             Coordinates (Angstroms)
 Number     Number       Type             X           Y           Z
 ---------------------------------------------------------------------
      1          1           0        0.907519    1.016740   -0.000000
      2          1           0        0.000000    1.908556    0.000000
      3          1           0        0.907519   -0.255631   -0.000000
      4          1           0        0.000000    0.636185    0.000000
      5          1           0       -0.907519    2.800372    0.000000
      6          1           0       -0.907519    1.528002    0.000000
      7          1           0       -0.907519    0.255631   -0.000000
      8          1           0       -0.000000   -0.636185    0.000000
      9          1           0        0.907519   -1.528002    0.000000
     10          1           0        0.907519   -2.800372    0.000000
     11          1           0       -0.000000   -1.908556    0.000000
     12          1           0       -0.907519   -1.016740   -0.000000
 ---------------------------------------------------------------------

 SCF Done:  E(RHF) =  -5.40538482680     A.U. after   16 cycles
 E2 =    -0.3550029119D+00 EUMP2 =    -0.57603877387417D+01

 The electronic state is 1-AG.
 Alpha  occ. eigenvalues --   -0.96141  -0.77309  -0.56909  -0.54905  -0.32130
 Alpha  occ. eigenvalues --   -0.08262
 Alpha virt. eigenvalues --   -0.17919   0.17360   0.24120   0.27880   0.51968
 Alpha virt. eigenvalues --    0.52888

 Mulliken charges:
               1
     1  H   -0.110534
     2  H    0.040232
     3  H    0.085610
     4  H    0.120386
     5  H   -0.035093
     6  H   -0.100601
     7  H    0.085610
     8  H    0.120386
     9  H   -0.100601
    10  H   -0.035093
    11  H    0.040232
    12  H   -0.110534
 Sum of Mulliken charges =   0.00000

 Dipole moment (field-independent basis, Debye):
    X=             -0.0000    Y=              0.0000    Z=             -0.0000  Tot=              0.0000
 Quadrupole moment (field-independent basis, Debye-Ang):
   XX=            -19.1158   YY=            -23.5814   ZZ=            -15.0694
   XY=              1.2669   XZ=             -0.0000   YZ=              0.0000

 Normal termination of Gaussian 09 at Fri Feb 17 14:57:28 2017.
