 Gaussian 09, Revision E.01,
 Gaussian 09:  ES64L-G09RevE.01 30-Nov-2015

 ----------------------------------------------------------------------
 #rhf/gen scf(symm,tight,novaracc,noincfock,fulldiag) stable(crhf) gues
 s=read geom=nocrowd test
 ----------------------------------------------------------------------

 ----------------------------------------------------------------------
 hf stability analysis of h12 triangular lattice, y= 1.5217180473945009
 ----------------------------------------------------------------------
 Symbolic Z-matrix:
 Charge =  0 Multiplicity = 1

                         Standard orientation:
 ---------------------------------------------------------------------
 Center     Atomic      Atomic             Coordinates (Angstroms)
 Number     Number       Type             X           Y           Z
 ---------------------------------------------------------------------
      1          1           0        0.736274    3.737185   -0.000000
      2          1           0        0.000000    2.352455   -0.000000
      3          1           0        0.736274    2.168881   -0.000000
      4          1           0        0.000000    0.784152   -0.000000
      5          1           0       -0.736274    0.967725   -0.000000
      6          1           0       -0.736274   -0.600578    0.000000
      7          1           0       -0.736274   -2.168881   -0.000000
      8          1           0       -0.000000   -0.784152   -0.000000
      9          1           0        0.736274    0.600578    0.000000
     10          1           0        0.736274   -0.967725   -0.000000
     11          1           0       -0.000000   -2.352455   -0.000000
     12          1           0       -0.736274   -3.737185   -0.000000
 ---------------------------------------------------------------------

 SCF Done:  E(RHF) =  -5.40949900620     A.U. after   14 cycles
 E2 =    -0.6243852173D+00 EUMP2 =    -0.60338842234698D+01

 The electronic state is 1-AG.
 Alpha  occ. eigenvalues --   -0.88967  -0.78106  -0.61935  -0.55866  -0.24333
 Alpha  occ. eigenvalues --   -0.14318
 Alpha virt. eigenvalues --   -0.16797  -0.06116   0.42770   0.46507   0.65893
 Alpha virt. eigenvalues --    0.86150

 Mulliken charges:
               1
     1  H   -0.084935
     2  H    0.024814
     3  H   -0.034517
     4  H   -0.212556
     5  H    0.070237
     6  H    0.236959
     7  H   -0.034517
     8  H   -0.212556
     9  H    0.236959
    10  H    0.070237
    11  H    0.024814
    12  H   -0.084935
 Sum of Mulliken charges =   0.00000

 Dipole moment (field-independent basis, Debye):
    X=             -0.0000    Y=              0.0000    Z=              0.0000  Tot=              0.0000
 Quadrupole moment (field-independent basis, Debye-Ang):
   XX=            -14.1697   YY=            -33.5278   ZZ=            -14.8344
   XY=             -3.0325   XZ=             -0.0000   YZ=             -0.0000

 Normal termination of Gaussian 09 at Fri Feb 17 15:08:37 2017.
