 Gaussian 09, Revision E.01,
 Gaussian 09:  ES64L-G09RevE.01 30-Nov-2015

 ----------------------------------------------------------------------
 #rhf/gen scf(symm,tight,novaracc,noincfock,fulldiag) stable(crhf) gues
 s=read geom=nocrowd test
 ----------------------------------------------------------------------

 hf stability analysis of h12 triangular lattice, y= 0.6269799200977310
 7
 ----------------------------------------------------------------------
 Symbolic Z-matrix:
 Charge =  0 Multiplicity = 1

                         Standard orientation:
 ---------------------------------------------------------------------
 Center     Atomic      Atomic             Coordinates (Angstroms)
 Number     Number       Type             X           Y           Z
 ---------------------------------------------------------------------
      1          1           0        1.036510    1.262748    0.000000
      2          1           0        0.000000    1.671041    0.000000
      3          1           0        1.036510    0.148721    0.000000
      4          1           0        0.000000    0.557014    0.000000
      5          1           0       -1.036510    2.079333   -0.000000
      6          1           0       -1.036510    0.965306   -0.000000
      7          1           0       -1.036510   -0.148721    0.000000
      8          1           0       -0.000000   -0.557014   -0.000000
      9          1           0        1.036510   -0.965306   -0.000000
     10          1           0        1.036510   -2.079333   -0.000000
     11          1           0       -0.000000   -1.671041   -0.000000
     12          1           0       -1.036510   -1.262748    0.000000
 ---------------------------------------------------------------------

 SCF Done:  E(RHF) =  -5.72093802504     A.U. after   10 cycles
 E2 =    -0.1447602961D+00 EUMP2 =    -0.58656983211236D+01

 The electronic state is 1-AG.
 Alpha  occ. eigenvalues --   -0.91628  -0.75660  -0.61673  -0.52187  -0.36915
 Alpha  occ. eigenvalues --   -0.19848
 Alpha virt. eigenvalues --   -0.03872   0.20304   0.32454   0.33557   0.64984
 Alpha virt. eigenvalues --    0.76349

 Mulliken charges:
               1
     1  H   -0.091900
     2  H   -0.059056
     3  H    0.002967
     4  H   -0.043072
     5  H    0.214079
     6  H   -0.023019
     7  H    0.002967
     8  H   -0.043072
     9  H   -0.023019
    10  H    0.214079
    11  H   -0.059056
    12  H   -0.091900
 Sum of Mulliken charges =   0.00000

 Dipole moment (field-independent basis, Debye):
    X=             -0.0000    Y=             -0.0000    Z=             -0.0000  Tot=              0.0000
 Quadrupole moment (field-independent basis, Debye-Ang):
   XX=            -19.9117   YY=            -10.5968   ZZ=            -15.1912
   XY=             -6.4531   XZ=             -0.0000   YZ=              0.0000

 Normal termination of Gaussian 09 at Fri Feb 17 14:59:49 2017.
