 Gaussian 09, Revision E.01,
 Gaussian 09:  ES64L-G09RevE.01 30-Nov-2015

 ----------------------------------------------------------------------
 #rhf/gen scf(symm,tight,novaracc,noincfock,fulldiag) stable(crhf) gues
 s=read geom=nocrowd test
 ----------------------------------------------------------------------

 ----------------------------------------------------------------------
 hf stability analysis of h12 triangular lattice, y= 1.1127136872907215
 ----------------------------------------------------------------------
 Symbolic Z-matrix:
 Charge =  0 Multiplicity = 1

                         Standard orientation:
 ---------------------------------------------------------------------
 Center     Atomic      Atomic             Coordinates (Angstroms)
 Number     Number       Type             X           Y           Z
 ---------------------------------------------------------------------
      1          1           0        0.940506    2.630794    0.000000
      2          1           0        0.000000    1.841616    0.000000
      3          1           0        0.940506    1.403050    0.000000
      4          1           0        0.000000    0.613872    0.000000
      5          1           0       -0.940506    1.052437    0.000000
      6          1           0       -0.940506   -0.175307    0.000000
      7          1           0       -0.940506   -1.403050    0.000000
      8          1           0       -0.000000   -0.613872    0.000000
      9          1           0        0.940506    0.175307    0.000000
     10          1           0        0.940506   -1.052437    0.000000
     11          1           0       -0.000000   -1.841616    0.000000
     12          1           0       -0.940506   -2.630794    0.000000
 ---------------------------------------------------------------------

 SCF Done:  E(RHF) =  -5.39456892163     A.U. after   19 cycles
 E2 =    -0.2604157748D+00 EUMP2 =    -0.56549846964230D+01

 The electronic state is 1-AG.
 Alpha  occ. eigenvalues --   -0.95897  -0.76840  -0.58200  -0.53999  -0.32416
 Alpha  occ. eigenvalues --   -0.06053
 Alpha virt. eigenvalues --   -0.15456   0.19129   0.23518   0.29199   0.48625
 Alpha virt. eigenvalues --    0.54817

 Mulliken charges:
               1
     1  H    0.011140
     2  H   -0.013596
     3  H   -0.071294
     4  H    0.131045
     5  H   -0.108872
     6  H    0.051576
     7  H   -0.071294
     8  H    0.131045
     9  H    0.051576
    10  H   -0.108872
    11  H   -0.013596
    12  H    0.011140
 Sum of Mulliken charges =  -0.00000

 Dipole moment (field-independent basis, Debye):
    X=             -0.0000    Y=             -0.0000    Z=             -0.0000  Tot=              0.0000
 Quadrupole moment (field-independent basis, Debye-Ang):
   XX=            -19.1888   YY=            -20.8862   ZZ=            -15.0344
   XY=              0.2744   XZ=             -0.0000   YZ=              0.0000

 Normal termination of Gaussian 09 at Fri Feb 17 15:06:21 2017.
