 Gaussian 09, Revision E.01,
 Gaussian 09:  ES64L-G09RevE.01 30-Nov-2015

 ----------------------------------------------------------------------
 #rhf/gen scf(symm,tight,novaracc,noincfock,fulldiag) stable(crhf) gues
 s=read geom=nocrowd test
 ----------------------------------------------------------------------

 ----------------------------------------------------------------------
 hf stability analysis of h12 triangular lattice, y= 1.2509902265939778
 ----------------------------------------------------------------------
 Symbolic Z-matrix:
 Charge =  0 Multiplicity = 1

                         Standard orientation:
 ---------------------------------------------------------------------
 Center     Atomic      Atomic             Coordinates (Angstroms)
 Number     Number       Type             X           Y           Z
 ---------------------------------------------------------------------
      1          1           0        0.865978    3.014039    0.000000
      2          1           0        0.000000    2.000109    0.000000
      3          1           0        0.865978    1.680633    0.000000
      4          1           0        0.000000    0.666703    0.000000
      5          1           0       -0.865978    0.986179    0.000000
      6          1           0       -0.865978   -0.347227    0.000000
      7          1           0       -0.865978   -1.680633    0.000000
      8          1           0       -0.000000   -0.666703    0.000000
      9          1           0        0.865978    0.347227    0.000000
     10          1           0        0.865978   -0.986179    0.000000
     11          1           0       -0.000000   -2.000109    0.000000
     12          1           0       -0.865978   -3.014039    0.000000
 ---------------------------------------------------------------------

 SCF Done:  E(RHF) =  -5.39682630237     A.U. after   13 cycles
 E2 =    -0.5022936086D+00 EUMP2 =    -0.58991199109819D+01

 The electronic state is 1-AG.
 Alpha  occ. eigenvalues --   -0.94649  -0.77302  -0.56393  -0.53974  -0.30183
 Alpha  occ. eigenvalues --   -0.11605
 Alpha virt. eigenvalues --   -0.20717   0.08388   0.30028   0.31681   0.49845
 Alpha virt. eigenvalues --    0.60511

 Mulliken charges:
               1
     1  H   -0.039328
     2  H    0.078796
     3  H   -0.088765
     4  H    0.090068
     5  H   -0.143752
     6  H    0.102982
     7  H   -0.088765
     8  H    0.090068
     9  H    0.102982
    10  H   -0.143752
    11  H    0.078796
    12  H   -0.039328
 Sum of Mulliken charges =   0.00000

 Dipole moment (field-independent basis, Debye):
    X=             -0.0000    Y=             -0.0000    Z=             -0.0000  Tot=              0.0000
 Quadrupole moment (field-independent basis, Debye-Ang):
   XX=            -19.2365   YY=            -22.8470   ZZ=            -15.1220
   XY=             -0.8818   XZ=             -0.0000   YZ=              0.0000

 Normal termination of Gaussian 09 at Fri Feb 17 15:07:21 2017.
