 Gaussian 09, Revision E.01,
 Gaussian 09:  ES64L-G09RevE.01 30-Nov-2015

 ----------------------------------------------------------------------
 #rhf/gen scf(symm,tight,novaracc,noincfock,fulldiag) stable(crhf) gues
 s=read geom=nocrowd test
 ----------------------------------------------------------------------

 hf stability analysis of h12 triangular lattice, y= 0.5482239839410609
 8
 ----------------------------------------------------------------------
 Symbolic Z-matrix:
 Charge =  0 Multiplicity = 1

                         Standard orientation:
 ---------------------------------------------------------------------
 Center     Atomic      Atomic             Coordinates (Angstroms)
 Number     Number       Type             X           Y           Z
 ---------------------------------------------------------------------
      1          1           0        0.972561    1.099922   -0.000000
      2          1           0        0.000000    1.780917    0.000000
      3          1           0        0.972561   -0.087356   -0.000000
      4          1           0        0.000000    0.593639    0.000000
      5          1           0       -0.972561    2.461912    0.000000
      6          1           0       -0.972561    1.274634    0.000000
      7          1           0       -0.972561    0.087356   -0.000000
      8          1           0       -0.000000   -0.593639    0.000000
      9          1           0        0.972561   -1.274634    0.000000
     10          1           0        0.972561   -2.461912    0.000000
     11          1           0       -0.000000   -1.780917    0.000000
     12          1           0       -0.972561   -1.099922   -0.000000
 ---------------------------------------------------------------------

 SCF Done:  E(RHF) =  -5.44777861299     A.U. after   15 cycles
 E2 =    -0.1621804256D+00 EUMP2 =    -0.56099590385740D+01

 The electronic state is 1-AG.
 Alpha  occ. eigenvalues --   -0.89553  -0.75212  -0.55377  -0.54599  -0.30158
 Alpha  occ. eigenvalues --   -0.07991
 Alpha virt. eigenvalues --   -0.11725   0.18221   0.22921   0.43615   0.52012
 Alpha virt. eigenvalues --    0.61678

 Mulliken charges:
               1
     1  H   -0.188862
     2  H   -0.084682
     3  H   -0.027955
     4  H    0.028094
     5  H    0.260449
     6  H    0.012955
     7  H   -0.027955
     8  H    0.028094
     9  H    0.012955
    10  H    0.260449
    11  H   -0.084682
    12  H   -0.188862
 Sum of Mulliken charges =  -0.00000

 Dipole moment (field-independent basis, Debye):
    X=              0.0000    Y=             -0.0000    Z=              0.0000  Tot=              0.0000
 Quadrupole moment (field-independent basis, Debye-Ang):
   XX=            -20.5280   YY=             -5.1316   ZZ=            -15.1487
   XY=             -9.2721   XZ=              0.0000   YZ=              0.0000

 Normal termination of Gaussian 09 at Fri Feb 17 14:58:26 2017.
