 Gaussian 09, Revision E.01,
 Gaussian 09:  ES64L-G09RevE.01 30-Nov-2015

 ----------------------------------------------------------------------
 #rhf/gen scf(symm,tight,novaracc,noincfock,fulldiag) stable(crhf) gues
 s=read geom=nocrowd test
 ----------------------------------------------------------------------

 hf stability analysis of h12 triangular lattice, y= 0.2303281107335596
 6
 ----------------------------------------------------------------------
 Symbolic Z-matrix:
 Charge =  0 Multiplicity = 1

                         Standard orientation:
 ---------------------------------------------------------------------
 Center     Atomic      Atomic             Coordinates (Angstroms)
 Number     Number       Type             X           Y           Z
 ---------------------------------------------------------------------
      1          1           0        0.458724    1.300752   -0.000000
      2          1           0        0.000000    3.775804   -0.000000
      3          1           0        0.458724   -1.216450    0.000000
      4          1           0        0.000000    1.258601   -0.000000
      5          1           0       -0.458724    6.250855   -0.000000
      6          1           0       -0.458724    3.733653   -0.000000
      7          1           0       -0.458724    1.216450    0.000000
      8          1           0       -0.000000   -1.258601   -0.000000
      9          1           0        0.458724   -3.733653   -0.000000
     10          1           0        0.458724   -6.250855   -0.000000
     11          1           0       -0.000000   -3.775804   -0.000000
     12          1           0       -0.458724   -1.300752   -0.000000
 ---------------------------------------------------------------------

 SCF Done:  E(RHF) =  -4.13310038525     A.U. after    9 cycles
 E2 =    -0.1172913064D+01 EUMP2 =    -0.53060134494453D+01

 The electronic state is 1-AG.
 Alpha  occ. eigenvalues --   -0.94198  -0.93400  -0.72781  -0.72778  -0.20530
 Alpha  occ. eigenvalues --   -0.12057
 Alpha virt. eigenvalues --   -0.16309   0.02338   0.65671   0.65717   1.58628
 Alpha virt. eigenvalues --    1.66907

 Mulliken charges:
               1
     1  H    0.357296
     2  H   -0.001636
     3  H    0.354827
     4  H   -0.708986
     5  H    0.001309
     6  H   -0.002810
     7  H    0.354827
     8  H   -0.708986
     9  H   -0.002810
    10  H    0.001309
    11  H   -0.001636
    12  H    0.357296
 Sum of Mulliken charges =  -0.00000

 Dipole moment (field-independent basis, Debye):
    X=              0.0000    Y=             -0.0000    Z=              0.0000  Tot=              0.0000
 Quadrupole moment (field-independent basis, Debye-Ang):
   XX=            -16.0867   YY=            -17.6035   ZZ=            -15.2657
   XY=             -0.0629   XZ=              0.0000   YZ=             -0.0000

 Normal termination of Gaussian 09 at Fri Feb 17 14:53:55 2017.
