 Gaussian 09, Revision E.01,
 Gaussian 09:  ES64L-G09RevE.01 30-Nov-2015

 ----------------------------------------------------------------------
 #rhf/gen scf(symm,tight,novaracc,noincfock,fulldiag) stable(crhf) gues
 s=read geom=nocrowd test
 ----------------------------------------------------------------------

 ----------------------------------------------------------------------
 hf stability analysis of h12 triangular lattice, y= 1.6306791826473761
 ----------------------------------------------------------------------
 Symbolic Z-matrix:
 Charge =  0 Multiplicity = 1

                         Standard orientation:
 ---------------------------------------------------------------------
 Center     Atomic      Atomic             Coordinates (Angstroms)
 Number     Number       Type             X           Y           Z
 ---------------------------------------------------------------------
      1          1           0        0.691987    4.021437   -0.000000
      2          1           0        0.000000    2.503010   -0.000000
      3          1           0        0.691987    2.352764   -0.000000
      4          1           0        0.000000    0.834337   -0.000000
      5          1           0       -0.691987    0.984582   -0.000000
      6          1           0       -0.691987   -0.684091    0.000000
      7          1           0       -0.691987   -2.352764   -0.000000
      8          1           0       -0.000000   -0.834337   -0.000000
      9          1           0        0.691987    0.684091    0.000000
     10          1           0        0.691987   -0.984582   -0.000000
     11          1           0       -0.000000   -2.503010   -0.000000
     12          1           0       -0.691987   -4.021437   -0.000000
 ---------------------------------------------------------------------

 SCF Done:  E(RHF) =  -5.39536346266     A.U. after   12 cycles
 E2 =    -0.6987054056D+00 EUMP2 =    -0.60940688682113D+01

 The electronic state is 1-AG.
 Alpha  occ. eigenvalues --   -0.87592  -0.78595  -0.63407  -0.59596  -0.22031
 Alpha  occ. eigenvalues --   -0.16407
 Alpha virt. eigenvalues --   -0.12997  -0.09315   0.46100   0.48562   0.77515
 Alpha virt. eigenvalues --    0.96629

 Mulliken charges:
               1
     1  H   -0.047344
     2  H    0.007981
     3  H   -0.024315
     4  H   -0.240547
     5  H    0.102588
     6  H    0.201637
     7  H   -0.024315
     8  H   -0.240547
     9  H    0.201637
    10  H    0.102588
    11  H    0.007981
    12  H   -0.047344
 Sum of Mulliken charges =  -0.00000

 Dipole moment (field-independent basis, Debye):
    X=             -0.0000    Y=             -0.0000    Z=              0.0000  Tot=              0.0000
 Quadrupole moment (field-independent basis, Debye-Ang):
   XX=            -14.3224   YY=            -29.5240   ZZ=            -14.8996
   XY=             -1.9071   XZ=             -0.0000   YZ=             -0.0000

 Normal termination of Gaussian 09 at Fri Feb 17 15:08:56 2017.
