 Gaussian 09, Revision E.01,
 Gaussian 09:  ES64L-G09RevE.01 30-Nov-2015

 ----------------------------------------------------------------------
 #rhf/gen scf(symm,tight,novaracc,noincfock,fulldiag) stable(crhf) gues
 s=read geom=nocrowd test
 ----------------------------------------------------------------------

 hf stability analysis of h12 triangular lattice, y= 0.3723030219932718
 7
 ----------------------------------------------------------------------
 Symbolic Z-matrix:
 Charge =  0 Multiplicity = 1

                         Standard orientation:
 ---------------------------------------------------------------------
 Center     Atomic      Atomic             Coordinates (Angstroms)
 Number     Number       Type             X           Y           Z
 ---------------------------------------------------------------------
      1          1           0        0.724032    0.971234    0.000000
      2          1           0        0.000000    2.392228   -0.000000
      3          1           0        0.724032   -0.623584    0.000000
      4          1           0        0.000000    0.797409   -0.000000
      5          1           0       -0.724032    3.813222   -0.000000
      6          1           0       -0.724032    2.218403   -0.000000
      7          1           0       -0.724032    0.623584   -0.000000
      8          1           0       -0.000000   -0.797409   -0.000000
      9          1           0        0.724032   -2.218403   -0.000000
     10          1           0        0.724032   -3.813222   -0.000000
     11          1           0       -0.000000   -2.392228   -0.000000
     12          1           0       -0.724032   -0.971234   -0.000000
 ---------------------------------------------------------------------

 SCF Done:  E(RHF) =  -5.41042320210     A.U. after   14 cycles
 E2 =    -0.6408666306D+00 EUMP2 =    -0.60512898327034D+01

 The electronic state is 1-AG.
 Alpha  occ. eigenvalues --   -0.88509  -0.78168  -0.62323  -0.56909  -0.23659
 Alpha  occ. eigenvalues --   -0.14936
 Alpha virt. eigenvalues --   -0.15703  -0.07091   0.43709   0.47072   0.69031
 Alpha virt. eigenvalues --    0.89029

 Mulliken charges:
               1
     1  H    0.080415
     2  H    0.018734
     3  H    0.224358
     4  H   -0.219349
     5  H   -0.073183
     6  H   -0.030975
     7  H    0.224358
     8  H   -0.219349
     9  H   -0.030975
    10  H   -0.073183
    11  H    0.018734
    12  H    0.080415
 Sum of Mulliken charges =  -0.00000

 Dipole moment (field-independent basis, Debye):
    X=             -0.0000    Y=              0.0000    Z=              0.0000  Tot=              0.0000
 Quadrupole moment (field-independent basis, Debye-Ang):
   XX=            -14.1899   YY=            -32.4065   ZZ=            -14.8506
   XY=              2.6928   XZ=              0.0000   YZ=             -0.0000

 Normal termination of Gaussian 09 at Fri Feb 17 14:55:35 2017.
