 Gaussian 09, Revision E.01,
 Gaussian 09:  ES64L-G09RevE.01 30-Nov-2015

 ----------------------------------------------------------------------
 #rhf/gen scf(symm,tight,novaracc,noincfock,fulldiag) stable(crhf) gues
 s=read geom=nocrowd test
 ----------------------------------------------------------------------

 ----------------------------------------------------------------------
 hf stability analysis of h12 triangular lattice, y= 1.4307794800386300
 ----------------------------------------------------------------------
 Symbolic Z-matrix:
 Charge =  0 Multiplicity = 1

                         Standard orientation:
 ---------------------------------------------------------------------
 Center     Atomic      Atomic             Coordinates (Angstroms)
 Number     Number       Type             X           Y           Z
 ---------------------------------------------------------------------
      1          1           0        0.776743    3.497419    0.000000
      2          1           0        0.000000    2.229890    0.000000
      3          1           0        0.776743    2.010826    0.000000
      4          1           0        0.000000    0.743297    0.000000
      5          1           0       -0.776743    0.962361    0.000000
      6          1           0       -0.776743   -0.524232    0.000000
      7          1           0       -0.776743   -2.010826   -0.000000
      8          1           0       -0.000000   -0.743297   -0.000000
      9          1           0        0.776743    0.524232    0.000000
     10          1           0        0.776743   -0.962361    0.000000
     11          1           0       -0.000000   -2.229890   -0.000000
     12          1           0       -0.776743   -3.497419   -0.000000
 ---------------------------------------------------------------------

 SCF Done:  E(RHF) =  -5.38499753514     A.U. after   16 cycles
 E2 =    -0.7277138605D+00 EUMP2 =    -0.61127113956191D+01

 The electronic state is 1-AG.
 Alpha  occ. eigenvalues --   -0.90887  -0.78157  -0.60727  -0.52520  -0.26678
 Alpha  occ. eigenvalues --   -0.12270
 Alpha virt. eigenvalues --   -0.20546  -0.02488   0.39388   0.44328   0.56158
 Alpha virt. eigenvalues --    0.76842

 Mulliken charges:
               1
     1  H   -0.127206
     2  H    0.062349
     3  H   -0.056389
     4  H   -0.191339
     5  H    0.011500
     6  H    0.301084
     7  H   -0.056389
     8  H   -0.191339
     9  H    0.301084
    10  H    0.011500
    11  H    0.062349
    12  H   -0.127206
 Sum of Mulliken charges =   0.00000

 Dipole moment (field-independent basis, Debye):
    X=              0.0000    Y=             -0.0000    Z=              0.0000  Tot=              0.0000
 Quadrupole moment (field-independent basis, Debye-Ang):
   XX=            -14.4378   YY=            -36.4779   ZZ=            -14.8077
   XY=             -4.1113   XZ=             -0.0000   YZ=             -0.0000

 Normal termination of Gaussian 09 at Fri Feb 17 15:08:16 2017.
