 Gaussian 09, Revision E.01,
 Gaussian 09:  ES64L-G09RevE.01 30-Nov-2015

 ----------------------------------------------------------------------
 #rhf/gen scf(symm,tight,novaracc,noincfock,fulldiag) stable(crhf) gues
 s=read geom=nocrowd test
 ----------------------------------------------------------------------

 hf stability analysis of h12 triangular lattice, y= 0.2357806384192915
 3
 ----------------------------------------------------------------------
 Symbolic Z-matrix:
 Charge =  0 Multiplicity = 1

                         Standard orientation:
 ---------------------------------------------------------------------
 Center     Atomic      Atomic             Coordinates (Angstroms)
 Number     Number       Type             X           Y           Z
 ---------------------------------------------------------------------
      1          1           0        0.469390    1.275198   -0.000000
      2          1           0        0.000000    3.690001   -0.000000
      3          1           0        0.469390   -1.184803    0.000000
      4          1           0        0.000000    1.230000   -0.000000
      5          1           0       -0.469390    6.104805   -0.000000
      6          1           0       -0.469390    3.644804   -0.000000
      7          1           0       -0.469390    1.184803    0.000000
      8          1           0       -0.000000   -1.230000   -0.000000
      9          1           0        0.469390   -3.644804   -0.000000
     10          1           0        0.469390   -6.104805   -0.000000
     11          1           0       -0.000000   -3.690001   -0.000000
     12          1           0       -0.469390   -1.275198   -0.000000
 ---------------------------------------------------------------------

 SCF Done:  E(RHF) =  -4.25427019372     A.U. after   10 cycles
 E2 =    -0.1144771810D+01 EUMP2 =    -0.53990420033560D+01

 The electronic state is 1-AG.
 Alpha  occ. eigenvalues --   -0.93184  -0.92658  -0.72345  -0.72344  -0.20514
 Alpha  occ. eigenvalues --   -0.12648
 Alpha virt. eigenvalues --   -0.16192   0.01679   0.64541   0.64602   1.53600
 Alpha virt. eigenvalues --    1.62408

 Mulliken charges:
               1
     1  H    0.336727
     2  H   -0.001845
     3  H    0.334947
     4  H   -0.667902
     5  H    0.001333
     6  H   -0.003259
     7  H    0.334947
     8  H   -0.667902
     9  H   -0.003259
    10  H    0.001333
    11  H   -0.001845
    12  H    0.336727
 Sum of Mulliken charges =   0.00000

 Dipole moment (field-independent basis, Debye):
    X=              0.0000    Y=              0.0000    Z=              0.0000  Tot=              0.0000
 Quadrupole moment (field-independent basis, Debye-Ang):
   XX=            -16.0098   YY=            -17.8606   ZZ=            -15.2574
   XY=             -0.0492   XZ=             -0.0000   YZ=              0.0000

 Normal termination of Gaussian 09 at Fri Feb 17 14:53:58 2017.
