 Gaussian 09, Revision E.01,
 Gaussian 09:  ES64L-G09RevE.01 30-Nov-2015

 ----------------------------------------------------------------------
 #rhf/gen scf(symm,tight,novaracc,noincfock,fulldiag) stable(crhf) gues
 s=read geom=nocrowd test
 ----------------------------------------------------------------------

 ----------------------------------------------------------------------
 hf stability analysis of h12 triangular lattice, y= 1.1064166633763877
 ----------------------------------------------------------------------
 Symbolic Z-matrix:
 Charge =  0 Multiplicity = 1

                         Standard orientation:
 ---------------------------------------------------------------------
 Center     Atomic      Atomic             Coordinates (Angstroms)
 Number     Number       Type             X           Y           Z
 ---------------------------------------------------------------------
      1          1           0        0.943926    2.613057   -0.000000
      2          1           0        0.000000    1.834944   -0.000000
      3          1           0        0.943926    1.389760   -0.000000
      4          1           0        0.000000    0.611648   -0.000000
      5          1           0       -0.943926    1.056832   -0.000000
      6          1           0       -0.943926   -0.166464   -0.000000
      7          1           0       -0.943926   -1.389760    0.000000
      8          1           0       -0.000000   -0.611648    0.000000
      9          1           0        0.943926    0.166464    0.000000
     10          1           0        0.943926   -1.056832    0.000000
     11          1           0       -0.000000   -1.834944    0.000000
     12          1           0       -0.943926   -2.613057    0.000000
 ---------------------------------------------------------------------

 SCF Done:  E(RHF) =  -5.39446156003     A.U. after   20 cycles
 E2 =    -0.2457591315D+00 EUMP2 =    -0.56402206914899D+01

 The electronic state is 1-AG.
 Alpha  occ. eigenvalues --   -0.95459  -0.76643  -0.58041  -0.53975  -0.32144
 Alpha  occ. eigenvalues --   -0.06051
 Alpha virt. eigenvalues --   -0.15170   0.18813   0.23660   0.30243   0.48606
 Alpha virt. eigenvalues --    0.55359

 Mulliken charges:
               1
     1  H    0.030296
     2  H   -0.024817
     3  H   -0.061666
     4  H    0.128743
     5  H   -0.113404
     6  H    0.040848
     7  H   -0.061666
     8  H    0.128743
     9  H    0.040848
    10  H   -0.113404
    11  H   -0.024817
    12  H    0.030296
 Sum of Mulliken charges =   0.00000

 Dipole moment (field-independent basis, Debye):
    X=              0.0000    Y=              0.0000    Z=             -0.0000  Tot=              0.0000
 Quadrupole moment (field-independent basis, Debye-Ang):
   XX=            -19.2638   YY=            -19.6577   ZZ=            -15.0372
   XY=              0.9502   XZ=             -0.0000   YZ=              0.0000

 Normal termination of Gaussian 09 at Fri Feb 17 15:06:18 2017.
