 Gaussian 09, Revision E.01,
 Gaussian 09:  ES64L-G09RevE.01 30-Nov-2015

 ----------------------------------------------------------------------
 #rhf/gen scf(symm,tight,novaracc,noincfock,fulldiag) stable(crhf) gues
 s=read geom=nocrowd test
 ----------------------------------------------------------------------

 hf stability analysis of h12 triangular lattice, y= 0.6476646814092581
 5
 ----------------------------------------------------------------------
 Symbolic Z-matrix:
 Charge =  0 Multiplicity = 1

                         Standard orientation:
 ---------------------------------------------------------------------
 Center     Atomic      Atomic             Coordinates (Angstroms)
 Number     Number       Type             X           Y           Z
 ---------------------------------------------------------------------
      1          1           0        1.047943    1.312312   -0.000000
      2          1           0       -0.000000    1.652809   -0.000000
      3          1           0        1.047943    0.210439   -0.000000
      4          1           0       -0.000000    0.550936   -0.000000
      5          1           0       -1.047943    1.993307   -0.000000
      6          1           0       -1.047943    0.891434    0.000000
      7          1           0       -1.047943   -0.210439   -0.000000
      8          1           0        0.000000   -0.550936   -0.000000
      9          1           0        1.047943   -0.891434   -0.000000
     10          1           0        1.047943   -1.993307   -0.000000
     11          1           0        0.000000   -1.652809   -0.000000
     12          1           0       -1.047943   -1.312312   -0.000000
 ---------------------------------------------------------------------

 SCF Done:  E(RHF) =  -5.76440233603     A.U. after    9 cycles
 E2 =    -0.1424250638D+00 EUMP2 =    -0.59068273998736D+01

 The electronic state is 1-AG.
 Alpha  occ. eigenvalues --   -0.92274  -0.75687  -0.63051  -0.51311  -0.38440
 Alpha  occ. eigenvalues --   -0.22039
 Alpha virt. eigenvalues --   -0.01866   0.19783   0.30089   0.36342   0.64581
 Alpha virt. eigenvalues --    0.82726

 Mulliken charges:
               1
     1  H   -0.064770
     2  H   -0.058441
     3  H    0.001218
     4  H   -0.046268
     5  H    0.190953
     6  H   -0.022691
     7  H    0.001218
     8  H   -0.046268
     9  H   -0.022691
    10  H    0.190953
    11  H   -0.058441
    12  H   -0.064770
 Sum of Mulliken charges =   0.00000

 Dipole moment (field-independent basis, Debye):
    X=              0.0000    Y=              0.0000    Z=              0.0000  Tot=              0.0000
 Quadrupole moment (field-independent basis, Debye-Ang):
   XX=            -19.7457   YY=            -11.9738   ZZ=            -15.1934
   XY=             -5.4104   XZ=             -0.0000   YZ=              0.0000

 Normal termination of Gaussian 09 at Fri Feb 17 15:00:15 2017.
