 Gaussian 09, Revision E.01,
 Gaussian 09:  ES64L-G09RevE.01 30-Nov-2015

 ----------------------------------------------------------------------
 #rhf/gen scf(symm,tight,novaracc,noincfock,fulldiag) stable(crhf) gues
 s=read geom=nocrowd test
 ----------------------------------------------------------------------

 hf stability analysis of h12 triangular lattice, y= 0.7210052279144877
 3
 ----------------------------------------------------------------------
 Symbolic Z-matrix:
 Charge =  0 Multiplicity = 1

                         Standard orientation:
 ---------------------------------------------------------------------
 Center     Atomic      Atomic             Coordinates (Angstroms)
 Number     Number       Type             X           Y           Z
 ---------------------------------------------------------------------
      1          1           0        1.071623    1.503656    0.000000
      2          1           0        0.000000    1.616288    0.000000
      3          1           0        1.071623    0.426131    0.000000
      4          1           0        0.000000    0.538763    0.000000
      5          1           0       -1.071623    1.728920    0.000000
      6          1           0       -1.071623    0.651395    0.000000
      7          1           0       -1.071623   -0.426131   -0.000000
      8          1           0       -0.000000   -0.538763    0.000000
      9          1           0        1.071623   -0.651395    0.000000
     10          1           0        1.071623   -1.728920    0.000000
     11          1           0       -0.000000   -1.616288    0.000000
     12          1           0       -1.071623   -1.503656   -0.000000
 ---------------------------------------------------------------------

 SCF Done:  E(RHF) =  -5.84818852872     A.U. after    8 cycles
 E2 =    -0.1383229861D+00 EUMP2 =    -0.59865115148069D+01

 The electronic state is 1-AG.
 Alpha  occ. eigenvalues --   -0.93619  -0.75517  -0.66120  -0.47732  -0.43279
 Alpha  occ. eigenvalues --   -0.26553
 Alpha virt. eigenvalues --    0.04807   0.18677   0.20376   0.48991   0.59532
 Alpha virt. eigenvalues --    0.98579

 Mulliken charges:
               1
     1  H    0.024311
     2  H   -0.057712
     3  H   -0.007148
     4  H   -0.052368
     5  H    0.109363
     6  H   -0.016446
     7  H   -0.007148
     8  H   -0.052368
     9  H   -0.016446
    10  H    0.109363
    11  H   -0.057712
    12  H    0.024311
 Sum of Mulliken charges =  -0.00000

 Dipole moment (field-independent basis, Debye):
    X=              0.0000    Y=              0.0000    Z=              0.0000  Tot=              0.0000
 Quadrupole moment (field-independent basis, Debye-Ang):
   XX=            -19.3894   YY=            -14.7463   ZZ=            -15.1968
   XY=             -1.8111   XZ=             -0.0000   YZ=             -0.0000

 Normal termination of Gaussian 09 at Fri Feb 17 11:36:17 2017.
