 Gaussian 09, Revision E.01,
 Gaussian 09:  ES64L-G09RevE.01 30-Nov-2015

 ----------------------------------------------------------------------
 #rhf/gen scf(symm,tight,novaracc,noincfock,fulldiag) stable(crhf) gues
 s=read geom=nocrowd test
 ----------------------------------------------------------------------

 hf stability analysis of h12 triangular lattice, y= 0.4298968291512300
 1
 ----------------------------------------------------------------------
 Symbolic Z-matrix:
 Charge =  0 Multiplicity = 1

                         Standard orientation:
 ---------------------------------------------------------------------
 Center     Atomic      Atomic             Coordinates (Angstroms)
 Number     Number       Type             X           Y           Z
 ---------------------------------------------------------------------
      1          1           0        0.818864    0.967183   -0.000000
      2          1           0        0.000000    2.115188    0.000000
      3          1           0        0.818864   -0.442942   -0.000000
      4          1           0        0.000000    0.705063    0.000000
      5          1           0       -0.818864    3.263193    0.000000
      6          1           0       -0.818864    1.853067    0.000000
      7          1           0       -0.818864    0.442942   -0.000000
      8          1           0       -0.000000   -0.705063    0.000000
      9          1           0        0.818864   -1.853067    0.000000
     10          1           0        0.818864   -3.263193    0.000000
     11          1           0       -0.000000   -2.115188    0.000000
     12          1           0       -0.818864   -0.967183    0.000000
 ---------------------------------------------------------------------

 SCF Done:  E(RHF) =  -5.36237333947     A.U. after   15 cycles
 E2 =    -0.8450712256D+00 EUMP2 =    -0.62074445651065D+01

 The electronic state is 1-AG.
 Alpha  occ. eigenvalues --   -0.92885  -0.77573  -0.58719  -0.51102  -0.28150
 Alpha  occ. eigenvalues --   -0.13205
 Alpha virt. eigenvalues --   -0.22994   0.00663   0.33559   0.39862   0.49432
 Alpha virt. eigenvalues --    0.69347

 Mulliken charges:
               1
     1  H   -0.170735
     2  H    0.139547
     3  H    0.258634
     4  H   -0.046654
     5  H   -0.087778
     6  H   -0.093014
     7  H    0.258634
     8  H   -0.046654
     9  H   -0.093014
    10  H   -0.087778
    11  H    0.139547
    12  H   -0.170735
 Sum of Mulliken charges =  -0.00000

 Dipole moment (field-independent basis, Debye):
    X=             -0.0000    Y=              0.0000    Z=             -0.0000  Tot=              0.0000
 Quadrupole moment (field-independent basis, Debye-Ang):
   XX=            -17.8947   YY=            -27.1898   ZZ=            -15.0539
   XY=              1.8817   XZ=             -0.0000   YZ=              0.0000

 Normal termination of Gaussian 09 at Fri Feb 17 14:56:27 2017.
