 Gaussian 09, Revision E.01,
 Gaussian 09:  ES64L-G09RevE.01 30-Nov-2015

 ----------------------------------------------------------------------
 #rhf/gen scf(symm,tight,novaracc,noincfock,fulldiag) stable(crhf) gues
 s=read geom=nocrowd test
 ----------------------------------------------------------------------

 hf stability analysis of h12 triangular lattice, y= 0.8368882343931486
 3
 ----------------------------------------------------------------------
 Symbolic Z-matrix:
 Charge =  0 Multiplicity = 1

                         Standard orientation:
 ---------------------------------------------------------------------
 Center     Atomic      Atomic             Coordinates (Angstroms)
 Number     Number       Type             X           Y           Z
 ---------------------------------------------------------------------
      1          1           0        1.064653    1.833817    0.000000
      2          1           0        0.000000    1.626869    0.000000
      3          1           0        1.064653    0.749237    0.000000
      4          1           0        0.000000    0.542290    0.000000
      5          1           0       -1.064653    1.419922    0.000000
      6          1           0       -1.064653    0.335342    0.000000
      7          1           0       -1.064653   -0.749237    0.000000
      8          1           0       -0.000000   -0.542290    0.000000
      9          1           0        1.064653   -0.335342   -0.000000
     10          1           0        1.064653   -1.419922    0.000000
     11          1           0       -0.000000   -1.626869    0.000000
     12          1           0       -1.064653   -1.833817    0.000000
 ---------------------------------------------------------------------

 SCF Done:  E(RHF) =  -5.82439257265     A.U. after    9 cycles
 E2 =    -0.1394514754D+00 EUMP2 =    -0.59638440480499D+01

 The electronic state is 1-AG.
 Alpha  occ. eigenvalues --   -0.93223  -0.75610  -0.65175  -0.49323  -0.41327
 Alpha  occ. eigenvalues --   -0.25230
 Alpha virt. eigenvalues --    0.02193   0.19016   0.23875   0.43937   0.62298
 Alpha virt. eigenvalues --    0.93474

 Mulliken charges:
               1
     1  H    0.143778
     2  H   -0.057874
     3  H   -0.019712
     4  H   -0.050610
     5  H   -0.012219
     6  H   -0.003363
     7  H   -0.019712
     8  H   -0.050610
     9  H   -0.003363
    10  H   -0.012219
    11  H   -0.057874
    12  H    0.143778
 Sum of Mulliken charges =  -0.00000

 Dipole moment (field-independent basis, Debye):
    X=             -0.0000    Y=             -0.0000    Z=              0.0000  Tot=              0.0000
 Quadrupole moment (field-independent basis, Debye-Ang):
   XX=            -19.4960   YY=            -13.9414   ZZ=            -15.1959
   XY=              3.3156   XZ=              0.0000   YZ=             -0.0000

 Normal termination of Gaussian 09 at Fri Feb 17 15:03:19 2017.
