 Gaussian 09, Revision E.01,
 Gaussian 09:  ES64L-G09RevE.01 30-Nov-2015

 ----------------------------------------------------------------------
 #rhf/gen scf(symm,tight,novaracc,noincfock,fulldiag) stable(crhf) gues
 s=read geom=nocrowd test
 ----------------------------------------------------------------------

 hf stability analysis of h12 triangular lattice, y= 0.5335894054604231
 1
 ----------------------------------------------------------------------
 Symbolic Z-matrix:
 Charge =  0 Multiplicity = 1

                         Standard orientation:
 ---------------------------------------------------------------------
 Center     Atomic      Atomic             Coordinates (Angstroms)
 Number     Number       Type             X           Y           Z
 ---------------------------------------------------------------------
      1          1           0        0.957124    1.075215   -0.000000
      2          1           0        0.000000    1.809642   -0.000000
      3          1           0        0.957124   -0.131213   -0.000000
      4          1           0        0.000000    0.603214   -0.000000
      5          1           0       -0.957124    2.544069   -0.000000
      6          1           0       -0.957124    1.337641   -0.000000
      7          1           0       -0.957124    0.131213    0.000000
      8          1           0       -0.000000   -0.603214   -0.000000
      9          1           0        0.957124   -1.337641   -0.000000
     10          1           0        0.957124   -2.544069   -0.000000
     11          1           0       -0.000000   -1.809642   -0.000000
     12          1           0       -0.957124   -1.075215   -0.000000
 ---------------------------------------------------------------------

 SCF Done:  E(RHF) =  -5.40433138727     A.U. after   20 cycles
 E2 =    -0.1993917939D+00 EUMP2 =    -0.56037231811860D+01

 The electronic state is 1-AG.
 Alpha  occ. eigenvalues --   -0.92803  -0.75723  -0.56784  -0.54158  -0.30734
 Alpha  occ. eigenvalues --   -0.06565
 Alpha virt. eigenvalues --   -0.13870   0.18045   0.23543   0.36079   0.49584
 Alpha virt. eigenvalues --    0.58108

 Mulliken charges:
               1
     1  H   -0.143140
     2  H   -0.070421
     3  H   -0.008483
     4  H    0.101819
     5  H    0.136972
     6  H   -0.016747
     7  H   -0.008483
     8  H    0.101819
     9  H   -0.016747
    10  H    0.136972
    11  H   -0.070421
    12  H   -0.143140
 Sum of Mulliken charges =  -0.00000

 Dipole moment (field-independent basis, Debye):
    X=              0.0000    Y=              0.0000    Z=              0.0000  Tot=              0.0000
 Quadrupole moment (field-independent basis, Debye-Ang):
   XX=            -19.7604   YY=            -12.8771   ZZ=            -15.0731
   XY=             -4.7450   XZ=              0.0000   YZ=              0.0000

 Normal termination of Gaussian 09 at Fri Feb 17 14:58:10 2017.
