 Gaussian 09, Revision E.01,
 Gaussian 09:  ES64L-G09RevE.01 30-Nov-2015

 ----------------------------------------------------------------------
 #rhf/gen scf(symm,tight,novaracc,noincfock,fulldiag) stable(crhf) gues
 s=read geom=nocrowd test
 ----------------------------------------------------------------------

 hf stability analysis of h12 triangular lattice, y= 0.4646099728787273
 0
 ----------------------------------------------------------------------
 Symbolic Z-matrix:
 Charge =  0 Multiplicity = 1

                         Standard orientation:
 ---------------------------------------------------------------------
 Center     Atomic      Atomic             Coordinates (Angstroms)
 Number     Number       Type             X           Y           Z
 ---------------------------------------------------------------------
      1          1           0        0.870374    0.988755    0.000000
      2          1           0        0.000000    1.990006    0.000000
      3          1           0        0.870374   -0.337916    0.000000
      4          1           0        0.000000    0.663335    0.000000
      5          1           0       -0.870374    2.991258    0.000000
      6          1           0       -0.870374    1.664587    0.000000
      7          1           0       -0.870374    0.337916    0.000000
      8          1           0       -0.000000   -0.663335    0.000000
      9          1           0        0.870374   -1.664587   -0.000000
     10          1           0        0.870374   -2.991258    0.000000
     11          1           0       -0.000000   -1.990006    0.000000
     12          1           0       -0.870374   -0.988755    0.000000
 ---------------------------------------------------------------------

 SCF Done:  E(RHF) =  -5.39917079928     A.U. after   15 cycles
 E2 =    -0.4695255751D+00 EUMP2 =    -0.58686963744102D+01

 The electronic state is 1-AG.
 Alpha  occ. eigenvalues --   -0.94815  -0.77302  -0.56224  -0.54283  -0.30393
 Alpha  occ. eigenvalues --   -0.11292
 Alpha virt. eigenvalues --   -0.20439   0.09268   0.29784   0.30870   0.50025
 Alpha virt. eigenvalues --    0.59680

 Mulliken charges:
               1
     1  H   -0.139621
     2  H    0.074305
     3  H    0.099035
     4  H    0.094626
     5  H   -0.038382
     6  H   -0.089963
     7  H    0.099035
     8  H    0.094626
     9  H   -0.089963
    10  H   -0.038382
    11  H    0.074305
    12  H   -0.139621
 Sum of Mulliken charges =   0.00000

 Dipole moment (field-independent basis, Debye):
    X=             -0.0000    Y=             -0.0000    Z=             -0.0000  Tot=              0.0000
 Quadrupole moment (field-independent basis, Debye-Ang):
   XX=            -19.2378   YY=            -22.8926   ZZ=            -15.1180
   XY=              0.9150   XZ=              0.0000   YZ=              0.0000

 Normal termination of Gaussian 09 at Fri Feb 17 14:57:01 2017.
