 Gaussian 09, Revision E.01,
 Gaussian 09:  ES64L-G09RevE.01 30-Nov-2015

 ----------------------------------------------------------------------
 #rhf/gen scf(symm,tight,novaracc,noincfock,fulldiag) stable(crhf) gues
 s=read geom=nocrowd test
 ----------------------------------------------------------------------

 hf stability analysis of h12 triangular lattice, y= 0.2564775935039079
 2
 ----------------------------------------------------------------------
 Symbolic Z-matrix:
 Charge =  0 Multiplicity = 1

                         Standard orientation:
 ---------------------------------------------------------------------
 Center     Atomic      Atomic             Coordinates (Angstroms)
 Number     Number       Type             X           Y           Z
 ---------------------------------------------------------------------
      1          1           0        0.509658    1.190888   -0.000000
      2          1           0        0.000000    3.398458   -0.000000
      3          1           0        0.509658   -1.074751   -0.000000
      4          1           0        0.000000    1.132819   -0.000000
      5          1           0       -0.509658    5.606029   -0.000000
      6          1           0       -0.509658    3.340390   -0.000000
      7          1           0       -0.509658    1.074751   -0.000000
      8          1           0       -0.000000   -1.132819   -0.000000
      9          1           0        0.509658   -3.340390    0.000000
     10          1           0        0.509658   -5.606029    0.000000
     11          1           0       -0.000000   -3.398458   -0.000000
     12          1           0       -0.509658   -1.190888   -0.000000
 ---------------------------------------------------------------------

 SCF Done:  E(RHF) =  -4.64016916063     A.U. after   10 cycles
 E2 =    -0.1048140392D+01 EUMP2 =    -0.56883095526746D+01

 The electronic state is 1-AG.
 Alpha  occ. eigenvalues --   -0.90262  -0.89471  -0.70702  -0.70662  -0.20363
 Alpha  occ. eigenvalues --   -0.14626
 Alpha virt. eigenvalues --   -0.15656  -0.00748   0.60561   0.60717   1.36270
 Alpha virt. eigenvalues --    1.47126

 Mulliken charges:
               1
     1  H    0.270254
     2  H   -0.002631
     3  H    0.273016
     4  H   -0.536125
     5  H    0.000846
     6  H   -0.005361
     7  H    0.273016
     8  H   -0.536125
     9  H   -0.005361
    10  H    0.000846
    11  H   -0.002631
    12  H    0.270254
 Sum of Mulliken charges =  -0.00000

 Dipole moment (field-independent basis, Debye):
    X=              0.0000    Y=              0.0000    Z=             -0.0000  Tot=              0.0000
 Quadrupole moment (field-independent basis, Debye-Ang):
   XX=            -15.7035   YY=            -19.0148   ZZ=            -15.2133
   XY=              0.0347   XZ=             -0.0000   YZ=              0.0000

 Normal termination of Gaussian 09 at Fri Feb 17 14:54:09 2017.
