 Gaussian 09, Revision E.01,
 Gaussian 09:  ES64L-G09RevE.01 30-Nov-2015

 ----------------------------------------------------------------------
 #rhf/gen scf(symm,tight,novaracc,noincfock,fulldiag) stable(crhf) gues
 s=read geom=nocrowd test
 ----------------------------------------------------------------------

 hf stability analysis of h12 triangular lattice, y= 0.9949868959062069
 3
 ----------------------------------------------------------------------
 Symbolic Z-matrix:
 Charge =  0 Multiplicity = 1

                         Standard orientation:
 ---------------------------------------------------------------------
 Center     Atomic      Atomic             Coordinates (Angstroms)
 Number     Number       Type             X           Y           Z
 ---------------------------------------------------------------------
      1          1           0        1.002497    2.294922   -0.000000
      2          1           0        0.000000    1.727737   -0.000000
      3          1           0        1.002497    1.143098   -0.000000
      4          1           0        0.000000    0.575912   -0.000000
      5          1           0       -1.002497    1.160551    0.000000
      6          1           0       -1.002497    0.008727    0.000000
      7          1           0       -1.002497   -1.143098   -0.000000
      8          1           0       -0.000000   -0.575912   -0.000000
      9          1           0        1.002497   -0.008727    0.000000
     10          1           0        1.002497   -1.160551    0.000000
     11          1           0       -0.000000   -1.727737   -0.000000
     12          1           0       -1.002497   -2.294922   -0.000000
 ---------------------------------------------------------------------

 SCF Done:  E(RHF) =  -5.58008730707     A.U. after   12 cycles
 E2 =    -0.1559465046D+00 EUMP2 =    -0.57360338116444D+01

 The electronic state is 1-AG.
 Alpha  occ. eigenvalues --   -0.89785  -0.75377  -0.57805  -0.53878  -0.33081
 Alpha  occ. eigenvalues --   -0.13324
 Alpha virt. eigenvalues --   -0.08274   0.21817   0.23594   0.41976   0.60859
 Alpha virt. eigenvalues --    0.64184

 Mulliken charges:
               1
     1  H    0.264663
     2  H   -0.063589
     3  H   -0.016577
     4  H   -0.029712
     5  H   -0.157396
     6  H    0.002612
     7  H   -0.016577
     8  H   -0.029712
     9  H    0.002612
    10  H   -0.157396
    11  H   -0.063589
    12  H    0.264663
 Sum of Mulliken charges =   0.00000

 Dipole moment (field-independent basis, Debye):
    X=              0.0000    Y=              0.0000    Z=             -0.0000  Tot=              0.0000
 Quadrupole moment (field-independent basis, Debye-Ang):
   XX=            -20.3790   YY=             -6.4098   ZZ=            -15.1818
   XY=              8.8267   XZ=             -0.0000   YZ=              0.0000

 Normal termination of Gaussian 09 at Fri Feb 17 15:05:17 2017.
