 Gaussian 09, Revision E.01,
 Gaussian 09:  ES64L-G09RevE.01 30-Nov-2015

 ----------------------------------------------------------------------
 #rhf/gen scf(symm,tight,novaracc,noincfock,fulldiag) stable(crhf) gues
 s=read geom=nocrowd test
 ----------------------------------------------------------------------

 hf stability analysis of h12 triangular lattice, y= 0.4001417309484786
 0
 ----------------------------------------------------------------------
 Symbolic Z-matrix:
 Charge =  0 Multiplicity = 1

                         Standard orientation:
 ---------------------------------------------------------------------
 Center     Atomic      Atomic             Coordinates (Angstroms)
 Number     Number       Type             X           Y           Z
 ---------------------------------------------------------------------
      1          1           0        0.771177    0.962527    0.000000
      2          1           0        0.000000    2.245982    0.000000
      3          1           0        0.771177   -0.534794    0.000000
      4          1           0        0.000000    0.748661    0.000000
      5          1           0       -0.771177    3.529437   -0.000000
      6          1           0       -0.771177    2.032116   -0.000000
      7          1           0       -0.771177    0.534794   -0.000000
      8          1           0       -0.000000   -0.748661    0.000000
      9          1           0        0.771177   -2.032116    0.000000
     10          1           0        0.771177   -3.529437    0.000000
     11          1           0       -0.000000   -2.245982    0.000000
     12          1           0       -0.771177   -0.962527   -0.000000
 ---------------------------------------------------------------------

 SCF Done:  E(RHF) =  -5.38991667490     A.U. after   17 cycles
 E2 =    -0.6561185797D+00 EUMP2 =    -0.60460352545532D+01

 The electronic state is 1-AG.
 Alpha  occ. eigenvalues --   -0.90591  -0.78140  -0.60891  -0.52955  -0.26359
 Alpha  occ. eigenvalues --   -0.12521
 Alpha virt. eigenvalues --   -0.20030  -0.03007   0.39903   0.44691   0.57409
 Alpha virt. eigenvalues --    0.78080

 Mulliken charges:
               1
     1  H    0.024015
     2  H    0.054495
     3  H    0.289810
     4  H   -0.194726
     5  H   -0.121744
     6  H   -0.051850
     7  H    0.289810
     8  H   -0.194726
     9  H   -0.051850
    10  H   -0.121744
    11  H    0.054495
    12  H    0.024015
 Sum of Mulliken charges =   0.00000

 Dipole moment (field-independent basis, Debye):
    X=              0.0000    Y=              0.0000    Z=             -0.0000  Tot=              0.0000
 Quadrupole moment (field-independent basis, Debye-Ang):
   XX=            -14.3412   YY=            -36.2533   ZZ=            -14.8065
   XY=              3.9978   XZ=              0.0000   YZ=              0.0000

 Normal termination of Gaussian 09 at Fri Feb 17 14:56:00 2017.
