 Gaussian 09, Revision E.01,
 Gaussian 09:  ES64L-G09RevE.01 30-Nov-2015

 ----------------------------------------------------------------------
 #rhf/gen scf(symm,tight,novaracc,noincfock,fulldiag) stable(crhf) gues
 s=read geom=nocrowd test
 ----------------------------------------------------------------------

 ----------------------------------------------------------------------
 hf stability analysis of h12 triangular lattice, y= 1.7036831833639368
 ----------------------------------------------------------------------
 Symbolic Z-matrix:
 Charge =  0 Multiplicity = 1

                         Standard orientation:
 ---------------------------------------------------------------------
 Center     Atomic      Atomic             Coordinates (Angstroms)
 Number     Number       Type             X           Y           Z
 ---------------------------------------------------------------------
      1          1           0        0.664744    4.210425    0.000000
      2          1           0        0.000000    2.605590    0.000000
      3          1           0        0.664744    2.473365    0.000000
      4          1           0        0.000000    0.868530    0.000000
      5          1           0       -0.664744    1.000756    0.000000
      6          1           0       -0.664744   -0.736304    0.000000
      7          1           0       -0.664744   -2.473365   -0.000000
      8          1           0       -0.000000   -0.868530    0.000000
      9          1           0        0.664744    0.736304    0.000000
     10          1           0        0.664744   -1.000756    0.000000
     11          1           0       -0.000000   -2.605590    0.000000
     12          1           0       -0.664744   -4.210425   -0.000000
 ---------------------------------------------------------------------

 SCF Done:  E(RHF) =  -5.36039222262     A.U. after   11 cycles
 E2 =    -0.7493908206D+00 EUMP2 =    -0.61097830431999D+01

 The electronic state is 1-AG.
 Alpha  occ. eigenvalues --   -0.87140  -0.79305  -0.64404  -0.61764  -0.20798
 Alpha  occ. eigenvalues --   -0.17459
 Alpha virt. eigenvalues --   -0.11189  -0.10545   0.48099   0.49918   0.85025
 Alpha virt. eigenvalues --    1.03196

 Mulliken charges:
               1
     1  H   -0.030948
     2  H    0.002601
     3  H   -0.020171
     4  H   -0.263491
     5  H    0.120183
     6  H    0.191824
     7  H   -0.020171
     8  H   -0.263491
     9  H    0.191824
    10  H    0.120183
    11  H    0.002601
    12  H   -0.030948
 Sum of Mulliken charges =  -0.00000

 Dipole moment (field-independent basis, Debye):
    X=              0.0000    Y=              0.0000    Z=              0.0000  Tot=              0.0000
 Quadrupole moment (field-independent basis, Debye-Ang):
   XX=            -14.4878   YY=            -27.2776   ZZ=            -14.9461
   XY=             -1.3727   XZ=             -0.0000   YZ=             -0.0000

 Normal termination of Gaussian 09 at Fri Feb 17 15:09:06 2017.
