 Gaussian 09, Revision E.01,
 Gaussian 09:  ES64L-G09RevE.01 30-Nov-2015

 ----------------------------------------------------------------------
 #rhf/gen scf(symm,tight,novaracc,noincfock,fulldiag) stable(crhf) gues
 s=read geom=nocrowd test
 ----------------------------------------------------------------------

 hf stability analysis of h12 triangular lattice, y= 0.9384058608233425
 4
 ----------------------------------------------------------------------
 Symbolic Z-matrix:
 Charge =  0 Multiplicity = 1

                         Standard orientation:
 ---------------------------------------------------------------------
 Center     Atomic      Atomic             Coordinates (Angstroms)
 Number     Number       Type             X           Y           Z
 ---------------------------------------------------------------------
      1          1           0        1.029043    2.130607   -0.000000
      2          1           0        0.000000    1.683166   -0.000000
      3          1           0        1.029043    1.008496   -0.000000
      4          1           0        0.000000    0.561055   -0.000000
      5          1           0       -1.029043    1.235726   -0.000000
      6          1           0       -1.029043    0.113615   -0.000000
      7          1           0       -1.029043   -1.008496   -0.000000
      8          1           0       -0.000000   -0.561055   -0.000000
      9          1           0        1.029043   -0.113615   -0.000000
     10          1           0        1.029043   -1.235726   -0.000000
     11          1           0       -0.000000   -1.683166   -0.000000
     12          1           0       -1.029043   -2.130607   -0.000000
 ---------------------------------------------------------------------

 SCF Done:  E(RHF) =  -5.69148515164     A.U. after   11 cycles
 E2 =    -0.1464826050D+00 EUMP2 =    -0.58379677566544D+01

 The electronic state is 1-AG.
 Alpha  occ. eigenvalues --   -0.91210  -0.75618  -0.60797  -0.52651  -0.36009
 Alpha  occ. eigenvalues --   -0.18415
 Alpha virt. eigenvalues --   -0.04996   0.20642   0.30226   0.35622   0.65001
 Alpha virt. eigenvalues --    0.72537

 Mulliken charges:
               1
     1  H    0.227128
     2  H   -0.059611
     3  H   -0.022651
     4  H   -0.040801
     5  H   -0.107754
     6  H    0.003689
     7  H   -0.022651
     8  H   -0.040801
     9  H    0.003689
    10  H   -0.107754
    11  H   -0.059611
    12  H    0.227128
 Sum of Mulliken charges =  -0.00000

 Dipole moment (field-independent basis, Debye):
    X=              0.0000    Y=             -0.0000    Z=             -0.0000  Tot=              0.0000
 Quadrupole moment (field-independent basis, Debye-Ang):
   XX=            -20.0178   YY=             -9.6850   ZZ=            -15.1895
   XY=              7.0481   XZ=              0.0000   YZ=             -0.0000

 Normal termination of Gaussian 09 at Fri Feb 17 15:04:38 2017.
