 Gaussian 09, Revision E.01,
 Gaussian 09:  ES64L-G09RevE.01 30-Nov-2015

 ----------------------------------------------------------------------
 #rhf/gen scf(symm,tight,novaracc,noincfock,fulldiag) stable(crhf) gues
 s=read geom=nocrowd test
 ----------------------------------------------------------------------

 hf stability analysis of h12 triangular lattice, y= 0.8185645993885070
 1
 ----------------------------------------------------------------------
 Symbolic Z-matrix:
 Charge =  0 Multiplicity = 1

                         Standard orientation:
 ---------------------------------------------------------------------
 Center     Atomic      Atomic             Coordinates (Angstroms)
 Number     Number       Type             X           Y           Z
 ---------------------------------------------------------------------
      1          1           0        1.068652    1.780492    0.000000
      2          1           0        0.000000    1.620781    0.000000
      3          1           0        1.068652    0.699971   -0.000000
      4          1           0        0.000000    0.540260    0.000000
      5          1           0       -1.068652    1.461070    0.000000
      6          1           0       -1.068652    0.380549    0.000000
      7          1           0       -1.068652   -0.699971    0.000000
      8          1           0       -0.000000   -0.540260    0.000000
      9          1           0        1.068652   -0.380549    0.000000
     10          1           0        1.068652   -1.461070    0.000000
     11          1           0       -0.000000   -1.620781    0.000000
     12          1           0       -1.068652   -1.780492    0.000000
 ---------------------------------------------------------------------

 SCF Done:  E(RHF) =  -5.83813438135     A.U. after    9 cycles
 E2 =    -0.1387971169D+00 EUMP2 =    -0.59769314982794D+01

 The electronic state is 1-AG.
 Alpha  occ. eigenvalues --   -0.93451  -0.75563  -0.65712  -0.48543  -0.42315
 Alpha  occ. eigenvalues --   -0.25990
 Alpha virt. eigenvalues --    0.03569   0.18828   0.21985   0.46522   0.61021
 Alpha virt. eigenvalues --    0.96352

 Mulliken charges:
               1
     1  H    0.126645
     2  H   -0.057777
     3  H   -0.018163
     4  H   -0.051621
     5  H    0.006136
     6  H   -0.005220
     7  H   -0.018163
     8  H   -0.051621
     9  H   -0.005220
    10  H    0.006136
    11  H   -0.057777
    12  H    0.126645
 Sum of Mulliken charges =  -0.00000

 Dipole moment (field-independent basis, Debye):
    X=             -0.0000    Y=              0.0000    Z=              0.0000  Tot=              0.0000
 Quadrupole moment (field-independent basis, Debye-Ang):
   XX=            -19.4350   YY=            -14.4044   ZZ=            -15.1965
   XY=              2.5641   XZ=              0.0000   YZ=             -0.0000

 Normal termination of Gaussian 09 at Fri Feb 17 15:03:03 2017.
