 Gaussian 09, Revision E.01,
 Gaussian 09:  ES64L-G09RevE.01 30-Nov-2015

 ----------------------------------------------------------------------
 #rhf/gen scf(symm,tight,novaracc,noincfock,fulldiag) stable(crhf) gues
 s=read geom=nocrowd test
 ----------------------------------------------------------------------

 hf stability analysis of h12 triangular lattice, y= 0.6536181925990977
 0
 ----------------------------------------------------------------------
 Symbolic Z-matrix:
 Charge =  0 Multiplicity = 1

                         Standard orientation:
 ---------------------------------------------------------------------
 Center     Atomic      Atomic             Coordinates (Angstroms)
 Number     Number       Type             X           Y           Z
 ---------------------------------------------------------------------
      1          1           0        1.050831    1.326997    0.000000
      2          1           0        0.000000    1.648268    0.000000
      3          1           0        1.050831    0.228151    0.000000
      4          1           0        0.000000    0.549423    0.000000
      5          1           0       -1.050831    1.969539   -0.000000
      6          1           0       -1.050831    0.870694   -0.000000
      7          1           0       -1.050831   -0.228151    0.000000
      8          1           0       -0.000000   -0.549423   -0.000000
      9          1           0        1.050831   -0.870694   -0.000000
     10          1           0        1.050831   -1.969539   -0.000000
     11          1           0       -0.000000   -1.648268   -0.000000
     12          1           0       -1.050831   -1.326997    0.000000
 ---------------------------------------------------------------------

 SCF Done:  E(RHF) =  -5.77506780680     A.U. after    9 cycles
 E2 =    -0.1418791852D+00 EUMP2 =    -0.59169469920142D+01

 The electronic state is 1-AG.
 Alpha  occ. eigenvalues --   -0.92438  -0.75685  -0.63407  -0.51046  -0.38864
 Alpha  occ. eigenvalues --   -0.22592
 Alpha virt. eigenvalues --   -0.01285   0.19652   0.29137   0.37447   0.64376
 Alpha virt. eigenvalues --    0.84452

 Mulliken charges:
               1
     1  H   -0.057139
     2  H   -0.058320
     3  H    0.000637
     4  H   -0.047039
     5  H    0.184286
     6  H   -0.022426
     7  H    0.000637
     8  H   -0.047039
     9  H   -0.022426
    10  H    0.184286
    11  H   -0.058320
    12  H   -0.057139
 Sum of Mulliken charges =  -0.00000

 Dipole moment (field-independent basis, Debye):
    X=             -0.0000    Y=             -0.0000    Z=             -0.0000  Tot=              0.0000
 Quadrupole moment (field-independent basis, Debye-Ang):
   XX=            -19.7032   YY=            -12.3177   ZZ=            -15.1939
   XY=             -5.1120   XZ=              0.0000   YZ=              0.0000

 Normal termination of Gaussian 09 at Fri Feb 17 15:00:22 2017.
