 Gaussian 09, Revision E.01,
 Gaussian 09:  ES64L-G09RevE.01 30-Nov-2015

 ----------------------------------------------------------------------
 #rhf/gen scf(symm,tight,novaracc,noincfock,fulldiag) stable(crhf) gues
 s=read geom=nocrowd test
 ----------------------------------------------------------------------

 hf stability analysis of h12 triangular lattice, y= 0.2710133450063199
 1
 ----------------------------------------------------------------------
 Symbolic Z-matrix:
 Charge =  0 Multiplicity = 1

                         Standard orientation:
 ---------------------------------------------------------------------
 Center     Atomic      Atomic             Coordinates (Angstroms)
 Number     Number       Type             X           Y           Z
 ---------------------------------------------------------------------
      1          1           0        0.537693    1.142157    0.000000
      2          1           0        0.000000    3.221262    0.000000
      3          1           0        0.537693   -1.005351    0.000000
      4          1           0        0.000000    1.073754    0.000000
      5          1           0       -0.537693    5.300368    0.000000
      6          1           0       -0.537693    3.152859    0.000000
      7          1           0       -0.537693    1.005351    0.000000
      8          1           0       -0.000000   -1.073754   -0.000000
      9          1           0        0.537693   -3.152859   -0.000000
     10          1           0        0.537693   -5.300368   -0.000000
     11          1           0       -0.000000   -3.221262   -0.000000
     12          1           0       -0.537693   -1.142157   -0.000000
 ---------------------------------------------------------------------

 SCF Done:  E(RHF) =  -4.85089233117     A.U. after   10 cycles
 E2 =    -0.9885987178D+00 EUMP2 =    -0.58394910490082D+01

 The electronic state is 1-AG.
 Alpha  occ. eigenvalues --   -0.88978  -0.87039  -0.69550  -0.69418  -0.20150
 Alpha  occ. eigenvalues --   -0.15823
 Alpha virt. eigenvalues --   -0.15166  -0.02423   0.58028   0.58300   1.25479
 Alpha virt. eigenvalues --    1.37780

 Mulliken charges:
               1
     1  H    0.232690
     2  H   -0.003055
     3  H    0.240884
     4  H   -0.462899
     5  H   -0.000395
     6  H   -0.007226
     7  H    0.240884
     8  H   -0.462899
     9  H   -0.007226
    10  H   -0.000395
    11  H   -0.003055
    12  H    0.232690
 Sum of Mulliken charges =   0.00000

 Dipole moment (field-independent basis, Debye):
    X=              0.0000    Y=             -0.0000    Z=              0.0000  Tot=              0.0000
 Quadrupole moment (field-independent basis, Debye-Ang):
   XX=            -15.4794   YY=            -20.0140   ZZ=            -15.1727
   XY=              0.1333   XZ=             -0.0000   YZ=             -0.0000

 Normal termination of Gaussian 09 at Fri Feb 17 14:54:18 2017.
