 Gaussian 09, Revision E.01,
 Gaussian 09:  ES64L-G09RevE.01 30-Nov-2015

 ----------------------------------------------------------------------
 #rhf/gen scf(symm,tight,novaracc,noincfock,fulldiag) stable(crhf) gues
 s=read geom=nocrowd test
 ----------------------------------------------------------------------

 hf stability analysis of h12 triangular lattice, y= 0.4234052775129074
 1
 ----------------------------------------------------------------------
 Symbolic Z-matrix:
 Charge =  0 Multiplicity = 1

                         Standard orientation:
 ---------------------------------------------------------------------
 Center     Atomic      Atomic             Coordinates (Angstroms)
 Number     Number       Type             X           Y           Z
 ---------------------------------------------------------------------
      1          1           0        0.808721    0.965020    0.000000
      2          1           0       -0.000000    2.141716    0.000000
      3          1           0        0.808721   -0.462791   -0.000000
      4          1           0       -0.000000    0.713905    0.000000
      5          1           0       -0.808721    3.318412    0.000000
      6          1           0       -0.808721    1.890602    0.000000
      7          1           0       -0.808721    0.462791   -0.000000
      8          1           0       -0.000000   -0.713905   -0.000000
      9          1           0        0.808721   -1.890602    0.000000
     10          1           0        0.808721   -3.318412    0.000000
     11          1           0       -0.000000   -2.141716   -0.000000
     12          1           0       -0.808721   -0.965020   -0.000000
 ---------------------------------------------------------------------

 SCF Done:  E(RHF) =  -5.36053792640     A.U. after   17 cycles
 E2 =    -0.1121238897D+01 EUMP2 =    -0.64817768234404D+01

 The electronic state is 1-AG.
 Alpha  occ. eigenvalues --   -0.92502  -0.77833  -0.59417  -0.50857  -0.27915
 Alpha  occ. eigenvalues --   -0.12518
 Alpha virt. eigenvalues --   -0.22941  -0.00121   0.35138   0.41261   0.50306
 Alpha virt. eigenvalues --    0.70933

 Mulliken charges:
               1
     1  H   -0.135357
     2  H    0.137092
     3  H    0.323488
     4  H   -0.115475
     5  H   -0.117075
     6  H   -0.092673
     7  H    0.323488
     8  H   -0.115475
     9  H   -0.092673
    10  H   -0.117075
    11  H    0.137092
    12  H   -0.135357
 Sum of Mulliken charges =   0.00000

 Dipole moment (field-independent basis, Debye):
    X=             -0.0000    Y=              0.0000    Z=             -0.0000  Tot=              0.0000
 Quadrupole moment (field-independent basis, Debye-Ang):
   XX=            -16.6542   YY=            -31.3871   ZZ=            -14.9588
   XY=              2.9912   XZ=              0.0000   YZ=             -0.0000

 Normal termination of Gaussian 09 at Fri Feb 17 14:56:21 2017.
