 Gaussian 09, Revision E.01,
 Gaussian 09:  ES64L-G09RevE.01 30-Nov-2015

 ----------------------------------------------------------------------
 #rhf/gen scf(symm,tight,novaracc,noincfock,fulldiag) stable(crhf) gues
 s=read geom=nocrowd test
 ----------------------------------------------------------------------

 ----------------------------------------------------------------------
 hf stability analysis of h12 triangular lattice, y= 1.2768661018621295
 ----------------------------------------------------------------------
 Symbolic Z-matrix:
 Charge =  0 Multiplicity = 1

                         Standard orientation:
 ---------------------------------------------------------------------
 Center     Atomic      Atomic             Coordinates (Angstroms)
 Number     Number       Type             X           Y           Z
 ---------------------------------------------------------------------
      1          1           0        0.852453    3.084535   -0.000000
      2          1           0        0.000000    2.031843   -0.000000
      3          1           0        0.852453    1.729973   -0.000000
      4          1           0        0.000000    0.677281   -0.000000
      5          1           0       -0.852453    0.979150   -0.000000
      6          1           0       -0.852453   -0.375411   -0.000000
      7          1           0       -0.852453   -1.729973   -0.000000
      8          1           0       -0.000000   -0.677281   -0.000000
      9          1           0        0.852453    0.375411    0.000000
     10          1           0        0.852453   -0.979150    0.000000
     11          1           0       -0.000000   -2.031843   -0.000000
     12          1           0       -0.852453   -3.084535   -0.000000
 ---------------------------------------------------------------------

 SCF Done:  E(RHF) =  -5.38785317852     A.U. after   13 cycles
 E2 =    -0.5270486823D+00 EUMP2 =    -0.59149018608166D+01

 The electronic state is 1-AG.
 Alpha  occ. eigenvalues --   -0.94135  -0.77315  -0.56945  -0.53043  -0.29546
 Alpha  occ. eigenvalues --   -0.12469
 Alpha virt. eigenvalues --   -0.21536   0.05805   0.30809   0.34162   0.49383
 Alpha virt. eigenvalues --    0.63083

 Mulliken charges:
               1
     1  H   -0.044132
     2  H    0.094016
     3  H   -0.086310
     4  H    0.071664
     5  H   -0.157006
     6  H    0.121768
     7  H   -0.086310
     8  H    0.071664
     9  H    0.121768
    10  H   -0.157006
    11  H    0.094016
    12  H   -0.044132
 Sum of Mulliken charges =  -0.00000

 Dipole moment (field-independent basis, Debye):
    X=              0.0000    Y=             -0.0000    Z=              0.0000  Tot=              0.0000
 Quadrupole moment (field-independent basis, Debye-Ang):
   XX=            -19.1787   YY=            -22.8980   ZZ=            -15.1296
   XY=             -0.8368   XZ=             -0.0000   YZ=              0.0000

 Normal termination of Gaussian 09 at Fri Feb 17 15:07:29 2017.
