 Gaussian 09, Revision E.01,
 Gaussian 09:  ES64L-G09RevE.01 30-Nov-2015

 ----------------------------------------------------------------------
 #rhf/gen scf(symm,tight,novaracc,noincfock,fulldiag) stable(crhf) gues
 s=read geom=nocrowd test
 ----------------------------------------------------------------------

 hf stability analysis of h12 triangular lattice, y= 0.7499531690997017
 8
 ----------------------------------------------------------------------
 Symbolic Z-matrix:
 Charge =  0 Multiplicity = 1

                         Standard orientation:
 ---------------------------------------------------------------------
 Center     Atomic      Atomic             Coordinates (Angstroms)
 Number     Number       Type             X           Y           Z
 ---------------------------------------------------------------------
      1          1           0        1.074386    1.583997    0.000000
      2          1           0        0.000000    1.612131    0.000000
      3          1           0        1.074386    0.509243   -0.000000
      4          1           0        0.000000    0.537377    0.000000
      5          1           0       -1.074386    1.640265    0.000000
      6          1           0       -1.074386    0.565511    0.000000
      7          1           0       -1.074386   -0.509243   -0.000000
      8          1           0       -0.000000   -0.537377    0.000000
      9          1           0        1.074386   -0.565511    0.000000
     10          1           0        1.074386   -1.640265    0.000000
     11          1           0       -0.000000   -1.612131    0.000000
     12          1           0       -1.074386   -1.583997   -0.000000
 ---------------------------------------------------------------------

 SCF Done:  E(RHF) =  -5.85742436091     A.U. after    8 cycles
 E2 =    -0.1378904761D+00 EUMP2 =    -0.59953148370052D+01

 The electronic state is 1-AG.
 Alpha  occ. eigenvalues --   -0.93777  -0.75466  -0.66508  -0.46280  -0.44874
 Alpha  occ. eigenvalues --   -0.27075
 Alpha virt. eigenvalues --    0.06248   0.18328   0.18798   0.52783   0.56660
 Alpha virt. eigenvalues --    1.00722

 Mulliken charges:
               1
     1  H    0.056617
     2  H   -0.057656
     3  H   -0.010708
     4  H   -0.053061
     5  H    0.077877
     6  H   -0.013070
     7  H   -0.010708
     8  H   -0.053061
     9  H   -0.013070
    10  H    0.077877
    11  H   -0.057656
    12  H    0.056617
 Sum of Mulliken charges =  -0.00000

 Dipole moment (field-independent basis, Debye):
    X=              0.0000    Y=              0.0000    Z=              0.0000  Tot=              0.0000
 Quadrupole moment (field-independent basis, Debye-Ang):
   XX=            -19.3468   YY=            -15.0628   ZZ=            -15.1971
   XY=             -0.4530   XZ=             -0.0000   YZ=             -0.0000

 Normal termination of Gaussian 09 at Fri Feb 17 15:02:00 2017.
