 Gaussian 09, Revision E.01,
 Gaussian 09:  ES64L-G09RevE.01 30-Nov-2015

 ----------------------------------------------------------------------
 #rhf/gen scf(symm,tight,novaracc,noincfock,fulldiag) stable(crhf) gues
 s=read geom=nocrowd test
 ----------------------------------------------------------------------

 hf stability analysis of h12 triangular lattice, y= 0.7305457695626856
 9
 ----------------------------------------------------------------------
 Symbolic Z-matrix:
 Charge =  0 Multiplicity = 1

                         Standard orientation:
 ---------------------------------------------------------------------
 Center     Atomic      Atomic             Coordinates (Angstroms)
 Number     Number       Type             X           Y           Z
 ---------------------------------------------------------------------
      1          1           0        1.072912    1.529905   -0.000000
      2          1           0        0.000000    1.614345   -0.000000
      3          1           0        1.072912    0.453675   -0.000000
      4          1           0        0.000000    0.538115   -0.000000
      5          1           0       -1.072912    1.698785    0.000000
      6          1           0       -1.072912    0.622555    0.000000
      7          1           0       -1.072912   -0.453675   -0.000000
      8          1           0       -0.000000   -0.538115   -0.000000
      9          1           0        1.072912   -0.622555    0.000000
     10          1           0        1.072912   -1.698785   -0.000000
     11          1           0       -0.000000   -1.614345   -0.000000
     12          1           0       -1.072912   -1.529905   -0.000000
 ---------------------------------------------------------------------

 SCF Done:  E(RHF) =  -5.85251352829     A.U. after    8 cycles
 E2 =    -0.1381201078D+00 EUMP2 =    -0.59906336360443D+01

 The electronic state is 1-AG.
 Alpha  occ. eigenvalues --   -0.93693  -0.75494  -0.66300  -0.47237  -0.43841
 Alpha  occ. eigenvalues --   -0.26797
 Alpha virt. eigenvalues --    0.05434   0.18594   0.19606   0.50391   0.58561
 Alpha virt. eigenvalues --    0.99570

 Mulliken charges:
               1
     1  H    0.035137
     2  H   -0.057686
     3  H   -0.008328
     4  H   -0.052691
     5  H    0.098921
     6  H   -0.015354
     7  H   -0.008328
     8  H   -0.052691
     9  H   -0.015354
    10  H    0.098921
    11  H   -0.057686
    12  H    0.035137
 Sum of Mulliken charges =  -0.00000

 Dipole moment (field-independent basis, Debye):
    X=              0.0000    Y=             -0.0000    Z=              0.0000  Tot=              0.0000
 Quadrupole moment (field-independent basis, Debye-Ang):
   XX=            -19.3695   YY=            -14.8942   ZZ=            -15.1969
   XY=             -1.3587   XZ=              0.0000   YZ=              0.0000

 Normal termination of Gaussian 09 at Fri Feb 17 15:01:42 2017.
