 Gaussian 09, Revision E.01,
 Gaussian 09:  ES64L-G09RevE.01 30-Nov-2015

 ----------------------------------------------------------------------
 #rhf/gen scf(symm,tight,novaracc,noincfock,fulldiag) stable(crhf) gues
 s=read geom=nocrowd test
 ----------------------------------------------------------------------

 ----------------------------------------------------------------------
 hf stability analysis of h12 triangular lattice, y= 1.8574471710024862
 ----------------------------------------------------------------------
 Symbolic Z-matrix:
 Charge =  0 Multiplicity = 1

                         Standard orientation:
 ---------------------------------------------------------------------
 Center     Atomic      Atomic             Coordinates (Angstroms)
 Number     Number       Type             X           Y           Z
 ---------------------------------------------------------------------
      1          1           0        0.613134    4.605584    0.000000
      2          1           0        0.000000    2.824913    0.000000
      3          1           0        0.613134    2.722309    0.000000
      4          1           0        0.000000    0.941638    0.000000
      5          1           0       -0.613134    1.044241   -0.000000
      6          1           0       -0.613134   -0.839034   -0.000000
      7          1           0       -0.613134   -2.722309    0.000000
      8          1           0       -0.000000   -0.941638    0.000000
      9          1           0        0.613134    0.839034   -0.000000
     10          1           0        0.613134   -1.044241    0.000000
     11          1           0       -0.000000   -2.824913    0.000000
     12          1           0       -0.613134   -4.605584    0.000000
 ---------------------------------------------------------------------

 SCF Done:  E(RHF) =  -5.22937824473     A.U. after   11 cycles
 E2 =    -0.8447821512D+00 EUMP2 =    -0.60741603959236D+01

 The electronic state is 1-AG.
 Alpha  occ. eigenvalues --   -0.87103  -0.81618  -0.66439  -0.65381  -0.19018
 Alpha  occ. eigenvalues --   -0.18662
 Alpha virt. eigenvalues --   -0.13158  -0.07146   0.51929   0.52863   1.00168
 Alpha virt. eigenvalues --    1.16181

 Mulliken charges:
               1
     1  H   -0.011450
     2  H   -0.002197
     3  H   -0.013963
     4  H   -0.323164
     5  H    0.157350
     6  H    0.193423
     7  H   -0.013963
     8  H   -0.323164
     9  H    0.193423
    10  H    0.157350
    11  H   -0.002197
    12  H   -0.011450
 Sum of Mulliken charges =   0.00000

 Dipole moment (field-independent basis, Debye):
    X=              0.0000    Y=              0.0000    Z=             -0.0000  Tot=              0.0000
 Quadrupole moment (field-independent basis, Debye-Ang):
   XX=            -14.8680   YY=            -23.7104   ZZ=            -15.0405
   XY=             -0.6628   XZ=              0.0000   YZ=             -0.0000

 Normal termination of Gaussian 09 at Fri Feb 17 15:09:25 2017.
