 Gaussian 09, Revision E.01,
 Gaussian 09:  ES64L-G09RevE.01 30-Nov-2015

 ----------------------------------------------------------------------
 #rhf/gen scf(symm,tight,novaracc,noincfock,fulldiag) stable(crhf) gues
 s=read geom=nocrowd test
 ----------------------------------------------------------------------

 hf stability analysis of h12 triangular lattice, y= 0.4427008172522774
 5
 ----------------------------------------------------------------------
 Symbolic Z-matrix:
 Charge =  0 Multiplicity = 1

                         Standard orientation:
 ---------------------------------------------------------------------
 Center     Atomic      Atomic             Coordinates (Angstroms)
 Number     Number       Type             X           Y           Z
 ---------------------------------------------------------------------
      1          1           0        0.838413    0.973225   -0.000000
      2          1           0       -0.000000    2.065867   -0.000000
      3          1           0        0.838413   -0.404019    0.000000
      4          1           0       -0.000000    0.688622   -0.000000
      5          1           0       -0.838413    3.158509   -0.000000
      6          1           0       -0.838413    1.781264   -0.000000
      7          1           0       -0.838413    0.404019    0.000000
      8          1           0       -0.000000   -0.688622   -0.000000
      9          1           0        0.838413   -1.781264   -0.000000
     10          1           0        0.838413   -3.158509   -0.000000
     11          1           0       -0.000000   -2.065867   -0.000000
     12          1           0       -0.838413   -0.973225   -0.000000
 ---------------------------------------------------------------------

 SCF Done:  E(RHF) =  -5.37657105272     A.U. after   14 cycles
 E2 =    -0.6210453226D+00 EUMP2 =    -0.59976163753638D+01

 The electronic state is 1-AG.
 Alpha  occ. eigenvalues --   -0.93607  -0.77360  -0.57590  -0.52139  -0.28911
 Alpha  occ. eigenvalues --   -0.13136
 Alpha virt. eigenvalues --   -0.22293   0.03366   0.31724   0.36671   0.49106
 Alpha virt. eigenvalues --    0.65760

 Mulliken charges:
               1
     1  H   -0.170197
     2  H    0.112678
     3  H    0.157896
     4  H    0.040592
     5  H   -0.054251
     6  H   -0.086717
     7  H    0.157896
     8  H    0.040592
     9  H   -0.086717
    10  H   -0.054251
    11  H    0.112678
    12  H   -0.170197
 Sum of Mulliken charges =  -0.00000

 Dipole moment (field-independent basis, Debye):
    X=              0.0000    Y=             -0.0000    Z=              0.0000  Tot=              0.0000
 Quadrupole moment (field-independent basis, Debye-Ang):
   XX=            -18.9569   YY=            -23.5497   ZZ=            -15.1240
   XY=              0.9611   XZ=             -0.0000   YZ=              0.0000

 Normal termination of Gaussian 09 at Fri Feb 17 14:56:39 2017.
