 Gaussian 09, Revision E.01,
 Gaussian 09:  ES64L-G09RevE.01 30-Nov-2015

 ----------------------------------------------------------------------
 #rhf/gen scf(symm,tight,novaracc,noincfock,fulldiag) stable(crhf) gues
 s=read geom=nocrowd test
 ----------------------------------------------------------------------

 hf stability analysis of h12 triangular lattice, y= 0.7937677784109760
 1
 ----------------------------------------------------------------------
 Symbolic Z-matrix:
 Charge =  0 Multiplicity = 1

                         Standard orientation:
 ---------------------------------------------------------------------
 Center     Atomic      Atomic             Coordinates (Angstroms)
 Number     Number       Type             X           Y           Z
 ---------------------------------------------------------------------
      1          1           0        1.072523    1.708764   -0.000000
      2          1           0        0.000000    1.614930    0.000000
      3          1           0        1.072523    0.632144   -0.000000
      4          1           0        0.000000    0.538310    0.000000
      5          1           0       -1.072523    1.521097    0.000000
      6          1           0       -1.072523    0.444477    0.000000
      7          1           0       -1.072523   -0.632144    0.000000
      8          1           0       -0.000000   -0.538310    0.000000
      9          1           0        1.072523   -0.444477    0.000000
     10          1           0        1.072523   -1.521097    0.000000
     11          1           0       -0.000000   -1.614930    0.000000
     12          1           0       -1.072523   -1.708764    0.000000
 ---------------------------------------------------------------------

 SCF Done:  E(RHF) =  -5.85121192664     A.U. after    8 cycles
 E2 =    -0.1381811004D+00 EUMP2 =    -0.59893930270395D+01

 The electronic state is 1-AG.
 Alpha  occ. eigenvalues --   -0.93671  -0.75501  -0.66246  -0.47402  -0.43656
 Alpha  occ. eigenvalues --   -0.26724
 Alpha virt. eigenvalues --    0.05238   0.18623   0.19842   0.49933   0.58889
 Alpha virt. eigenvalues --    0.99270

 Mulliken charges:
               1
     1  H    0.102408
     2  H   -0.057693
     3  H   -0.015722
     4  H   -0.052594
     5  H    0.031535
     6  H   -0.007933
     7  H   -0.015722
     8  H   -0.052594
     9  H   -0.007933
    10  H    0.031535
    11  H   -0.057693
    12  H    0.102408
 Sum of Mulliken charges =   0.00000

 Dipole moment (field-independent basis, Debye):
    X=              0.0000    Y=              0.0000    Z=              0.0000  Tot=              0.0000
 Quadrupole moment (field-independent basis, Debye-Ang):
   XX=            -19.3755   YY=            -14.8496   ZZ=            -15.1969
   XY=              1.5095   XZ=             -0.0000   YZ=             -0.0000

 Normal termination of Gaussian 09 at Fri Feb 17 15:02:42 2017.
