 Gaussian 09, Revision E.01,
 Gaussian 09:  ES64L-G09RevE.01 30-Nov-2015

 ----------------------------------------------------------------------
 #rhf/gen scf(symm,tight,novaracc,noincfock,fulldiag) stable(crhf) gues
 s=read geom=nocrowd test
 ----------------------------------------------------------------------

 ----------------------------------------------------------------------
 hf stability analysis of h12 triangular lattice, y= 1.4189643903365978
 ----------------------------------------------------------------------
 Symbolic Z-matrix:
 Charge =  0 Multiplicity = 1

                         Standard orientation:
 ---------------------------------------------------------------------
 Center     Atomic      Atomic             Coordinates (Angstroms)
 Number     Number       Type             X           Y           Z
 ---------------------------------------------------------------------
      1          1           0        0.782239    3.466066   -0.000000
      2          1           0        0.000000    2.214222   -0.000000
      3          1           0        0.782239    1.989918   -0.000000
      4          1           0        0.000000    0.738074   -0.000000
      5          1           0       -0.782239    0.962377   -0.000000
      6          1           0       -0.782239   -0.513770    0.000000
      7          1           0       -0.782239   -1.989918   -0.000000
      8          1           0       -0.000000   -0.738074   -0.000000
      9          1           0        0.782239    0.513770   -0.000000
     10          1           0        0.782239   -0.962377   -0.000000
     11          1           0       -0.000000   -2.214222   -0.000000
     12          1           0       -0.782239   -3.466066   -0.000000
 ---------------------------------------------------------------------

 SCF Done:  E(RHF) =  -5.37988742712     A.U. after   17 cycles
 E2 =    -0.8659214551D+00 EUMP2 =    -0.62458088821688D+01

 The electronic state is 1-AG.
 Alpha  occ. eigenvalues --   -0.91186  -0.78168  -0.60560  -0.52108  -0.26980
 Alpha  occ. eigenvalues --   -0.12058
 Alpha virt. eigenvalues --   -0.21048  -0.01983   0.38846   0.43933   0.54967
 Alpha virt. eigenvalues --    0.75652

 Mulliken charges:
               1
     1  H   -0.131936
     2  H    0.071608
     3  H   -0.061628
     4  H   -0.187287
     5  H   -0.003612
     6  H    0.312855
     7  H   -0.061628
     8  H   -0.187287
     9  H    0.312855
    10  H   -0.003612
    11  H    0.071608
    12  H   -0.131936
 Sum of Mulliken charges =  -0.00000

 Dipole moment (field-independent basis, Debye):
    X=              0.0000    Y=             -0.0000    Z=              0.0000  Tot=              0.0000
 Quadrupole moment (field-independent basis, Debye-Ang):
   XX=            -14.5743   YY=            -36.5567   ZZ=            -14.8124
   XY=             -4.1877   XZ=              0.0000   YZ=              0.0000

 Normal termination of Gaussian 09 at Fri Feb 17 15:08:13 2017.
