 Gaussian 09, Revision E.01,
 Gaussian 09:  ES64L-G09RevE.01 30-Nov-2015

 ----------------------------------------------------------------------
 #rhf/gen scf(symm,tight,novaracc,noincfock,fulldiag) stable(crhf) gues
 s=read geom=nocrowd test
 ----------------------------------------------------------------------

 hf stability analysis of h12 triangular lattice, y= 0.7800001708434697
 3
 ----------------------------------------------------------------------
 Symbolic Z-matrix:
 Charge =  0 Multiplicity = 1

                         Standard orientation:
 ---------------------------------------------------------------------
 Center     Atomic      Atomic             Coordinates (Angstroms)
 Number     Number       Type             X           Y           Z
 ---------------------------------------------------------------------
      1          1           0        1.073833    1.669238   -0.000000
      2          1           0        0.000000    1.612961   -0.000000
      3          1           0        1.073833    0.593931    0.000000
      4          1           0        0.000000    0.537654   -0.000000
      5          1           0       -1.073833    1.556683   -0.000000
      6          1           0       -1.073833    0.481376   -0.000000
      7          1           0       -1.073833   -0.593931    0.000000
      8          1           0       -0.000000   -0.537654   -0.000000
      9          1           0        1.073833   -0.481376   -0.000000
     10          1           0        1.073833   -1.556683   -0.000000
     11          1           0       -0.000000   -1.612961   -0.000000
     12          1           0       -1.073833   -1.669238    0.000000
 ---------------------------------------------------------------------

 SCF Done:  E(RHF) =  -5.85558679804     A.U. after    8 cycles
 E2 =    -0.1379763136D+00 EUMP2 =    -0.59935631116438D+01

 The electronic state is 1-AG.
 Alpha  occ. eigenvalues --   -0.93745  -0.75477  -0.66430  -0.46742  -0.44383
 Alpha  occ. eigenvalues --   -0.26971
 Alpha virt. eigenvalues --    0.05928   0.18487   0.19057   0.51690   0.57568
 Alpha virt. eigenvalues --    1.00288

 Mulliken charges:
               1
     1  H    0.088426
     2  H   -0.057667
     3  H   -0.014225
     4  H   -0.052922
     5  H    0.045905
     6  H   -0.009516
     7  H   -0.014225
     8  H   -0.052922
     9  H   -0.009516
    10  H    0.045905
    11  H   -0.057667
    12  H    0.088426
 Sum of Mulliken charges =  -0.00000

 Dipole moment (field-independent basis, Debye):
    X=              0.0000    Y=              0.0000    Z=             -0.0000  Tot=              0.0000
 Quadrupole moment (field-independent basis, Debye-Ang):
   XX=            -19.3553   YY=            -14.9996   ZZ=            -15.1970
   XY=              0.9060   XZ=              0.0000   YZ=             -0.0000

 Normal termination of Gaussian 09 at Fri Feb 17 15:02:29 2017.
