 Gaussian 09, Revision E.01,
 Gaussian 09:  ES64L-G09RevE.01 30-Nov-2015

 ----------------------------------------------------------------------
 #rhf/gen scf(symm,tight,novaracc,noincfock,fulldiag) stable(crhf) gues
 s=read geom=nocrowd test
 ----------------------------------------------------------------------

 ----------------------------------------------------------------------
 hf stability analysis of h12 triangular lattice, y= 1.4808545702551064
 ----------------------------------------------------------------------
 Symbolic Z-matrix:
 Charge =  0 Multiplicity = 1

                         Standard orientation:
 ---------------------------------------------------------------------
 Center     Atomic      Atomic             Coordinates (Angstroms)
 Number     Number       Type             X           Y           Z
 ---------------------------------------------------------------------
      1          1           0        0.754057    3.629768    0.000000
      2          1           0        0.000000    2.296977    0.000000
      3          1           0        0.754057    2.098450    0.000000
      4          1           0        0.000000    0.765659    0.000000
      5          1           0       -0.754057    0.964185   -0.000000
      6          1           0       -0.754057   -0.567132   -0.000000
      7          1           0       -0.754057   -2.098450    0.000000
      8          1           0       -0.000000   -0.765659    0.000000
      9          1           0        0.754057    0.567132   -0.000000
     10          1           0        0.754057   -0.964185    0.000000
     11          1           0       -0.000000   -2.296977    0.000000
     12          1           0       -0.754057   -3.629768    0.000000
 ---------------------------------------------------------------------

 SCF Done:  E(RHF) =  -5.40234206723     A.U. after   15 cycles
 E2 =    -0.6158832624D+00 EUMP2 =    -0.60182253295855D+01

 The electronic state is 1-AG.
 Alpha  occ. eigenvalues --   -0.89739  -0.78094  -0.61395  -0.54359  -0.25355
 Alpha  occ. eigenvalues --   -0.13388
 Alpha virt. eigenvalues --   -0.18431  -0.04583   0.41360   0.45646   0.61463
 Alpha virt. eigenvalues --    0.81999

 Mulliken charges:
               1
     1  H   -0.103482
     2  H    0.036851
     3  H   -0.041524
     4  H   -0.203523
     5  H    0.051399
     6  H    0.260279
     7  H   -0.041524
     8  H   -0.203523
     9  H    0.260279
    10  H    0.051399
    11  H    0.036851
    12  H   -0.103482
 Sum of Mulliken charges =   0.00000

 Dipole moment (field-independent basis, Debye):
    X=              0.0000    Y=             -0.0000    Z=             -0.0000  Tot=              0.0000
 Quadrupole moment (field-independent basis, Debye-Ang):
   XX=            -14.1956   YY=            -35.0767   ZZ=            -14.8153
   XY=             -3.5440   XZ=              0.0000   YZ=             -0.0000

 Normal termination of Gaussian 09 at Fri Feb 17 15:08:27 2017.
