 Gaussian 09, Revision E.01,
 Gaussian 09:  ES64L-G09RevE.01 30-Nov-2015

 ----------------------------------------------------------------------
 #rhf/gen scf(symm,tight,novaracc,noincfock,fulldiag) stable(crhf) gues
 s=read geom=nocrowd test
 ----------------------------------------------------------------------

 hf stability analysis of h12 triangular lattice, y= 0.2803104089832951
 2
 ----------------------------------------------------------------------
 Symbolic Z-matrix:
 Charge =  0 Multiplicity = 1

                         Standard orientation:
 ---------------------------------------------------------------------
 Center     Atomic      Atomic             Coordinates (Angstroms)
 Number     Number       Type             X           Y           Z
 ---------------------------------------------------------------------
      1          1           0        0.555500    1.114935    0.000000
      2          1           0        0.000000    3.118003    0.000000
      3          1           0        0.555500   -0.963734    0.000000
      4          1           0        0.000000    1.039334    0.000000
      5          1           0       -0.555500    5.121071    0.000000
      6          1           0       -0.555500    3.042403    0.000000
      7          1           0       -0.555500    0.963734    0.000000
      8          1           0       -0.000000   -1.039334    0.000000
      9          1           0        0.555500   -3.042403   -0.000000
     10          1           0        0.555500   -5.121071   -0.000000
     11          1           0       -0.000000   -3.118003    0.000000
     12          1           0       -0.555500   -1.114935    0.000000
 ---------------------------------------------------------------------

 SCF Done:  E(RHF) =  -4.96334762231     A.U. after   10 cycles
 E2 =    -0.9530824547D+00 EUMP2 =    -0.59164300770308D+01

 The electronic state is 1-AG.
 Alpha  occ. eigenvalues --   -0.88327  -0.85587  -0.68814  -0.68573  -0.19959
 Alpha  occ. eigenvalues --   -0.16531
 Alpha virt. eigenvalues --   -0.14794  -0.03498   0.56505   0.56881   1.19067
 Alpha virt. eigenvalues --    1.32278

 Mulliken charges:
               1
     1  H    0.211881
     2  H   -0.003196
     3  H    0.224724
     4  H   -0.423035
     5  H   -0.001786
     6  H   -0.008588
     7  H    0.224724
     8  H   -0.423035
     9  H   -0.008588
    10  H   -0.001786
    11  H   -0.003196
    12  H    0.211881
 Sum of Mulliken charges =  -0.00000

 Dipole moment (field-independent basis, Debye):
    X=             -0.0000    Y=              0.0000    Z=              0.0000  Tot=              0.0000
 Quadrupole moment (field-independent basis, Debye-Ang):
   XX=            -15.3345   YY=            -20.7446   ZZ=            -15.1438
   XY=              0.2186   XZ=              0.0000   YZ=             -0.0000

 Normal termination of Gaussian 09 at Fri Feb 17 14:54:24 2017.
