 Gaussian 09, Revision E.01,
 Gaussian 09:  ES64L-G09RevE.01 30-Nov-2015

 ----------------------------------------------------------------------
 #rhf/gen scf(symm,tight,novaracc,noincfock,fulldiag) stable(crhf) gues
 s=read geom=nocrowd test
 ----------------------------------------------------------------------

 hf stability analysis of h12 triangular lattice, y= 0.3614429856522110
 0
 ----------------------------------------------------------------------
 Symbolic Z-matrix:
 Charge =  0 Multiplicity = 1

                         Standard orientation:
 ---------------------------------------------------------------------
 Center     Atomic      Atomic             Coordinates (Angstroms)
 Number     Number       Type             X           Y           Z
 ---------------------------------------------------------------------
      1          1           0        0.705061    0.978404   -0.000000
      2          1           0        0.000000    2.456596   -0.000000
      3          1           0        0.705061   -0.659326   -0.000000
      4          1           0        0.000000    0.818865   -0.000000
      5          1           0       -0.705061    3.934788    0.000000
      6          1           0       -0.705061    2.297057    0.000000
      7          1           0       -0.705061    0.659326   -0.000000
      8          1           0       -0.000000   -0.818865   -0.000000
      9          1           0        0.705061   -2.297057    0.000000
     10          1           0        0.705061   -3.934788    0.000000
     11          1           0       -0.000000   -2.456596   -0.000000
     12          1           0       -0.705061   -0.978404   -0.000000
 ---------------------------------------------------------------------

 SCF Done:  E(RHF) =  -5.40471928801     A.U. after   13 cycles
 E2 =    -0.6750484640D+00 EUMP2 =    -0.60797677519759D+01

 The electronic state is 1-AG.
 Alpha  occ. eigenvalues --   -0.87916  -0.78372  -0.62952  -0.58512  -0.22671
 Alpha  occ. eigenvalues --   -0.15836
 Alpha virt. eigenvalues --   -0.14071  -0.08466   0.45132   0.47945   0.74009
 Alpha virt. eigenvalues --    0.93516

 Mulliken charges:
               1
     1  H    0.093987
     2  H    0.011649
     3  H    0.209300
     4  H   -0.231226
     5  H   -0.057004
     6  H   -0.026706
     7  H    0.209300
     8  H   -0.231226
     9  H   -0.026706
    10  H   -0.057004
    11  H    0.011649
    12  H    0.093987
 Sum of Mulliken charges =   0.00000

 Dipole moment (field-independent basis, Debye):
    X=             -0.0000    Y=              0.0000    Z=             -0.0000  Tot=              0.0000
 Quadrupole moment (field-independent basis, Debye-Ang):
   XX=            -14.2578   YY=            -30.6775   ZZ=            -14.8786
   XY=              2.2075   XZ=              0.0000   YZ=             -0.0000

 Normal termination of Gaussian 09 at Fri Feb 17 14:55:26 2017.
