 Gaussian 09, Revision E.01,
 Gaussian 09:  ES64L-G09RevE.01 30-Nov-2015

 ----------------------------------------------------------------------
 #rhf/gen scf(symm,tight,novaracc,noincfock,fulldiag) stable(crhf) gues
 s=read geom=nocrowd test
 ----------------------------------------------------------------------

 ----------------------------------------------------------------------
 hf stability analysis of h12 triangular lattice, y= 1.8095073443210954
 ----------------------------------------------------------------------
 Symbolic Z-matrix:
 Charge =  0 Multiplicity = 1

                         Standard orientation:
 ---------------------------------------------------------------------
 Center     Atomic      Atomic             Coordinates (Angstroms)
 Number     Number       Type             X           Y           Z
 ---------------------------------------------------------------------
      1          1           0        0.628435    4.482745   -0.000000
      2          1           0       -0.000000    2.756133   -0.000000
      3          1           0        0.628435    2.645323   -0.000000
      4          1           0       -0.000000    0.918711   -0.000000
      5          1           0       -0.628435    1.029521   -0.000000
      6          1           0       -0.628435   -0.807901   -0.000000
      7          1           0       -0.628435   -2.645323    0.000000
      8          1           0       -0.000000   -0.918711   -0.000000
      9          1           0        0.628435    0.807901   -0.000000
     10          1           0        0.628435   -1.029521   -0.000000
     11          1           0       -0.000000   -2.756133   -0.000000
     12          1           0       -0.628435   -4.482745    0.000000
 ---------------------------------------------------------------------

 SCF Done:  E(RHF) =  -5.27780077505     A.U. after   11 cycles
 E2 =    -0.8166410806D+00 EUMP2 =    -0.60944418556558D+01

 The electronic state is 1-AG.
 Alpha  occ. eigenvalues --   -0.87002  -0.80799  -0.65821  -0.64386  -0.19333
 Alpha  occ. eigenvalues --   -0.18558
 Alpha virt. eigenvalues --   -0.12589  -0.08179   0.50778   0.51931   0.95533
 Alpha virt. eigenvalues --    1.12229

 Mulliken charges:
               1
     1  H   -0.015896
     2  H   -0.001307
     3  H   -0.015646
     4  H   -0.302948
     5  H    0.145470
     6  H    0.190326
     7  H   -0.015646
     8  H   -0.302948
     9  H    0.190326
    10  H    0.145470
    11  H   -0.001307
    12  H   -0.015896
 Sum of Mulliken charges =  -0.00000

 Dipole moment (field-independent basis, Debye):
    X=              0.0000    Y=             -0.0000    Z=             -0.0000  Tot=              0.0000
 Quadrupole moment (field-independent basis, Debye-Ang):
   XX=            -14.7493   YY=            -24.6724   ZZ=            -15.0121
   XY=             -0.8367   XZ=              0.0000   YZ=              0.0000

 Normal termination of Gaussian 09 at Fri Feb 17 15:09:20 2017.
