 Gaussian 09, Revision E.01,
 Gaussian 09:  ES64L-G09RevE.01 30-Nov-2015

 ----------------------------------------------------------------------
 #rhf/gen scf(symm,tight,novaracc,noincfock,fulldiag) stable(crhf) gues
 s=read geom=nocrowd test
 ----------------------------------------------------------------------

 hf stability analysis of h12 triangular lattice, y= 0.5889881594497650
 1
 ----------------------------------------------------------------------
 Symbolic Z-matrix:
 Charge =  0 Multiplicity = 1

                         Standard orientation:
 ---------------------------------------------------------------------
 Center     Atomic      Atomic             Coordinates (Angstroms)
 Number     Number       Type             X           Y           Z
 ---------------------------------------------------------------------
      1          1           0        1.009723    1.178494   -0.000000
      2          1           0        0.000000    1.715373   -0.000000
      3          1           0        1.009723    0.034912   -0.000000
      4          1           0        0.000000    0.571791   -0.000000
      5          1           0       -1.009723    2.252252   -0.000000
      6          1           0       -1.009723    1.108670   -0.000000
      7          1           0       -1.009723   -0.034912    0.000000
      8          1           0       -0.000000   -0.571791   -0.000000
      9          1           0        1.009723   -1.108670   -0.000000
     10          1           0        1.009723   -2.252252   -0.000000
     11          1           0       -0.000000   -1.715373   -0.000000
     12          1           0       -1.009723   -1.178494   -0.000000
 ---------------------------------------------------------------------

 SCF Done:  E(RHF) =  -5.61141200964     A.U. after   11 cycles
 E2 =    -0.1523947386D+00 EUMP2 =    -0.57638067482012D+01

 The electronic state is 1-AG.
 Alpha  occ. eigenvalues --   -0.90155  -0.75451  -0.58600  -0.53595  -0.33849
 Alpha  occ. eigenvalues --   -0.14708
 Alpha virt. eigenvalues --   -0.07463   0.21504   0.25238   0.40402   0.63766
 Alpha virt. eigenvalues --    0.64506

 Mulliken charges:
               1
     1  H   -0.144662
     2  H   -0.062034
     3  H    0.003714
     4  H   -0.033511
     5  H    0.255699
     6  H   -0.019205
     7  H    0.003714
     8  H   -0.033511
     9  H   -0.019205
    10  H    0.255699
    11  H   -0.062034
    12  H   -0.144662
 Sum of Mulliken charges =  -0.00000

 Dipole moment (field-independent basis, Debye):
    X=              0.0000    Y=              0.0000    Z=             -0.0000  Tot=              0.0000
 Quadrupole moment (field-independent basis, Debye-Ang):
   XX=            -20.2837   YY=             -7.2970   ZZ=            -15.1843
   XY=             -8.3852   XZ=             -0.0000   YZ=              0.0000

 Normal termination of Gaussian 09 at Fri Feb 17 14:59:09 2017.
