 Gaussian 09, Revision E.01,
 Gaussian 09:  ES64L-G09RevE.01 30-Nov-2015

 ----------------------------------------------------------------------
 #rhf/gen scf(symm,tight,novaracc,noincfock,fulldiag) stable(crhf) gues
 s=read geom=nocrowd test
 ----------------------------------------------------------------------

 ----------------------------------------------------------------------
 hf stability analysis of h12 triangular lattice, y= 1.5077541156608558
 ----------------------------------------------------------------------
 Symbolic Z-matrix:
 Charge =  0 Multiplicity = 1

                         Standard orientation:
 ---------------------------------------------------------------------
 Center     Atomic      Atomic             Coordinates (Angstroms)
 Number     Number       Type             X           Y           Z
 ---------------------------------------------------------------------
      1          1           0        0.742277    3.700533   -0.000000
      2          1           0        0.000000    2.333429   -0.000000
      3          1           0        0.742277    2.144914    0.000000
      4          1           0        0.000000    0.777810   -0.000000
      5          1           0       -0.742277    0.966324   -0.000000
      6          1           0       -0.742277   -0.589295   -0.000000
      7          1           0       -0.742277   -2.144914    0.000000
      8          1           0       -0.000000   -0.777810   -0.000000
      9          1           0        0.742277    0.589295   -0.000000
     10          1           0        0.742277   -0.966324   -0.000000
     11          1           0       -0.000000   -2.333429   -0.000000
     12          1           0       -0.742277   -3.700533    0.000000
 ---------------------------------------------------------------------

 SCF Done:  E(RHF) =  -5.40781748455     A.U. after   15 cycles
 E2 =    -0.6182334336D+00 EUMP2 =    -0.60260509181913D+01

 The electronic state is 1-AG.
 Alpha  occ. eigenvalues --   -0.89214  -0.78092  -0.61750  -0.55355  -0.24673
 Alpha  occ. eigenvalues --   -0.14006
 Alpha virt. eigenvalues --   -0.17343  -0.05613   0.42302   0.46224   0.64379
 Alpha virt. eigenvalues --    0.84743

 Mulliken charges:
               1
     1  H   -0.091033
     2  H    0.028376
     3  H   -0.036585
     4  H   -0.209423
     5  H    0.064559
     6  H    0.244106
     7  H   -0.036585
     8  H   -0.209423
     9  H    0.244106
    10  H    0.064559
    11  H    0.028376
    12  H   -0.091033
 Sum of Mulliken charges =   0.00000

 Dipole moment (field-independent basis, Debye):
    X=             -0.0000    Y=             -0.0000    Z=             -0.0000  Tot=              0.0000
 Quadrupole moment (field-independent basis, Debye-Ang):
   XX=            -14.1694   YY=            -34.0677   ZZ=            -14.8272
   XY=             -3.2043   XZ=              0.0000   YZ=              0.0000

 Normal termination of Gaussian 09 at Fri Feb 17 15:08:33 2017.
