 Gaussian 09, Revision E.01,
 Gaussian 09:  ES64L-G09RevE.01 30-Nov-2015

 ----------------------------------------------------------------------
 #rhf/gen scf(symm,tight,novaracc,noincfock,fulldiag) stable(crhf) gues
 s=read geom=nocrowd test
 ----------------------------------------------------------------------

 hf stability analysis of h12 triangular lattice, y= 0.7732164846609803
 6
 ----------------------------------------------------------------------
 Symbolic Z-matrix:
 Charge =  0 Multiplicity = 1

                         Standard orientation:
 ---------------------------------------------------------------------
 Center     Atomic      Atomic             Coordinates (Angstroms)
 Number     Number       Type             X           Y           Z
 ---------------------------------------------------------------------
      1          1           0        1.074243    1.649859   -0.000000
      2          1           0        0.000000    1.612346   -0.000000
      3          1           0        1.074243    0.574962   -0.000000
      4          1           0        0.000000    0.537449   -0.000000
      5          1           0       -1.074243    1.574833   -0.000000
      6          1           0       -1.074243    0.499935   -0.000000
      7          1           0       -1.074243   -0.574962   -0.000000
      8          1           0       -0.000000   -0.537449   -0.000000
      9          1           0        1.074243   -0.499935    0.000000
     10          1           0        1.074243   -1.574833    0.000000
     11          1           0       -0.000000   -1.612346   -0.000000
     12          1           0       -1.074243   -1.649859   -0.000000
 ---------------------------------------------------------------------

 SCF Done:  E(RHF) =  -5.85694841695     A.U. after    8 cycles
 E2 =    -0.1379126989D+00 EUMP2 =    -0.59948611158632D+01

 The electronic state is 1-AG.
 Alpha  occ. eigenvalues --   -0.93768  -0.75469  -0.66488  -0.46426  -0.44720
 Alpha  occ. eigenvalues --   -0.27048
 Alpha virt. eigenvalues --    0.06164   0.18382   0.18854   0.52455   0.56939
 Alpha virt. eigenvalues --    1.00609

 Mulliken charges:
               1
     1  H    0.081400
     2  H   -0.057659
     3  H   -0.013457
     4  H   -0.053025
     5  H    0.053052
     6  H   -0.010311
     7  H   -0.013457
     8  H   -0.053025
     9  H   -0.010311
    10  H    0.053052
    11  H   -0.057659
    12  H    0.081400
 Sum of Mulliken charges =  -0.00000

 Dipole moment (field-independent basis, Debye):
    X=              0.0000    Y=             -0.0000    Z=             -0.0000  Tot=              0.0000
 Quadrupole moment (field-independent basis, Debye-Ang):
   XX=            -19.3490   YY=            -15.0464   ZZ=            -15.1971
   XY=              0.6040   XZ=             -0.0000   YZ=              0.0000

 Normal termination of Gaussian 09 at Fri Feb 17 15:02:23 2017.
