 Gaussian 09, Revision E.01,
 Gaussian 09:  ES64L-G09RevE.01 30-Nov-2015

 ----------------------------------------------------------------------
 #rhf/gen scf(symm,tight,novaracc,noincfock,fulldiag) stable(crhf) gues
 s=read geom=nocrowd test
 ----------------------------------------------------------------------

 hf stability analysis of h12 triangular lattice, y= 0.6299221068523126
 5
 ----------------------------------------------------------------------
 Symbolic Z-matrix:
 Charge =  0 Multiplicity = 1

                         Standard orientation:
 ---------------------------------------------------------------------
 Center     Atomic      Atomic             Coordinates (Angstroms)
 Number     Number       Type             X           Y           Z
 ---------------------------------------------------------------------
      1          1           0        1.038271    1.269653   -0.000000
      2          1           0       -0.000000    1.668208    0.000000
      3          1           0        1.038271    0.157514   -0.000000
      4          1           0       -0.000000    0.556069    0.000000
      5          1           0       -1.038271    2.066762    0.000000
      6          1           0       -1.038271    0.954624    0.000000
      7          1           0       -1.038271   -0.157514   -0.000000
      8          1           0        0.000000   -0.556069    0.000000
      9          1           0        1.038271   -0.954624    0.000000
     10          1           0        1.038271   -2.066762    0.000000
     11          1           0        0.000000   -1.668208    0.000000
     12          1           0       -1.038271   -1.269653   -0.000000
 ---------------------------------------------------------------------

 SCF Done:  E(RHF) =  -5.72775837433     A.U. after   10 cycles
 E2 =    -0.1443798997D+00 EUMP2 =    -0.58721382740484D+01

 The electronic state is 1-AG.
 Alpha  occ. eigenvalues --   -0.91727  -0.75667  -0.61882  -0.52067  -0.37137
 Alpha  occ. eigenvalues --   -0.20186
 Alpha virt. eigenvalues --   -0.03588   0.20224   0.33010   0.33050   0.64956
 Alpha virt. eigenvalues --    0.77287

 Mulliken charges:
               1
     1  H   -0.087979
     2  H   -0.058945
     3  H    0.002750
     4  H   -0.043583
     5  H    0.210796
     6  H   -0.023039
     7  H    0.002750
     8  H   -0.043583
     9  H   -0.023039
    10  H    0.210796
    11  H   -0.058945
    12  H   -0.087979
 Sum of Mulliken charges =  -0.00000

 Dipole moment (field-independent basis, Debye):
    X=             -0.0000    Y=             -0.0000    Z=              0.0000  Tot=              0.0000
 Quadrupole moment (field-independent basis, Debye-Ang):
   XX=            -19.8864   YY=            -10.8104   ZZ=            -15.1916
   XY=             -6.3043   XZ=             -0.0000   YZ=              0.0000

 Normal termination of Gaussian 09 at Fri Feb 17 14:59:52 2017.
