 Gaussian 09, Revision E.01,
 Gaussian 09:  ES64L-G09RevE.01 30-Nov-2015

 ----------------------------------------------------------------------
 #rhf/gen scf(symm,tight,novaracc,noincfock,fulldiag) stable(crhf) gues
 s=read geom=nocrowd test
 ----------------------------------------------------------------------

 ----------------------------------------------------------------------
 hf stability analysis of h12 triangular lattice, y= 1.0702532558662603
 ----------------------------------------------------------------------
 Symbolic Z-matrix:
 Charge =  0 Multiplicity = 1

                         Standard orientation:
 ---------------------------------------------------------------------
 Center     Atomic      Atomic             Coordinates (Angstroms)
 Number     Number       Type             X           Y           Z
 ---------------------------------------------------------------------
      1          1           0        0.963439    2.510687    0.000000
      2          1           0        0.000000    1.797780    0.000000
      3          1           0        0.963439    1.312167    0.000000
      4          1           0        0.000000    0.599260    0.000000
      5          1           0       -0.963439    1.084873   -0.000000
      6          1           0       -0.963439   -0.113647   -0.000000
      7          1           0       -0.963439   -1.312167    0.000000
      8          1           0       -0.000000   -0.599260    0.000000
      9          1           0        0.963439    0.113647   -0.000000
     10          1           0        0.963439   -1.084873   -0.000000
     11          1           0       -0.000000   -1.797780    0.000000
     12          1           0       -0.963439   -2.510687    0.000000
 ---------------------------------------------------------------------

 SCF Done:  E(RHF) =  -5.41743865687     A.U. after   18 cycles
 E2 =    -0.1836525425D+00 EUMP2 =    -0.56010911993749D+01

 The electronic state is 1-AG.
 Alpha  occ. eigenvalues --   -0.91297  -0.75400  -0.56045  -0.54369  -0.30203
 Alpha  occ. eigenvalues --   -0.07027
 Alpha virt. eigenvalues --   -0.13075   0.17907   0.23294   0.39424   0.50479
 Alpha virt. eigenvalues --    0.59649

 Mulliken charges:
               1
     1  H    0.195057
     2  H   -0.084514
     3  H    0.003283
     4  H    0.076375
     5  H   -0.163351
     6  H   -0.026850
     7  H    0.003283
     8  H    0.076375
     9  H   -0.026850
    10  H   -0.163351
    11  H   -0.084514
    12  H    0.195057
 Sum of Mulliken charges =   0.00000

 Dipole moment (field-independent basis, Debye):
    X=              0.0000    Y=              0.0000    Z=              0.0000  Tot=              0.0000
 Quadrupole moment (field-independent basis, Debye-Ang):
   XX=            -20.0994   YY=             -9.1889   ZZ=            -15.1037
   XY=              6.8795   XZ=              0.0000   YZ=              0.0000

 Normal termination of Gaussian 09 at Fri Feb 17 15:06:00 2017.
