 Gaussian 09, Revision E.01,
 Gaussian 09:  ES64L-G09RevE.01 30-Nov-2015

 ----------------------------------------------------------------------
 #rhf/gen scf(symm,tight,novaracc,noincfock,fulldiag) stable(crhf) gues
 s=read geom=nocrowd test
 ----------------------------------------------------------------------

 hf stability analysis of h12 triangular lattice, y= 0.9295513923648614
 0
 ----------------------------------------------------------------------
 Symbolic Z-matrix:
 Charge =  0 Multiplicity = 1

                         Standard orientation:
 ---------------------------------------------------------------------
 Center     Atomic      Atomic             Coordinates (Angstroms)
 Number     Number       Type             X           Y           Z
 ---------------------------------------------------------------------
      1          1           0        1.032862    2.104768    0.000000
      2          1           0        0.000000    1.676943    0.000000
      3          1           0        1.032862    0.986806    0.000000
      4          1           0        0.000000    0.558981    0.000000
      5          1           0       -1.032862    1.249117    0.000000
      6          1           0       -1.032862    0.131155   -0.000000
      7          1           0       -1.032862   -0.986806    0.000000
      8          1           0       -0.000000   -0.558981   -0.000000
      9          1           0        1.032862   -0.131155   -0.000000
     10          1           0        1.032862   -1.249117   -0.000000
     11          1           0       -0.000000   -1.676943   -0.000000
     12          1           0       -1.032862   -2.104768   -0.000000
 ---------------------------------------------------------------------

 SCF Done:  E(RHF) =  -5.70665362838     A.U. after   11 cycles
 E2 =    -0.1455779940D+00 EUMP2 =    -0.58522316223713D+01

 The electronic state is 1-AG.
 Alpha  occ. eigenvalues --   -0.91423  -0.75641  -0.61243  -0.52423  -0.36465
 Alpha  occ. eigenvalues --   -0.19148
 Alpha virt. eigenvalues --   -0.04436   0.20469   0.31340   0.34583   0.65012
 Alpha virt. eigenvalues --    0.74455

 Mulliken charges:
               1
     1  H    0.220621
     2  H   -0.059309
     3  H   -0.022897
     4  H   -0.041986
     5  H   -0.099791
     6  H    0.003361
     7  H   -0.022897
     8  H   -0.041986
     9  H    0.003361
    10  H   -0.099791
    11  H   -0.059309
    12  H    0.220621
 Sum of Mulliken charges =  -0.00000

 Dipole moment (field-independent basis, Debye):
    X=             -0.0000    Y=              0.0000    Z=              0.0000  Tot=              0.0000
 Quadrupole moment (field-independent basis, Debye-Ang):
   XX=            -19.9638   YY=            -10.1525   ZZ=            -15.1904
   XY=              6.7507   XZ=              0.0000   YZ=              0.0000

 Normal termination of Gaussian 09 at Fri Feb 17 15:04:32 2017.
