 Gaussian 09, Revision E.01,
 Gaussian 09:  ES64L-G09RevE.01 30-Nov-2015

 ----------------------------------------------------------------------
 #rhf/gen scf(symm,tight,novaracc,noincfock,fulldiag) stable(crhf) gues
 s=read geom=nocrowd test
 ----------------------------------------------------------------------

 hf stability analysis of h12 triangular lattice, y= 0.6446958471815459
 3
 ----------------------------------------------------------------------
 Symbolic Z-matrix:
 Charge =  0 Multiplicity = 1

                         Standard orientation:
 ---------------------------------------------------------------------
 Center     Atomic      Atomic             Coordinates (Angstroms)
 Number     Number       Type             X           Y           Z
 ---------------------------------------------------------------------
      1          1           0        1.046437    1.305056    0.000000
      2          1           0        0.000000    1.655189    0.000000
      3          1           0        1.046437    0.201597    0.000000
      4          1           0        0.000000    0.551730    0.000000
      5          1           0       -1.046437    2.005322   -0.000000
      6          1           0       -1.046437    0.901863   -0.000000
      7          1           0       -1.046437   -0.201597   -0.000000
      8          1           0       -0.000000   -0.551730    0.000000
      9          1           0        1.046437   -0.901863    0.000000
     10          1           0        1.046437   -2.005322    0.000000
     11          1           0       -0.000000   -1.655189    0.000000
     12          1           0       -1.046437   -1.305056   -0.000000
 ---------------------------------------------------------------------

 SCF Done:  E(RHF) =  -5.75878716202     A.U. after    9 cycles
 E2 =    -0.1427161807D+00 EUMP2 =    -0.59015033427470D+01

 The electronic state is 1-AG.
 Alpha  occ. eigenvalues --   -0.92189  -0.75686  -0.62866  -0.51442  -0.38226
 Alpha  occ. eigenvalues --   -0.21751
 Alpha virt. eigenvalues --   -0.02155   0.19852   0.30572   0.35789   0.64669
 Alpha virt. eigenvalues --    0.81845

 Mulliken charges:
               1
     1  H   -0.068604
     2  H   -0.058509
     3  H    0.001496
     4  H   -0.045861
     5  H    0.194276
     6  H   -0.022799
     7  H    0.001496
     8  H   -0.045861
     9  H   -0.022799
    10  H    0.194276
    11  H   -0.058509
    12  H   -0.068604
 Sum of Mulliken charges =   0.00000

 Dipole moment (field-independent basis, Debye):
    X=             -0.0000    Y=             -0.0000    Z=              0.0000  Tot=              0.0000
 Quadrupole moment (field-independent basis, Debye-Ang):
   XX=            -19.7678   YY=            -11.7938   ZZ=            -15.1931
   XY=             -5.5595   XZ=             -0.0000   YZ=             -0.0000

 Normal termination of Gaussian 09 at Fri Feb 17 15:00:12 2017.
