 Gaussian 09, Revision E.01,
 Gaussian 09:  ES64L-G09RevE.01 30-Nov-2015

 ----------------------------------------------------------------------
 #rhf/gen scf(symm,tight,novaracc,noincfock,fulldiag) stable(crhf) gues
 s=read geom=nocrowd test
 ----------------------------------------------------------------------

 hf stability analysis of h12 triangular lattice, y= 0.5918992783615676
 4
 ----------------------------------------------------------------------
 Symbolic Z-matrix:
 Charge =  0 Multiplicity = 1

                         Standard orientation:
 ---------------------------------------------------------------------
 Center     Atomic      Atomic             Coordinates (Angstroms)
 Number     Number       Type             X           Y           Z
 ---------------------------------------------------------------------
      1          1           0        1.012043    1.184603    0.000000
      2          1           0        0.000000    1.711439   -0.000000
      3          1           0        1.012043    0.043643    0.000000
      4          1           0        0.000000    0.570480   -0.000000
      5          1           0       -1.012043    2.238276   -0.000000
      6          1           0       -1.012043    1.097316   -0.000000
      7          1           0       -1.012043   -0.043643    0.000000
      8          1           0       -0.000000   -0.570480   -0.000000
      9          1           0        1.012043   -1.097316   -0.000000
     10          1           0        1.012043   -2.238276   -0.000000
     11          1           0       -0.000000   -1.711439   -0.000000
     12          1           0       -1.012043   -1.184603   -0.000000
 ---------------------------------------------------------------------

 SCF Done:  E(RHF) =  -5.62131883203     A.U. after   11 cycles
 E2 =    -0.1514948313D+00 EUMP2 =    -0.57728136633645D+01

 The electronic state is 1-AG.
 Alpha  occ. eigenvalues --   -0.90278  -0.75474  -0.58859  -0.53497  -0.34099
 Alpha  occ. eigenvalues --   -0.15153
 Alpha virt. eigenvalues --   -0.07192   0.21402   0.25789   0.39870   0.64596
 Alpha virt. eigenvalues --    0.64742

 Mulliken charges:
               1
     1  H   -0.140464
     2  H   -0.061634
     3  H    0.003899
     4  H   -0.034558
     5  H    0.252615
     6  H   -0.019857
     7  H    0.003899
     8  H   -0.034558
     9  H   -0.019857
    10  H    0.252615
    11  H   -0.061634
    12  H   -0.140464
 Sum of Mulliken charges =   0.00000

 Dipole moment (field-independent basis, Debye):
    X=              0.0000    Y=             -0.0000    Z=             -0.0000  Tot=              0.0000
 Quadrupole moment (field-independent basis, Debye-Ang):
   XX=            -20.2525   YY=             -7.5842   ZZ=            -15.1850
   XY=             -8.2370   XZ=             -0.0000   YZ=              0.0000

 Normal termination of Gaussian 09 at Fri Feb 17 14:59:12 2017.
