 Gaussian 09, Revision E.01,
 Gaussian 09:  ES64L-G09RevE.01 30-Nov-2015

 ----------------------------------------------------------------------
 #rhf/gen scf(symm,tight,novaracc,noincfock,fulldiag) stable(crhf) gues
 s=read geom=nocrowd test
 ----------------------------------------------------------------------

 hf stability analysis of h12 triangular lattice, y= 0.8221863201757335
 6
 ----------------------------------------------------------------------
 Symbolic Z-matrix:
 Charge =  0 Multiplicity = 1

                         Standard orientation:
 ---------------------------------------------------------------------
 Center     Atomic      Atomic             Coordinates (Angstroms)
 Number     Number       Type             X           Y           Z
 ---------------------------------------------------------------------
      1          1           0        1.067935    1.791014   -0.000000
      2          1           0        0.000000    1.621870   -0.000000
      3          1           0        1.067935    0.709767   -0.000000
      4          1           0        0.000000    0.540623   -0.000000
      5          1           0       -1.067935    1.452726   -0.000000
      6          1           0       -1.067935    0.371479   -0.000000
      7          1           0       -1.067935   -0.709767   -0.000000
      8          1           0       -0.000000   -0.540623   -0.000000
      9          1           0        1.067935   -0.371479   -0.000000
     10          1           0        1.067935   -1.452726   -0.000000
     11          1           0       -0.000000   -1.621870   -0.000000
     12          1           0       -1.067935   -1.791014   -0.000000
 ---------------------------------------------------------------------

 SCF Done:  E(RHF) =  -5.83568659484     A.U. after    9 cycles
 E2 =    -0.1389131156D+00 EUMP2 =    -0.59745997104402D+01

 The electronic state is 1-AG.
 Alpha  occ. eigenvalues --   -0.93410  -0.75572  -0.65614  -0.48701  -0.42119
 Alpha  occ. eigenvalues --   -0.25854
 Alpha virt. eigenvalues --    0.03302   0.18862   0.22344   0.46013   0.61294
 Alpha virt. eigenvalues --    0.95826

 Mulliken charges:
               1
     1  H    0.130084
     2  H   -0.057794
     3  H   -0.018488
     4  H   -0.051440
     5  H    0.002479
     6  H   -0.004842
     7  H   -0.018488
     8  H   -0.051440
     9  H   -0.004842
    10  H    0.002479
    11  H   -0.057794
    12  H    0.130084
 Sum of Mulliken charges =   0.00000

 Dipole moment (field-independent basis, Debye):
    X=              0.0000    Y=              0.0000    Z=             -0.0000  Tot=              0.0000
 Quadrupole moment (field-independent basis, Debye-Ang):
   XX=            -19.4460   YY=            -14.3215   ZZ=            -15.1964
   XY=              2.7145   XZ=              0.0000   YZ=              0.0000

 Normal termination of Gaussian 09 at Fri Feb 17 15:03:06 2017.
