 Gaussian 09, Revision E.01,
 Gaussian 09:  ES64L-G09RevE.01 30-Nov-2015

 ----------------------------------------------------------------------
 #rhf/gen scf(symm,tight,novaracc,noincfock,fulldiag) stable(crhf) gues
 s=read geom=nocrowd test
 ----------------------------------------------------------------------

 ----------------------------------------------------------------------
 hf stability analysis of h12 triangular lattice, y= 1.2594669489559134
 ----------------------------------------------------------------------
 Symbolic Z-matrix:
 Charge =  0 Multiplicity = 1

                         Standard orientation:
 ---------------------------------------------------------------------
 Center     Atomic      Atomic             Coordinates (Angstroms)
 Number     Number       Type             X           Y           Z
 ---------------------------------------------------------------------
      1          1           0        0.861526    3.037172    0.000000
      2          1           0       -0.000000    2.010445    0.000000
      3          1           0        0.861526    1.696875   -0.000000
      4          1           0       -0.000000    0.670148    0.000000
      5          1           0       -0.861526    0.983718    0.000000
      6          1           0       -0.861526   -0.356578    0.000000
      7          1           0       -0.861526   -1.696875    0.000000
      8          1           0       -0.000000   -0.670148    0.000000
      9          1           0        0.861526    0.356578   -0.000000
     10          1           0        0.861526   -0.983718    0.000000
     11          1           0       -0.000000   -2.010445    0.000000
     12          1           0       -0.861526   -3.037172    0.000000
 ---------------------------------------------------------------------

 SCF Done:  E(RHF) =  -5.39414883283     A.U. after   13 cycles
 E2 =    -0.4014440838D+00 EUMP2 =    -0.57955929165913D+01

 The electronic state is 1-AG.
 Alpha  occ. eigenvalues --   -0.94480  -0.77305  -0.56569  -0.53663  -0.29972
 Alpha  occ. eigenvalues --   -0.11907
 Alpha virt. eigenvalues --   -0.20994   0.07516   0.30279   0.32501   0.49676
 Alpha virt. eigenvalues --    0.61355

 Mulliken charges:
               1
     1  H   -0.040551
     2  H    0.083551
     3  H   -0.087724
     4  H    0.084843
     5  H   -0.148044
     6  H    0.107925
     7  H   -0.087724
     8  H    0.084843
     9  H    0.107925
    10  H   -0.148044
    11  H    0.083551
    12  H   -0.040551
 Sum of Mulliken charges =   0.00000

 Dipole moment (field-independent basis, Debye):
    X=             -0.0000    Y=              0.0000    Z=             -0.0000  Tot=              0.0000
 Quadrupole moment (field-independent basis, Debye-Ang):
   XX=            -19.2279   YY=            -22.8261   ZZ=            -15.1254
   XY=             -0.8558   XZ=              0.0000   YZ=             -0.0000

 Normal termination of Gaussian 09 at Fri Feb 17 15:07:24 2017.
