 Gaussian 09, Revision E.01,
 Gaussian 09:  ES64L-G09RevE.01 30-Nov-2015

 ----------------------------------------------------------------------
 #rhf/gen scf(symm,tight,novaracc,noincfock,fulldiag) stable(crhf) gues
 s=read geom=nocrowd test
 ----------------------------------------------------------------------

 hf stability analysis of h12 triangular lattice, y= 0.6991159421304509
 2
 ----------------------------------------------------------------------
 Symbolic Z-matrix:
 Charge =  0 Multiplicity = 1

                         Standard orientation:
 ---------------------------------------------------------------------
 Center     Atomic      Atomic             Coordinates (Angstroms)
 Number     Number       Type             X           Y           Z
 ---------------------------------------------------------------------
      1          1           0        1.067176    1.444439    0.000000
      2          1           0        0.000000    1.623023    0.000000
      3          1           0        1.067176    0.362424    0.000000
      4          1           0        0.000000    0.541008    0.000000
      5          1           0       -1.067176    1.801607    0.000000
      6          1           0       -1.067176    0.719592    0.000000
      7          1           0       -1.067176   -0.362424    0.000000
      8          1           0       -0.000000   -0.541008    0.000000
      9          1           0        1.067176   -0.719592    0.000000
     10          1           0        1.067176   -1.801607    0.000000
     11          1           0       -0.000000   -1.623023    0.000000
     12          1           0       -1.067176   -1.444439    0.000000
 ---------------------------------------------------------------------

 SCF Done:  E(RHF) =  -5.83309004922     A.U. after    7 cycles
 E2 =    -0.1390364197D+00 EUMP2 =    -0.59721264689057D+01

 The electronic state is 1-AG.
 Alpha  occ. eigenvalues --   -0.93367  -0.75582  -0.65512  -0.48859  -0.41922
 Alpha  occ. eigenvalues --   -0.25710
 Alpha virt. eigenvalues --    0.03030   0.18898   0.22713   0.45500   0.61559
 Alpha virt. eigenvalues --    0.95275

 Mulliken charges:
               1
     1  H   -0.001184
     2  H   -0.057811
     3  H   -0.004467
     4  H   -0.051248
     5  H    0.133517
     6  H   -0.018806
     7  H   -0.004467
     8  H   -0.051248
     9  H   -0.018806
    10  H    0.133517
    11  H   -0.057811
    12  H   -0.001184
 Sum of Mulliken charges =  -0.00000

 Dipole moment (field-independent basis, Debye):
    X=              0.0000    Y=              0.0000    Z=              0.0000  Tot=              0.0000
 Quadrupole moment (field-independent basis, Debye-Ang):
   XX=            -19.4576   YY=            -14.2339   ZZ=            -15.1963
   XY=             -2.8649   XZ=             -0.0000   YZ=              0.0000

 Normal termination of Gaussian 09 at Fri Feb 17 15:01:10 2017.
