 Gaussian 09, Revision E.01,
 Gaussian 09:  ES64L-G09RevE.01 30-Nov-2015

 ----------------------------------------------------------------------
 #rhf/gen scf(symm,tight,novaracc,noincfock,fulldiag) stable(crhf) gues
 s=read geom=nocrowd test
 ----------------------------------------------------------------------

 ----------------------------------------------------------------------
 hf stability analysis of h12 triangular lattice, y= 1.1002000313062268
 ----------------------------------------------------------------------
 Symbolic Z-matrix:
 Charge =  0 Multiplicity = 1

                         Standard orientation:
 ---------------------------------------------------------------------
 Center     Atomic      Atomic             Coordinates (Angstroms)
 Number     Number       Type             X           Y           Z
 ---------------------------------------------------------------------
      1          1           0        0.947297    2.595520   -0.000000
      2          1           0        0.000000    1.828415   -0.000000
      3          1           0        0.947297    1.376577   -0.000000
      4          1           0        0.000000    0.609472   -0.000000
      5          1           0       -0.947297    1.061309   -0.000000
      6          1           0       -0.947297   -0.157634   -0.000000
      7          1           0       -0.947297   -1.376577    0.000000
      8          1           0       -0.000000   -0.609472   -0.000000
      9          1           0        0.947297    0.157634   -0.000000
     10          1           0        0.947297   -1.061309   -0.000000
     11          1           0       -0.000000   -1.828415   -0.000000
     12          1           0       -0.947297   -2.595520   -0.000000
 ---------------------------------------------------------------------

 SCF Done:  E(RHF) =  -5.39520293031     A.U. after   21 cycles
 E2 =    -0.2318424141D+00 EUMP2 =    -0.56270453444458D+01

 The electronic state is 1-AG.
 Alpha  occ. eigenvalues --   -0.94908  -0.76416  -0.57802  -0.53980  -0.31814
 Alpha  occ. eigenvalues --   -0.06112
 Alpha virt. eigenvalues --   -0.14872   0.18554   0.23709   0.31496   0.48709
 Alpha virt. eigenvalues --    0.55970

 Mulliken charges:
               1
     1  H    0.053317
     2  H   -0.036752
     3  H   -0.051050
     4  H    0.124810
     5  H   -0.119193
     6  H    0.028868
     7  H   -0.051050
     8  H    0.124810
     9  H    0.028868
    10  H   -0.119193
    11  H   -0.036752
    12  H    0.053317
 Sum of Mulliken charges =   0.00000

 Dipole moment (field-independent basis, Debye):
    X=              0.0000    Y=              0.0000    Z=              0.0000  Tot=              0.0000
 Quadrupole moment (field-independent basis, Debye-Ang):
   XX=            -19.3593   YY=            -18.1883   ZZ=            -15.0425
   XY=              1.7607   XZ=              0.0000   YZ=             -0.0000

 Normal termination of Gaussian 09 at Fri Feb 17 15:06:15 2017.
