 Gaussian 09, Revision E.01,
 Gaussian 09:  ES64L-G09RevE.01 30-Nov-2015

 ----------------------------------------------------------------------
 #rhf/gen scf(symm,tight,novaracc,noincfock,fulldiag) stable(crhf) gues
 s=read geom=nocrowd test
 ----------------------------------------------------------------------

 ----------------------------------------------------------------------
 hf stability analysis of h12 triangular lattice, y= 1.4552307619668963
 ----------------------------------------------------------------------
 Symbolic Z-matrix:
 Charge =  0 Multiplicity = 1

                         Standard orientation:
 ---------------------------------------------------------------------
 Center     Atomic      Atomic             Coordinates (Angstroms)
 Number     Number       Type             X           Y           Z
 ---------------------------------------------------------------------
      1          1           0        0.765542    3.562148   -0.000000
      2          1           0        0.000000    2.262515   -0.000000
      3          1           0        0.765542    2.053805   -0.000000
      4          1           0        0.000000    0.754172   -0.000000
      5          1           0       -0.765542    0.962883   -0.000000
      6          1           0       -0.765542   -0.545461   -0.000000
      7          1           0       -0.765542   -2.053805   -0.000000
      8          1           0       -0.000000   -0.754172   -0.000000
      9          1           0        0.765542    0.545461   -0.000000
     10          1           0        0.765542   -0.962883   -0.000000
     11          1           0       -0.000000   -2.262515   -0.000000
     12          1           0       -0.765542   -3.562148   -0.000000
 ---------------------------------------------------------------------

 SCF Done:  E(RHF) =  -5.39451392562     A.U. after   16 cycles
 E2 =    -0.5783488526D+00 EUMP2 =    -0.59728627782179D+01

 The electronic state is 1-AG.
 Alpha  occ. eigenvalues --   -0.90300  -0.78122  -0.61057  -0.53409  -0.26030
 Alpha  occ. eigenvalues --   -0.12796
 Alpha virt. eigenvalues --   -0.19504  -0.03532   0.40399   0.45027   0.58713
 Alpha virt. eigenvalues --    0.79356

 Mulliken charges:
               1
     1  H   -0.115850
     2  H    0.047766
     3  H   -0.047920
     4  H   -0.197770
     5  H    0.034546
     6  H    0.279228
     7  H   -0.047920
     8  H   -0.197770
     9  H    0.279228
    10  H    0.034546
    11  H    0.047766
    12  H   -0.115850
 Sum of Mulliken charges =   0.00000

 Dipole moment (field-independent basis, Debye):
    X=              0.0000    Y=             -0.0000    Z=              0.0000  Tot=              0.0000
 Quadrupole moment (field-independent basis, Debye-Ang):
   XX=            -14.2731   YY=            -35.9270   ZZ=            -14.8078
   XY=             -3.8601   XZ=             -0.0000   YZ=             -0.0000

 Normal termination of Gaussian 09 at Fri Feb 17 15:08:21 2017.
