 Gaussian 09, Revision E.01,
 Gaussian 09:  ES64L-G09RevE.01 30-Nov-2015

 ----------------------------------------------------------------------
 #rhf/gen scf(symm,tight,novaracc,noincfock,fulldiag) stable(crhf) gues
 s=read geom=nocrowd test
 ----------------------------------------------------------------------

 hf stability analysis of h12 triangular lattice, y= 0.6807147699477958
 9
 ----------------------------------------------------------------------
 Symbolic Z-matrix:
 Charge =  0 Multiplicity = 1

                         Standard orientation:
 ---------------------------------------------------------------------
 Center     Atomic      Atomic             Coordinates (Angstroms)
 Number     Number       Type             X           Y           Z
 ---------------------------------------------------------------------
      1          1           0        1.061758    1.395919    0.000000
      2          1           0        0.000000    1.631305    0.000000
      3          1           0        1.061758    0.308382    0.000000
      4          1           0        0.000000    0.543768    0.000000
      5          1           0       -1.061758    1.866691    0.000000
      6          1           0       -1.061758    0.779154    0.000000
      7          1           0       -1.061758   -0.308382    0.000000
      8          1           0       -0.000000   -0.543768    0.000000
      9          1           0        1.061758   -0.779154    0.000000
     10          1           0        1.061758   -1.866691    0.000000
     11          1           0       -0.000000   -1.631305    0.000000
     12          1           0       -1.061758   -1.395919    0.000000
 ---------------------------------------------------------------------

 SCF Done:  E(RHF) =  -5.81429733638     A.U. after    8 cycles
 E2 =    -0.1399374657D+00 EUMP2 =    -0.59542348021220D+01

 The electronic state is 1-AG.
 Alpha  occ. eigenvalues --   -0.93059  -0.75636  -0.64795  -0.49774  -0.40723
 Alpha  occ. eigenvalues --   -0.24679
 Alpha virt. eigenvalues --    0.01334   0.19150   0.25107   0.42345   0.62952
 Alpha virt. eigenvalues --    0.91471

 Mulliken charges:
               1
     1  H   -0.023325
     2  H   -0.057952
     3  H   -0.002294
     4  H   -0.049874
     5  H    0.153986
     6  H   -0.020541
     7  H   -0.002294
     8  H   -0.049874
     9  H   -0.020541
    10  H    0.153986
    11  H   -0.057952
    12  H   -0.023325
 Sum of Mulliken charges =  -0.00000

 Dipole moment (field-independent basis, Debye):
    X=              0.0000    Y=             -0.0000    Z=              0.0000  Tot=              0.0000
 Quadrupole moment (field-independent basis, Debye-Ang):
   XX=            -19.5399   YY=            -13.6044   ZZ=            -15.1956
   XY=             -3.7657   XZ=             -0.0000   YZ=              0.0000

 Normal termination of Gaussian 09 at Fri Feb 17 15:00:52 2017.
