 Gaussian 09, Revision E.01,
 Gaussian 09:  ES64L-G09RevE.01 30-Nov-2015

 ----------------------------------------------------------------------
 #rhf/gen scf(symm,tight,novaracc,noincfock,fulldiag) stable(crhf) gues
 s=read geom=nocrowd test
 ----------------------------------------------------------------------

 hf stability analysis of h12 triangular lattice, y= 0.3231128888021356
 2
 ----------------------------------------------------------------------
 Symbolic Z-matrix:
 Charge =  0 Multiplicity = 1

                         Standard orientation:
 ---------------------------------------------------------------------
 Center     Atomic      Atomic             Coordinates (Angstroms)
 Number     Number       Type             X           Y           Z
 ---------------------------------------------------------------------
      1          1           0        0.635912    1.022900   -0.000000
      2          1           0        0.000000    2.723725    0.000000
      3          1           0        0.635912   -0.792917   -0.000000
      4          1           0        0.000000    0.907908    0.000000
      5          1           0       -0.635912    4.424550    0.000000
      6          1           0       -0.635912    2.608734    0.000000
      7          1           0       -0.635912    0.792917   -0.000000
      8          1           0       -0.000000   -0.907908    0.000000
      9          1           0        0.635912   -2.608734    0.000000
     10          1           0        0.635912   -4.424550    0.000000
     11          1           0       -0.000000   -2.723725    0.000000
     12          1           0       -0.635912   -1.022900    0.000000
 ---------------------------------------------------------------------

 SCF Done:  E(RHF) =  -5.29841844863     A.U. after   12 cycles
 E2 =    -0.8028647282D+00 EUMP2 =    -0.61012831768299D+01

 The electronic state is 1-AG.
 Alpha  occ. eigenvalues --   -0.86987  -0.80439  -0.65522  -0.63875  -0.19618
 Alpha  occ. eigenvalues --   -0.18363
 Alpha virt. eigenvalues --   -0.12288  -0.08695   0.50222   0.51495   0.93316
 Alpha virt. eigenvalues --    1.10334

 Mulliken charges:
               1
     1  H    0.139967
     2  H   -0.000732
     3  H    0.189607
     4  H   -0.293888
     5  H   -0.018443
     6  H   -0.016512
     7  H    0.189607
     8  H   -0.293888
     9  H   -0.016512
    10  H   -0.018443
    11  H   -0.000732
    12  H    0.139967
 Sum of Mulliken charges =  -0.00000

 Dipole moment (field-independent basis, Debye):
    X=              0.0000    Y=             -0.0000    Z=             -0.0000  Tot=              0.0000
 Quadrupole moment (field-independent basis, Debye-Ang):
   XX=            -14.6927   YY=            -25.1714   ZZ=            -14.9983
   XY=              0.9322   XZ=             -0.0000   YZ=             -0.0000

 Normal termination of Gaussian 09 at Fri Feb 17 14:54:53 2017.
