 Gaussian 09, Revision E.01,
 Gaussian 09:  ES64L-G09RevE.01 30-Nov-2015

 ----------------------------------------------------------------------
 #rhf/gen scf(symm,tight,novaracc,noincfock,fulldiag) stable(crhf) gues
 s=read geom=nocrowd test
 ----------------------------------------------------------------------

 hf stability analysis of h12 triangular lattice, y= 0.9122757376900774
 2
 ----------------------------------------------------------------------
 Symbolic Z-matrix:
 Charge =  0 Multiplicity = 1

                         Standard orientation:
 ---------------------------------------------------------------------
 Center     Atomic      Atomic             Coordinates (Angstroms)
 Number     Number       Type             X           Y           Z
 ---------------------------------------------------------------------
      1          1           0        1.039988    2.054288    0.000000
      2          1           0        0.000000    1.665452   -0.000000
      3          1           0        1.039988    0.943986    0.000000
      4          1           0        0.000000    0.555151   -0.000000
      5          1           0       -1.039988    1.276616   -0.000000
      6          1           0       -1.039988    0.166315   -0.000000
      7          1           0       -1.039988   -0.943986    0.000000
      8          1           0       -0.000000   -0.555151   -0.000000
      9          1           0        1.039988   -0.166315   -0.000000
     10          1           0        1.039988   -1.276616   -0.000000
     11          1           0       -0.000000   -1.665452   -0.000000
     12          1           0       -1.039988   -2.054288    0.000000
 ---------------------------------------------------------------------

 SCF Done:  E(RHF) =  -5.73436915017     A.U. after   10 cycles
 E2 =    -0.1440167240D+00 EUMP2 =    -0.58783858741260D+01

 The electronic state is 1-AG.
 Alpha  occ. eigenvalues --   -0.91824  -0.75673  -0.62087  -0.51945  -0.37358
 Alpha  occ. eigenvalues --   -0.20515
 Alpha virt. eigenvalues --   -0.03304   0.20146   0.32546   0.33567   0.64918
 Alpha virt. eigenvalues --    0.78216

 Mulliken charges:
               1
     1  H    0.207506
     2  H   -0.058843
     3  H   -0.023035
     4  H   -0.044073
     5  H   -0.084075
     6  H    0.002520
     7  H   -0.023035
     8  H   -0.044073
     9  H    0.002520
    10  H   -0.084075
    11  H   -0.058843
    12  H    0.207506
 Sum of Mulliken charges =  -0.00000

 Dipole moment (field-independent basis, Debye):
    X=              0.0000    Y=              0.0000    Z=              0.0000  Tot=              0.0000
 Quadrupole moment (field-independent basis, Debye-Ang):
   XX=            -19.8616   YY=            -11.0183   ZZ=            -15.1919
   XY=              6.1554   XZ=              0.0000   YZ=              0.0000

 Normal termination of Gaussian 09 at Fri Feb 17 15:04:19 2017.
