 Gaussian 09, Revision E.01,
 Gaussian 09:  ES64L-G09RevE.01 30-Nov-2015

 ----------------------------------------------------------------------
 #rhf/gen scf(symm,tight,novaracc,noincfock,fulldiag) stable(crhf) gues
 s=read geom=nocrowd test
 ----------------------------------------------------------------------

 hf stability analysis of h12 triangular lattice, y= 0.9038427858540303
 3
 ----------------------------------------------------------------------
 Symbolic Z-matrix:
 Charge =  0 Multiplicity = 1

                         Standard orientation:
 ---------------------------------------------------------------------
 Center     Atomic      Atomic             Coordinates (Angstroms)
 Number     Number       Type             X           Y           Z
 ---------------------------------------------------------------------
      1          1           0        1.043297    2.029621    0.000000
      2          1           0        0.000000    1.660170   -0.000000
      3          1           0        1.043297    0.922841    0.000000
      4          1           0        0.000000    0.553390   -0.000000
      5          1           0       -1.043297    1.290720   -0.000000
      6          1           0       -1.043297    0.183939   -0.000000
      7          1           0       -1.043297   -0.922841    0.000000
      8          1           0       -0.000000   -0.553390    0.000000
      9          1           0        1.043297   -0.183939   -0.000000
     10          1           0        1.043297   -1.290720   -0.000000
     11          1           0       -0.000000   -1.660170    0.000000
     12          1           0       -1.043297   -2.029621    0.000000
 ---------------------------------------------------------------------

 SCF Done:  E(RHF) =  -5.74697625371     A.U. after   10 cycles
 E2 =    -0.1433377747D+00 EUMP2 =    -0.58903140284026D+01

 The electronic state is 1-AG.
 Alpha  occ. eigenvalues --   -0.92011  -0.75682  -0.62485  -0.51697  -0.37795
 Alpha  occ. eigenvalues --   -0.21149
 Alpha virt. eigenvalues --   -0.02731   0.19995   0.31551   0.34679   0.64813
 Alpha virt. eigenvalues --    0.80050

 Mulliken charges:
               1
     1  H    0.200905
     2  H   -0.058662
     3  H   -0.022958
     4  H   -0.045001
     5  H   -0.076312
     6  H    0.002028
     7  H   -0.022958
     8  H   -0.045001
     9  H    0.002028
    10  H   -0.076312
    11  H   -0.058662
    12  H    0.200905
 Sum of Mulliken charges =   0.00000

 Dipole moment (field-independent basis, Debye):
    X=             -0.0000    Y=              0.0000    Z=              0.0000  Tot=              0.0000
 Quadrupole moment (field-independent basis, Debye-Ang):
   XX=            -19.8136   YY=            -11.4172   ZZ=            -15.1925
   XY=              5.8576   XZ=             -0.0000   YZ=             -0.0000

 Normal termination of Gaussian 09 at Fri Feb 17 15:04:13 2017.
