 Gaussian 09, Revision E.01,
 Gaussian 09:  ES64L-G09RevE.01 30-Nov-2015

 ----------------------------------------------------------------------
 #rhf/gen scf(symm,tight,novaracc,noincfock,fulldiag) stable(crhf) gues
 s=read geom=nocrowd test
 ----------------------------------------------------------------------

 hf stability analysis of h12 triangular lattice, y= 0.3687111964088696
 8
 ----------------------------------------------------------------------
 Symbolic Z-matrix:
 Charge =  0 Multiplicity = 1

                         Standard orientation:
 ---------------------------------------------------------------------
 Center     Atomic      Atomic             Coordinates (Angstroms)
 Number     Number       Type             X           Y           Z
 ---------------------------------------------------------------------
      1          1           0        0.717792    0.973360    0.000000
      2          1           0        0.000000    2.413027    0.000000
      3          1           0        0.717792   -0.635325    0.000000
      4          1           0        0.000000    0.804342    0.000000
      5          1           0       -0.717792    3.852695    0.000000
      6          1           0       -0.717792    2.244010   -0.000000
      7          1           0       -0.717792    0.635325    0.000000
      8          1           0       -0.000000   -0.804342    0.000000
      9          1           0        0.717792   -2.244010    0.000000
     10          1           0        0.717792   -3.852695    0.000000
     11          1           0       -0.000000   -2.413027    0.000000
     12          1           0       -0.717792   -0.973360    0.000000
 ---------------------------------------------------------------------

 SCF Done:  E(RHF) =  -5.40953525944     A.U. after   13 cycles
 E2 =    -0.6635165294D+00 EUMP2 =    -0.60730517888520D+01

 The electronic state is 1-AG.
 Alpha  occ. eigenvalues --   -0.88298  -0.78220  -0.62526  -0.57439  -0.23326
 Alpha  occ. eigenvalues --   -0.15241
 Alpha virt. eigenvalues --   -0.15158  -0.07562   0.44180   0.47358   0.70654
 Alpha virt. eigenvalues --    0.90502

 Mulliken charges:
               1
     1  H    0.085097
     2  H    0.016132
     3  H    0.218847
     4  H   -0.223059
     5  H   -0.067580
     6  H   -0.029437
     7  H    0.218847
     8  H   -0.223059
     9  H   -0.029437
    10  H   -0.067580
    11  H    0.016132
    12  H    0.085097
 Sum of Mulliken charges =  -0.00000

 Dipole moment (field-independent basis, Debye):
    X=              0.0000    Y=              0.0000    Z=              0.0000  Tot=              0.0000
 Quadrupole moment (field-independent basis, Debye-Ang):
   XX=            -14.2082   YY=            -31.8334   ZZ=            -14.8595
   XY=              2.5271   XZ=             -0.0000   YZ=              0.0000

 Normal termination of Gaussian 09 at Fri Feb 17 14:55:32 2017.
