 Gaussian 09, Revision E.01,
 Gaussian 09:  ES64L-G09RevE.01 30-Nov-2015

 ----------------------------------------------------------------------
 #rhf/gen scf(symm,tight,novaracc,noincfock,fulldiag) stable(crhf) gues
 s=read geom=nocrowd test
 ----------------------------------------------------------------------

 hf stability analysis of h12 triangular lattice, y= 0.3503135618487248
 1
 ----------------------------------------------------------------------
 Symbolic Z-matrix:
 Charge =  0 Multiplicity = 1

                         Standard orientation:
 ---------------------------------------------------------------------
 Center     Atomic      Atomic             Coordinates (Angstroms)
 Number     Number       Type             X           Y           Z
 ---------------------------------------------------------------------
      1          1           0        0.685317    0.988126    0.000000
      2          1           0        0.000000    2.527373   -0.000000
      3          1           0        0.685317   -0.696789    0.000000
      4          1           0        0.000000    0.842458   -0.000000
      5          1           0       -0.685317    4.066619   -0.000000
      6          1           0       -0.685317    2.381704   -0.000000
      7          1           0       -0.685317    0.696789    0.000000
      8          1           0       -0.000000   -0.842458    0.000000
      9          1           0        0.685317   -2.381704   -0.000000
     10          1           0        0.685317   -4.066619   -0.000000
     11          1           0       -0.000000   -2.527373    0.000000
     12          1           0       -0.685317   -0.988126    0.000000
 ---------------------------------------------------------------------

 SCF Done:  E(RHF) =  -5.38878569837     A.U. after   12 cycles
 E2 =    -0.7110452654D+00 EUMP2 =    -0.60998309637275D+01

 The electronic state is 1-AG.
 Alpha  occ. eigenvalues --   -0.87454  -0.78738  -0.63645  -0.60139  -0.21717
 Alpha  occ. eigenvalues --   -0.16682
 Alpha virt. eigenvalues --   -0.12468  -0.09715   0.46591   0.48884   0.79328
 Alpha virt. eigenvalues --    0.98226

 Mulliken charges:
               1
     1  H    0.106886
     2  H    0.006410
     3  H    0.198495
     4  H   -0.245702
     5  H   -0.042876
     6  H   -0.023213
     7  H    0.198495
     8  H   -0.245702
     9  H   -0.023213
    10  H   -0.042876
    11  H    0.006410
    12  H    0.106886
 Sum of Mulliken charges =   0.00000

 Dipole moment (field-independent basis, Debye):
    X=              0.0000    Y=              0.0000    Z=              0.0000  Tot=              0.0000
 Quadrupole moment (field-independent basis, Debye-Ang):
   XX=            -14.3595   YY=            -28.9528   ZZ=            -14.9106
   XY=              1.7649   XZ=             -0.0000   YZ=              0.0000

 Normal termination of Gaussian 09 at Fri Feb 17 11:35:00 2017.
