 Gaussian 09, Revision E.01,
 Gaussian 09:  ES64L-G09RevE.01 30-Nov-2015

 ----------------------------------------------------------------------
 #rhf/gen scf(symm,tight,novaracc,noincfock,fulldiag) stable(crhf) gues
 s=read geom=nocrowd test
 ----------------------------------------------------------------------

 hf stability analysis of h12 triangular lattice, y= 0.8078216382370341
 2
 ----------------------------------------------------------------------
 Symbolic Z-matrix:
 Charge =  0 Multiplicity = 1

                         Standard orientation:
 ---------------------------------------------------------------------
 Center     Atomic      Atomic             Coordinates (Angstroms)
 Number     Number       Type             X           Y           Z
 ---------------------------------------------------------------------
      1          1           0        1.070558    1.749344   -0.000000
      2          1           0        0.000000    1.617896   -0.000000
      3          1           0        1.070558    0.670747   -0.000000
      4          1           0        0.000000    0.539299   -0.000000
      5          1           0       -1.070558    1.486448   -0.000000
      6          1           0       -1.070558    0.407851   -0.000000
      7          1           0       -1.070558   -0.670747    0.000000
      8          1           0       -0.000000   -0.539299   -0.000000
      9          1           0        1.070558   -0.407851   -0.000000
     10          1           0        1.070558   -1.486448   -0.000000
     11          1           0       -0.000000   -1.617896   -0.000000
     12          1           0       -1.070558   -1.749344    0.000000
 ---------------------------------------------------------------------

 SCF Done:  E(RHF) =  -5.84459893651     A.U. after    8 cycles
 E2 =    -0.1384918498D+00 EUMP2 =    -0.59830907863546D+01

 The electronic state is 1-AG.
 Alpha  occ. eigenvalues --   -0.93559  -0.75534  -0.65973  -0.48060  -0.42897
 Alpha  occ. eigenvalues --   -0.26352
 Alpha virt. eigenvalues --    0.04335   0.18734   0.20978   0.48021   0.60150
 Alpha virt. eigenvalues --    0.97771

 Mulliken charges:
               1
     1  H    0.116294
     2  H   -0.057735
     3  H   -0.017150
     4  H   -0.052100
     5  H    0.017061
     6  H   -0.006370
     7  H   -0.017150
     8  H   -0.052100
     9  H   -0.006370
    10  H    0.017061
    11  H   -0.057735
    12  H    0.116294
 Sum of Mulliken charges =  -0.00000

 Dipole moment (field-independent basis, Debye):
    X=              0.0000    Y=              0.0000    Z=             -0.0000  Tot=              0.0000
 Quadrupole moment (field-independent basis, Debye-Ang):
   XX=            -19.4058   YY=            -14.6239   ZZ=            -15.1967
   XY=              2.1124   XZ=              0.0000   YZ=             -0.0000

 Normal termination of Gaussian 09 at Fri Feb 17 15:02:54 2017.
