 Gaussian 09, Revision E.01,
 Gaussian 09:  ES64L-G09RevE.01 30-Nov-2015

 ----------------------------------------------------------------------
 #rhf/gen scf(symm,tight,novaracc,noincfock,fulldiag) stable(crhf) gues
 s=read geom=nocrowd test
 ----------------------------------------------------------------------

 hf stability analysis of h12 triangular lattice, y= 0.5598889440700592
 9
 ----------------------------------------------------------------------
 Symbolic Z-matrix:
 Charge =  0 Multiplicity = 1

                         Standard orientation:
 ---------------------------------------------------------------------
 Center     Atomic      Atomic             Coordinates (Angstroms)
 Number     Number       Type             X           Y           Z
 ---------------------------------------------------------------------
      1          1           0        0.984080    1.121002    0.000000
      2          1           0        0.000000    1.760071   -0.000000
      3          1           0        0.984080   -0.052379    0.000000
      4          1           0        0.000000    0.586690   -0.000000
      5          1           0       -0.984080    2.399140   -0.000000
      6          1           0       -0.984080    1.225759   -0.000000
      7          1           0       -0.984080    0.052379    0.000000
      8          1           0       -0.000000   -0.586690   -0.000000
      9          1           0        0.984080   -1.225759   -0.000000
     10          1           0        0.984080   -2.399140   -0.000000
     11          1           0       -0.000000   -1.760071   -0.000000
     12          1           0       -0.984080   -1.121002    0.000000
 ---------------------------------------------------------------------

 SCF Done:  E(RHF) =  -5.49771288150     A.U. after   13 cycles
 E2 =    -0.8444740375D-01 EUMP2 =    -0.55821602852503D+01

 The electronic state is 1-AG.
 Alpha  occ. eigenvalues --   -0.89082  -0.75211  -0.55929  -0.54457  -0.31167
 Alpha  occ. eigenvalues --   -0.09862
 Alpha virt. eigenvalues --   -0.10248   0.19874   0.22549   0.44847   0.54563
 Alpha virt. eigenvalues --    0.63054

 Mulliken charges:
               1
     1  H   -0.186393
     2  H   -0.072000
     3  H   -0.008160
     4  H   -0.010620
     5  H    0.279635
     6  H   -0.002462
     7  H   -0.008160
     8  H   -0.010620
     9  H   -0.002462
    10  H    0.279635
    11  H   -0.072000
    12  H   -0.186393
 Sum of Mulliken charges =  -0.00000

 Dipole moment (field-independent basis, Debye):
    X=             -0.0000    Y=              0.0000    Z=             -0.0000  Tot=              0.0000
 Quadrupole moment (field-independent basis, Debye-Ang):
   XX=            -20.5902   YY=             -4.4688   ZZ=            -15.1718
   XY=             -9.7262   XZ=             -0.0000   YZ=             -0.0000

 Normal termination of Gaussian 09 at Fri Feb 17 14:58:38 2017.
