 Gaussian 09, Revision E.01,
 Gaussian 09:  ES64L-G09RevE.01 30-Nov-2015

 ----------------------------------------------------------------------
 #rhf/gen scf(symm,tight,novaracc,noincfock,fulldiag) stable(crhf) gues
 s=read geom=nocrowd test
 ----------------------------------------------------------------------

 hf stability analysis of h12 triangular lattice, y= 0.3066389812720254
 9
 ----------------------------------------------------------------------
 Symbolic Z-matrix:
 Charge =  0 Multiplicity = 1

                         Standard orientation:
 ---------------------------------------------------------------------
 Center     Atomic      Atomic             Coordinates (Angstroms)
 Number     Number       Type             X           Y           Z
 ---------------------------------------------------------------------
      1          1           0        0.605303    1.052400    0.000000
      2          1           0        0.000000    2.861460    0.000000
      3          1           0        0.605303   -0.855240    0.000000
      4          1           0        0.000000    0.953820    0.000000
      5          1           0       -0.605303    4.670521   -0.000000
      6          1           0       -0.605303    2.762880   -0.000000
      7          1           0       -0.605303    0.855240    0.000000
      8          1           0       -0.000000   -0.953820   -0.000000
      9          1           0        0.605303   -2.762880   -0.000000
     10          1           0        0.605303   -4.670521   -0.000000
     11          1           0       -0.000000   -2.861460   -0.000000
     12          1           0       -0.605303   -1.052400   -0.000000
 ---------------------------------------------------------------------

 SCF Done:  E(RHF) =  -5.20122563756     A.U. after   11 cycles
 E2 =    -0.8591982640D+00 EUMP2 =    -0.60604239015360D+01

 The electronic state is 1-AG.
 Alpha  occ. eigenvalues --   -0.87191  -0.82079  -0.66758  -0.65865  -0.19156
 Alpha  occ. eigenvalues --   -0.18401
 Alpha virt. eigenvalues --   -0.13425  -0.06630   0.52526   0.53360   1.02594
 Alpha virt. eigenvalues --    1.18246

 Mulliken charges:
               1
     1  H    0.163791
     2  H   -0.002523
     3  H    0.195848
     4  H   -0.334437
     5  H   -0.009535
     6  H   -0.013144
     7  H    0.195848
     8  H   -0.334437
     9  H   -0.013144
    10  H   -0.009535
    11  H   -0.002523
    12  H    0.163791
 Sum of Mulliken charges =   0.00000

 Dipole moment (field-independent basis, Debye):
    X=             -0.0000    Y=             -0.0000    Z=              0.0000  Tot=              0.0000
 Quadrupole moment (field-independent basis, Debye-Ang):
   XX=            -14.9301   YY=            -23.2481   ZZ=            -15.0550
   XY=              0.5842   XZ=              0.0000   YZ=             -0.0000

 Normal termination of Gaussian 09 at Fri Feb 17 14:54:41 2017.
