 Gaussian 09, Revision E.01,
 Gaussian 09:  ES64L-G09RevE.01 30-Nov-2015

 ----------------------------------------------------------------------
 #rhf/gen scf(symm,tight,novaracc,noincfock,fulldiag) stable(crhf) gues
 s=read geom=nocrowd test
 ----------------------------------------------------------------------

 ----------------------------------------------------------------------
 hf stability analysis of h12 triangular lattice, y= 1.0258511839050852
 ----------------------------------------------------------------------
 Symbolic Z-matrix:
 Charge =  0 Multiplicity = 1

                         Standard orientation:
 ---------------------------------------------------------------------
 Center     Atomic      Atomic             Coordinates (Angstroms)
 Number     Number       Type             X           Y           Z
 ---------------------------------------------------------------------
      1          1           0        0.986846    2.383828    0.000000
      2          1           0        0.000000    1.755138    0.000000
      3          1           0        0.986846    1.213736   -0.000000
      4          1           0        0.000000    0.585046    0.000000
      5          1           0       -0.986846    1.126448    0.000000
      6          1           0       -0.986846   -0.043644    0.000000
      7          1           0       -0.986846   -1.213736    0.000000
      8          1           0       -0.000000   -0.585046    0.000000
      9          1           0        0.986846    0.043644    0.000000
     10          1           0        0.986846   -1.126448    0.000000
     11          1           0       -0.000000   -1.755138    0.000000
     12          1           0       -0.986846   -2.383828    0.000000
 ---------------------------------------------------------------------

 SCF Done:  E(RHF) =  -5.51019641571     A.U. after   12 cycles
 E2 =    -0.2226042416D+00 EUMP2 =    -0.57328006572992D+01

 The electronic state is 1-AG.
 Alpha  occ. eigenvalues --   -0.89139  -0.75228  -0.56181  -0.54385  -0.31451
 Alpha  occ. eigenvalues --   -0.10367
 Alpha virt. eigenvalues --   -0.09944   0.20382   0.22449   0.44614   0.55369
 Alpha virt. eigenvalues --    0.63264

 Mulliken charges:
               1
     1  H    0.278804
     2  H   -0.070011
     3  H   -0.005648
     4  H   -0.015243
     5  H   -0.182686
     6  H   -0.005216
     7  H   -0.005648
     8  H   -0.015243
     9  H   -0.005216
    10  H   -0.182686
    11  H   -0.070011
    12  H    0.278804
 Sum of Mulliken charges =   0.00000

 Dipole moment (field-independent basis, Debye):
    X=             -0.0000    Y=             -0.0000    Z=             -0.0000  Tot=              0.0000
 Quadrupole moment (field-independent basis, Debye-Ang):
   XX=            -20.5657   YY=             -4.6808   ZZ=            -15.1740
   XY=              9.6337   XZ=             -0.0000   YZ=             -0.0000

 Normal termination of Gaussian 09 at Fri Feb 17 15:05:35 2017.
