 Gaussian 09, Revision E.01,
 Gaussian 09:  ES64L-G09RevE.01 30-Nov-2015

 ----------------------------------------------------------------------
 #rhf/gen scf(symm,tight,novaracc,noincfock,fulldiag) stable(crhf) gues
 s=read geom=nocrowd test
 ----------------------------------------------------------------------

 hf stability analysis of h12 triangular lattice, y= 0.7834165171194891
 2
 ----------------------------------------------------------------------
 Symbolic Z-matrix:
 Charge =  0 Multiplicity = 1

                         Standard orientation:
 ---------------------------------------------------------------------
 Center     Atomic      Atomic             Coordinates (Angstroms)
 Number     Number       Type             X           Y           Z
 ---------------------------------------------------------------------
      1          1           0        1.073567    1.679022   -0.000000
      2          1           0        0.000000    1.613360    0.000000
      3          1           0        1.073567    0.603449   -0.000000
      4          1           0        0.000000    0.537787    0.000000
      5          1           0       -1.073567    1.547698    0.000000
      6          1           0       -1.073567    0.472125    0.000000
      7          1           0       -1.073567   -0.603449   -0.000000
      8          1           0       -0.000000   -0.537787    0.000000
      9          1           0        1.073567   -0.472125    0.000000
     10          1           0        1.073567   -1.547698    0.000000
     11          1           0       -0.000000   -1.613360    0.000000
     12          1           0       -1.073567   -1.679022    0.000000
 ---------------------------------------------------------------------

 SCF Done:  E(RHF) =  -5.85470033510     A.U. after    8 cycles
 E2 =    -0.1380177598D+00 EUMP2 =    -0.59927180948841D+01

 The electronic state is 1-AG.
 Alpha  occ. eigenvalues --   -0.93730  -0.75482  -0.66392  -0.46906  -0.44206
 Alpha  occ. eigenvalues --   -0.26921
 Alpha virt. eigenvalues --    0.05781   0.18529   0.19209   0.51272   0.57897
 Alpha virt. eigenvalues --    1.00080

 Mulliken charges:
               1
     1  H    0.091931
     2  H   -0.057672
     3  H   -0.014605
     4  H   -0.052856
     5  H    0.042322
     6  H   -0.009119
     7  H   -0.014605
     8  H   -0.052856
     9  H   -0.009119
    10  H    0.042322
    11  H   -0.057672
    12  H    0.091931
 Sum of Mulliken charges =   0.00000

 Dipole moment (field-independent basis, Debye):
    X=             -0.0000    Y=             -0.0000    Z=              0.0000  Tot=              0.0000
 Quadrupole moment (field-independent basis, Debye-Ang):
   XX=            -19.3594   YY=            -14.9692   ZZ=            -15.1970
   XY=              1.0569   XZ=              0.0000   YZ=             -0.0000

 Normal termination of Gaussian 09 at Fri Feb 17 15:02:32 2017.
