 Gaussian 09, Revision E.01,
 Gaussian 09:  ES64L-G09RevE.01 30-Nov-2015

 ----------------------------------------------------------------------
 #rhf/gen scf(symm,tight,novaracc,noincfock,fulldiag) stable(crhf) gues
 s=read geom=nocrowd test
 ----------------------------------------------------------------------

 hf stability analysis of h12 triangular lattice, y= 0.2247478695127229
 1
 ----------------------------------------------------------------------
 Symbolic Z-matrix:
 Charge =  0 Multiplicity = 1

                         Standard orientation:
 ---------------------------------------------------------------------
 Center     Atomic      Atomic             Coordinates (Angstroms)
 Number     Number       Type             X           Y           Z
 ---------------------------------------------------------------------
      1          1           0        0.447785    1.328522    0.000000
      2          1           0        0.000000    3.868039    0.000000
      3          1           0        0.447785   -1.250170    0.000000
      4          1           0        0.000000    1.289346    0.000000
      5          1           0       -0.447785    6.407555    0.000000
      6          1           0       -0.447785    3.828863    0.000000
      7          1           0       -0.447785    1.250170   -0.000000
      8          1           0       -0.000000   -1.289346    0.000000
      9          1           0        0.447785   -3.828863    0.000000
     10          1           0        0.447785   -6.407555    0.000000
     11          1           0       -0.000000   -3.868039    0.000000
     12          1           0       -0.447785   -1.328522    0.000000
 ---------------------------------------------------------------------

 SCF Done:  E(RHF) =  -3.99954956881     A.U. after   10 cycles
 E2 =    -0.1203885266D+01 EUMP2 =    -0.52034348347346D+01

 The electronic state is 1-AG.
 Alpha  occ. eigenvalues --   -0.95247  -0.94207  -0.73227  -0.73223  -0.20537
 Alpha  occ. eigenvalues --   -0.11418
 Alpha virt. eigenvalues --   -0.16418   0.03025   0.66866   0.66899   1.64004
 Alpha virt. eigenvalues --    1.71749

 Mulliken charges:
               1
     1  H    0.379877
     2  H   -0.001429
     3  H    0.376884
     4  H   -0.754184
     5  H    0.001245
     6  H   -0.002394
     7  H    0.376884
     8  H   -0.754184
     9  H   -0.002394
    10  H    0.001245
    11  H   -0.001429
    12  H    0.379877
 Sum of Mulliken charges =  -0.00000

 Dipole moment (field-independent basis, Debye):
    X=              0.0000    Y=              0.0000    Z=              0.0000  Tot=              0.0000
 Quadrupole moment (field-independent basis, Debye-Ang):
   XX=            -16.1634   YY=            -17.3589   ZZ=            -15.2726
   XY=             -0.0740   XZ=             -0.0000   YZ=             -0.0000

 Normal termination of Gaussian 09 at Fri Feb 17 14:53:52 2017.
