 Gaussian 09, Revision E.01,
 Gaussian 09:  ES64L-G09RevE.01 30-Nov-2015

 ----------------------------------------------------------------------
 #rhf/gen scf(symm,tight,novaracc,noincfock,fulldiag) stable(crhf) gues
 s=read geom=nocrowd test
 ----------------------------------------------------------------------

 ----------------------------------------------------------------------
 hf stability analysis of h12 triangular lattice, y= 1.0365814879045478
 ----------------------------------------------------------------------
 Symbolic Z-matrix:
 Charge =  0 Multiplicity = 1

                         Standard orientation:
 ---------------------------------------------------------------------
 Center     Atomic      Atomic             Coordinates (Angstroms)
 Number     Number       Type             X           Y           Z
 ---------------------------------------------------------------------
      1          1           0        0.981269    2.414601    0.000000
      2          1           0        0.000000    1.765114    0.000000
      3          1           0        0.981269    1.237859    0.000000
      4          1           0        0.000000    0.588371    0.000000
      5          1           0       -0.981269    1.115626    0.000000
      6          1           0       -0.981269   -0.061116    0.000000
      7          1           0       -0.981269   -1.237859    0.000000
      8          1           0       -0.000000   -0.588371    0.000000
      9          1           0        0.981269    0.061116   -0.000000
     10          1           0        0.981269   -1.115626   -0.000000
     11          1           0       -0.000000   -1.765114    0.000000
     12          1           0       -0.981269   -2.414601    0.000000
 ---------------------------------------------------------------------

 SCF Done:  E(RHF) =  -5.48508719574     A.U. after   13 cycles
 E2 =    -0.1360759895D+00 EUMP2 =    -0.56211631852332D+01

 The electronic state is 1-AG.
 Alpha  occ. eigenvalues --   -0.89065  -0.75198  -0.55700  -0.54521  -0.30883
 Alpha  occ. eigenvalues --   -0.09361
 Alpha virt. eigenvalues --   -0.10569   0.19386   0.22644   0.44935   0.53819
 Alpha virt. eigenvalues --    0.62811

 Mulliken charges:
               1
     1  H    0.279258
     2  H   -0.074473
     3  H    0.001291
     4  H   -0.004584
     5  H   -0.189518
     6  H   -0.011974
     7  H    0.001291
     8  H   -0.004584
     9  H   -0.011974
    10  H   -0.189518
    11  H   -0.074473
    12  H    0.279258
 Sum of Mulliken charges =   0.00000

 Dipole moment (field-independent basis, Debye):
    X=             -0.0000    Y=             -0.0000    Z=              0.0000  Tot=              0.0000
 Quadrupole moment (field-independent basis, Debye-Ang):
   XX=            -20.6073   YY=             -4.3328   ZZ=            -15.1688
   XY=              9.7790   XZ=             -0.0000   YZ=             -0.0000

 Normal termination of Gaussian 09 at Fri Feb 17 15:05:42 2017.
