 Gaussian 09, Revision E.01,
 Gaussian 09:  ES64L-G09RevE.01 30-Nov-2015

 ----------------------------------------------------------------------
 #rhf/gen scf(symm,tight,novaracc,noincfock,fulldiag) stable(crhf) gues
 s=read geom=nocrowd test
 ----------------------------------------------------------------------

 ----------------------------------------------------------------------
 hf stability analysis of h12 triangular lattice, y= 1.1523084791052536
 ----------------------------------------------------------------------
 Symbolic Z-matrix:
 Charge =  0 Multiplicity = 1

                         Standard orientation:
 ---------------------------------------------------------------------
 Center     Atomic      Atomic             Coordinates (Angstroms)
 Number     Number       Type             X           Y           Z
 ---------------------------------------------------------------------
      1          1           0        0.918964    2.741734   -0.000000
      2          1           0        0.000000    1.884787    0.000000
      3          1           0        0.918964    1.485210   -0.000000
      4          1           0        0.000000    0.628262    0.000000
      5          1           0       -0.918964    1.027839    0.000000
      6          1           0       -0.918964   -0.228685    0.000000
      7          1           0       -0.918964   -1.485210    0.000000
      8          1           0       -0.000000   -0.628262    0.000000
      9          1           0        0.918964    0.228685    0.000000
     10          1           0        0.918964   -1.027839    0.000000
     11          1           0       -0.000000   -1.884787    0.000000
     12          1           0       -0.918964   -2.741734    0.000000
 ---------------------------------------------------------------------

 SCF Done:  E(RHF) =  -5.40231176563     A.U. after   18 cycles
 E2 =    -0.3291255950D+00 EUMP2 =    -0.57314373606709D+01

 The electronic state is 1-AG.
 Alpha  occ. eigenvalues --   -0.96445  -0.77288  -0.57646  -0.54532  -0.32565
 Alpha  occ. eigenvalues --   -0.07280
 Alpha virt. eigenvalues --   -0.17092   0.19972   0.22157   0.27467   0.50974
 Alpha virt. eigenvalues --    0.52717

 Mulliken charges:
               1
     1  H   -0.032381
     2  H    0.028380
     3  H   -0.099772
     4  H    0.126254
     5  H   -0.104732
     6  H    0.082251
     7  H   -0.099772
     8  H    0.126254
     9  H    0.082251
    10  H   -0.104732
    11  H    0.028380
    12  H   -0.032381
 Sum of Mulliken charges =  -0.00000

 Dipole moment (field-independent basis, Debye):
    X=              0.0000    Y=              0.0000    Z=             -0.0000  Tot=              0.0000
 Quadrupole moment (field-independent basis, Debye-Ang):
   XX=            -19.0756   YY=            -23.5917   ZZ=            -15.0523
   XY=             -1.2511   XZ=              0.0000   YZ=              0.0000

 Normal termination of Gaussian 09 at Fri Feb 17 15:06:40 2017.
