 Gaussian 09, Revision E.01,
 Gaussian 09:  ES64L-G09RevE.01 30-Nov-2015

 ----------------------------------------------------------------------
 #rhf/gen scf(symm,tight,novaracc,noincfock,fulldiag) stable(crhf) gues
 s=read geom=nocrowd test
 ----------------------------------------------------------------------

 hf stability analysis of h12 triangular lattice, y= 0.7532333993657272
 0
 ----------------------------------------------------------------------
 Symbolic Z-matrix:
 Charge =  0 Multiplicity = 1

                         Standard orientation:
 ---------------------------------------------------------------------
 Center     Atomic      Atomic             Coordinates (Angstroms)
 Number     Number       Type             X           Y           Z
 ---------------------------------------------------------------------
      1          1           0        1.074488    1.593222   -0.000000
      2          1           0        0.000000    1.611978   -0.000000
      3          1           0        1.074488    0.518571    0.000000
      4          1           0        0.000000    0.537326   -0.000000
      5          1           0       -1.074488    1.630733   -0.000000
      6          1           0       -1.074488    0.556081   -0.000000
      7          1           0       -1.074488   -0.518571   -0.000000
      8          1           0       -0.000000   -0.537326    0.000000
      9          1           0        1.074488   -0.556081    0.000000
     10          1           0        1.074488   -1.630733    0.000000
     11          1           0       -0.000000   -1.611978    0.000000
     12          1           0       -1.074488   -1.593222    0.000000
 ---------------------------------------------------------------------

 SCF Done:  E(RHF) =  -5.85776412535     A.U. after    8 cycles
 E2 =    -0.1378746159D+00 EUMP2 =    -0.59956387412459D+01

 The electronic state is 1-AG.
 Alpha  occ. eigenvalues --   -0.93782  -0.75464  -0.66523  -0.46152  -0.45007
 Alpha  occ. eigenvalues --   -0.27095
 Alpha virt. eigenvalues --    0.06310   0.18282   0.18764   0.53050   0.56426
 Alpha virt. eigenvalues --    1.00803

 Mulliken charges:
               1
     1  H    0.060176
     2  H   -0.057654
     3  H   -0.011104
     4  H   -0.053087
     5  H    0.074349
     6  H   -0.012680
     7  H   -0.011104
     8  H   -0.053087
     9  H   -0.012680
    10  H    0.074349
    11  H   -0.057654
    12  H    0.060176
 Sum of Mulliken charges =  -0.00000

 Dipole moment (field-independent basis, Debye):
    X=              0.0000    Y=             -0.0000    Z=              0.0000  Tot=              0.0000
 Quadrupole moment (field-independent basis, Debye-Ang):
   XX=            -19.3452   YY=            -15.0745   ZZ=            -15.1971
   XY=             -0.3020   XZ=             -0.0000   YZ=             -0.0000

 Normal termination of Gaussian 09 at Fri Feb 17 15:02:03 2017.
