 Gaussian 09, Revision E.01,
 Gaussian 09:  ES64L-G09RevE.01 30-Nov-2015

 ----------------------------------------------------------------------
 #rhf/gen scf(symm,tight,novaracc,noincfock,fulldiag) stable(crhf) gues
 s=read geom=nocrowd test
 ----------------------------------------------------------------------

 ----------------------------------------------------------------------
 hf stability analysis of h12 triangular lattice, y= 2.0941375407372735
 ----------------------------------------------------------------------
 Symbolic Z-matrix:
 Charge =  0 Multiplicity = 1

                         Standard orientation:
 ---------------------------------------------------------------------
 Center     Atomic      Atomic             Coordinates (Angstroms)
 Number     Number       Type             X           Y           Z
 ---------------------------------------------------------------------
      1          1           0        0.546680    5.208548    0.000000
      2          1           0       -0.000000    3.168312    0.000000
      3          1           0        0.546680    3.096340    0.000000
      4          1           0       -0.000000    1.056104    0.000000
      5          1           0       -0.546680    1.128076    0.000000
      6          1           0       -0.546680   -0.984132    0.000000
      7          1           0       -0.546680   -3.096340   -0.000000
      8          1           0        0.000000   -1.056104   -0.000000
      9          1           0        0.546680    0.984132    0.000000
     10          1           0        0.546680   -1.128076   -0.000000
     11          1           0        0.000000   -3.168312   -0.000000
     12          1           0       -0.546680   -5.208548   -0.000000
 ---------------------------------------------------------------------

 SCF Done:  E(RHF) =  -4.90960383874     A.U. after   11 cycles
 E2 =    -0.9704905157D+00 EUMP2 =    -0.58800943544011D+01

 The electronic state is 1-AG.
 Alpha  occ. eigenvalues --   -0.88633  -0.86296  -0.69179  -0.68998  -0.20060
 Alpha  occ. eigenvalues --   -0.16184
 Alpha virt. eigenvalues --   -0.14985  -0.02963   0.57252   0.57573   1.22204
 Alpha virt. eigenvalues --    1.34966

 Mulliken charges:
               1
     1  H   -0.001027
     2  H   -0.003143
     3  H   -0.007896
     4  H   -0.442181
     5  H    0.221916
     6  H    0.232330
     7  H   -0.007896
     8  H   -0.442181
     9  H    0.232330
    10  H    0.221916
    11  H   -0.003143
    12  H   -0.001027
 Sum of Mulliken charges =  -0.00000

 Dipole moment (field-independent basis, Debye):
    X=              0.0000    Y=              0.0000    Z=              0.0000  Tot=              0.0000
 Quadrupole moment (field-independent basis, Debye-Ang):
   XX=            -15.4064   YY=            -20.3728   ZZ=            -15.1584
   XY=             -0.1739   XZ=             -0.0000   YZ=             -0.0000

 Normal termination of Gaussian 09 at Fri Feb 17 15:09:49 2017.
