 Gaussian 09, Revision E.01,
 Gaussian 09:  ES64L-G09RevE.01 30-Nov-2015

 ----------------------------------------------------------------------
 #rhf/gen scf(symm,tight,novaracc,noincfock,fulldiag) stable(crhf) gues
 s=read geom=nocrowd test
 ----------------------------------------------------------------------

 ----------------------------------------------------------------------
 hf stability analysis of h12 triangular lattice, y= 1.3135898396745678
 ----------------------------------------------------------------------
 Symbolic Z-matrix:
 Charge =  0 Multiplicity = 1

                         Standard orientation:
 ---------------------------------------------------------------------
 Center     Atomic      Atomic             Coordinates (Angstroms)
 Number     Number       Type             X           Y           Z
 ---------------------------------------------------------------------
      1          1           0        0.833616    3.184002    0.000000
      2          1           0        0.000000    2.077756    0.000000
      3          1           0        0.833616    1.798831    0.000000
      4          1           0        0.000000    0.692585    0.000000
      5          1           0       -0.833616    0.971509   -0.000000
      6          1           0       -0.833616   -0.413661   -0.000000
      7          1           0       -0.833616   -1.798831    0.000000
      8          1           0       -0.000000   -0.692585    0.000000
      9          1           0        0.833616    0.413661   -0.000000
     10          1           0        0.833616   -0.971509    0.000000
     11          1           0       -0.000000   -2.077756    0.000000
     12          1           0       -0.833616   -3.184002    0.000000
 ---------------------------------------------------------------------

 SCF Done:  E(RHF) =  -5.37259708777     A.U. after   14 cycles
 E2 =    -0.6609722639D+00 EUMP2 =    -0.60335693516567D+01

 The electronic state is 1-AG.
 Alpha  occ. eigenvalues --   -0.93428  -0.77390  -0.57836  -0.51853  -0.28704
 Alpha  occ. eigenvalues --   -0.13277
 Alpha virt. eigenvalues --   -0.22517   0.02607   0.32086   0.37497   0.49084
 Alpha virt. eigenvalues --    0.66668

 Mulliken charges:
               1
     1  H   -0.059729
     2  H    0.119713
     3  H   -0.087748
     4  H    0.025282
     5  H   -0.173687
     6  H    0.176170
     7  H   -0.087748
     8  H    0.025282
     9  H    0.176170
    10  H   -0.173687
    11  H    0.119713
    12  H   -0.059729
 Sum of Mulliken charges =  -0.00000

 Dipole moment (field-independent basis, Debye):
    X=              0.0000    Y=              0.0000    Z=             -0.0000  Tot=              0.0000
 Quadrupole moment (field-independent basis, Debye-Ang):
   XX=            -18.8104   YY=            -24.0339   ZZ=            -15.1162
   XY=             -1.0758   XZ=             -0.0000   YZ=              0.0000

 Normal termination of Gaussian 09 at Fri Feb 17 15:07:42 2017.
