 Gaussian 09, Revision E.01,
 Gaussian 09:  ES64L-G09RevE.01 30-Nov-2015

 ----------------------------------------------------------------------
 #rhf/gen scf(symm,tight,novaracc,noincfock,fulldiag) stable(crhf) gues
 s=read geom=nocrowd test
 ----------------------------------------------------------------------

 hf stability analysis of h12 triangular lattice, y= 0.9428899751596989
 7
 ----------------------------------------------------------------------
 Symbolic Z-matrix:
 Charge =  0 Multiplicity = 1

                         Standard orientation:
 ---------------------------------------------------------------------
 Center     Atomic      Atomic             Coordinates (Angstroms)
 Number     Number       Type             X           Y           Z
 ---------------------------------------------------------------------
      1          1           0        1.027069    2.143682   -0.000000
      2          1           0        0.000000    1.686401   -0.000000
      3          1           0        1.027069    1.019414   -0.000000
      4          1           0        0.000000    0.562134   -0.000000
      5          1           0       -1.027069    1.229120   -0.000000
      6          1           0       -1.027069    0.104853   -0.000000
      7          1           0       -1.027069   -1.019414   -0.000000
      8          1           0       -0.000000   -0.562134   -0.000000
      9          1           0        1.027069   -0.104853   -0.000000
     10          1           0        1.027069   -1.229120   -0.000000
     11          1           0       -0.000000   -1.686401   -0.000000
     12          1           0       -1.027069   -2.143682   -0.000000
 ---------------------------------------------------------------------

 SCF Done:  E(RHF) =  -5.68355943389     A.U. after   11 cycles
 E2 =    -0.1469728195D+00 EUMP2 =    -0.58305322534028D+01

 The electronic state is 1-AG.
 Alpha  occ. eigenvalues --   -0.91100  -0.75604  -0.60568  -0.52763  -0.35778
 Alpha  occ. eigenvalues --   -0.18036
 Alpha virt. eigenvalues --   -0.05274   0.20731   0.29670   0.36146   0.64982
 Alpha virt. eigenvalues --    0.71571

 Mulliken charges:
               1
     1  H    0.230367
     2  H   -0.059785
     3  H   -0.022475
     4  H   -0.040166
     5  H   -0.111765
     6  H    0.003823
     7  H   -0.022475
     8  H   -0.040166
     9  H    0.003823
    10  H   -0.111765
    11  H   -0.059785
    12  H    0.230367
 Sum of Mulliken charges =   0.00000

 Dipole moment (field-independent basis, Debye):
    X=             -0.0000    Y=             -0.0000    Z=             -0.0000  Tot=              0.0000
 Quadrupole moment (field-independent basis, Debye-Ang):
   XX=            -20.0456   YY=             -9.4426   ZZ=            -15.1891
   XY=              7.1969   XZ=              0.0000   YZ=              0.0000

 Normal termination of Gaussian 09 at Fri Feb 17 11:36:55 2017.
