 Gaussian 09, Revision E.01,
 Gaussian 09:  ES64L-G09RevE.01 30-Nov-2015

 ----------------------------------------------------------------------
 #rhf/gen scf(symm,tight,novaracc,noincfock,fulldiag) stable(crhf) gues
 s=read geom=nocrowd test
 ----------------------------------------------------------------------

 ----------------------------------------------------------------------
 hf stability analysis of h12 triangular lattice, y= 1.0153487862282633
 ----------------------------------------------------------------------
 Symbolic Z-matrix:
 Charge =  0 Multiplicity = 1

                         Standard orientation:
 ---------------------------------------------------------------------
 Center     Atomic      Atomic             Coordinates (Angstroms)
 Number     Number       Type             X           Y           Z
 ---------------------------------------------------------------------
      1          1           0        0.992242    2.353640    0.000000
      2          1           0        0.000000    1.745593    0.000000
      3          1           0        0.992242    1.189911    0.000000
      4          1           0        0.000000    0.581864    0.000000
      5          1           0       -0.992242    1.137547    0.000000
      6          1           0       -0.992242   -0.026182    0.000000
      7          1           0       -0.992242   -1.189911    0.000000
      8          1           0       -0.000000   -0.581864    0.000000
      9          1           0        0.992242    0.026182    0.000000
     10          1           0        0.992242   -1.137547    0.000000
     11          1           0       -0.000000   -1.745593    0.000000
     12          1           0       -0.992242   -2.353640    0.000000
 ---------------------------------------------------------------------

 SCF Done:  E(RHF) =  -5.53452582658     A.U. after   12 cycles
 E2 =    -0.1677016679D+00 EUMP2 =    -0.57022274944978D+01

 The electronic state is 1-AG.
 Alpha  occ. eigenvalues --   -0.89320  -0.75273  -0.56716  -0.54227  -0.32010
 Alpha  occ. eigenvalues --   -0.11375
 Alpha virt. eigenvalues --   -0.09370   0.21433   0.22242   0.43889   0.57111
 Alpha virt. eigenvalues --    0.63622

 Mulliken charges:
               1
     1  H    0.275181
     2  H   -0.067079
     3  H   -0.010558
     4  H   -0.021830
     5  H   -0.174502
     6  H   -0.001212
     7  H   -0.010558
     8  H   -0.021830
     9  H   -0.001212
    10  H   -0.174502
    11  H   -0.067079
    12  H    0.275181
 Sum of Mulliken charges =  -0.00000

 Dipole moment (field-independent basis, Debye):
    X=              0.0000    Y=             -0.0000    Z=              0.0000  Tot=              0.0000
 Quadrupole moment (field-independent basis, Debye-Ang):
   XX=            -20.5069   YY=             -5.2152   ZZ=            -15.1773
   XY=              9.3911   XZ=             -0.0000   YZ=             -0.0000

 Normal termination of Gaussian 09 at Fri Feb 17 15:05:29 2017.
