 Gaussian 09, Revision E.01,
 Gaussian 09:  ES64L-G09RevE.01 30-Nov-2015

 ----------------------------------------------------------------------
 #rhf/gen scf(symm,tight,novaracc,noincfock,fulldiag) stable(crhf) gues
 s=read geom=nocrowd test
 ----------------------------------------------------------------------

 hf stability analysis of h12 triangular lattice, y= 0.4201353311163031
 9
 ----------------------------------------------------------------------
 Symbolic Z-matrix:
 Charge =  0 Multiplicity = 1

                         Standard orientation:
 ---------------------------------------------------------------------
 Center     Atomic      Atomic             Coordinates (Angstroms)
 Number     Number       Type             X           Y           Z
 ---------------------------------------------------------------------
      1          1           0        0.803555    0.964167   -0.000000
      2          1           0       -0.000000    2.155486   -0.000000
      3          1           0        0.803555   -0.472824   -0.000000
      4          1           0       -0.000000    0.718495   -0.000000
      5          1           0       -0.803555    3.346805   -0.000000
      6          1           0       -0.803555    1.909814   -0.000000
      7          1           0       -0.803555    0.472824    0.000000
      8          1           0       -0.000000   -0.718495   -0.000000
      9          1           0        0.803555   -1.909814   -0.000000
     10          1           0        0.803555   -3.346805   -0.000000
     11          1           0       -0.000000   -2.155486   -0.000000
     12          1           0       -0.803555   -0.964167    0.000000
 ---------------------------------------------------------------------

 SCF Done:  E(RHF) =  -5.36225407365     A.U. after   17 cycles
 E2 =    -0.1369049094D+01 EUMP2 =    -0.67313031673102D+01

 The electronic state is 1-AG.
 Alpha  occ. eigenvalues --   -0.92287  -0.77975  -0.59730  -0.50918  -0.27822
 Alpha  occ. eigenvalues --   -0.12133
 Alpha virt. eigenvalues --   -0.22719  -0.00390   0.36044   0.41893   0.51006
 Alpha virt. eigenvalues --    0.71688

 Mulliken charges:
               1
     1  H   -0.104383
     2  H    0.125400
     3  H    0.339884
     4  H   -0.143796
     5  H   -0.128966
     6  H   -0.088140
     7  H    0.339884
     8  H   -0.143796
     9  H   -0.088140
    10  H   -0.128966
    11  H    0.125400
    12  H   -0.104383
 Sum of Mulliken charges =  -0.00000

 Dipole moment (field-independent basis, Debye):
    X=             -0.0000    Y=             -0.0000    Z=              0.0000  Tot=              0.0000
 Quadrupole moment (field-independent basis, Debye-Ang):
   XX=            -15.9796   YY=            -33.5157   ZZ=            -14.9065
   XY=              3.5489   XZ=              0.0000   YZ=             -0.0000

 Normal termination of Gaussian 09 at Fri Feb 17 14:56:18 2017.
