 Gaussian 09, Revision E.01,
 Gaussian 09:  ES64L-G09RevE.01 30-Nov-2015

 ----------------------------------------------------------------------
 #rhf/gen scf(symm,tight,novaracc,noincfock,fulldiag) stable(crhf) gues
 s=read geom=nocrowd test
 ----------------------------------------------------------------------

 hf stability analysis of h12 triangular lattice, y= 0.8042800232144692
 3
 ----------------------------------------------------------------------
 Symbolic Z-matrix:
 Charge =  0 Multiplicity = 1

                         Standard orientation:
 ---------------------------------------------------------------------
 Center     Atomic      Atomic             Coordinates (Angstroms)
 Number     Number       Type             X           Y           Z
 ---------------------------------------------------------------------
      1          1           0        1.071111    1.739098   -0.000000
      2          1           0        0.000000    1.617061   -0.000000
      3          1           0        1.071111    0.661058   -0.000000
      4          1           0        0.000000    0.539020   -0.000000
      5          1           0       -1.071111    1.495023   -0.000000
      6          1           0       -1.071111    0.416983   -0.000000
      7          1           0       -1.071111   -0.661058   -0.000000
      8          1           0       -0.000000   -0.539020   -0.000000
      9          1           0        1.071111   -0.416983   -0.000000
     10          1           0        1.071111   -1.495023   -0.000000
     11          1           0       -0.000000   -1.617061   -0.000000
     12          1           0       -1.071111   -1.739098   -0.000000
 ---------------------------------------------------------------------

 SCF Done:  E(RHF) =  -5.84646499969     A.U. after    8 cycles
 E2 =    -0.1384040107D+00 EUMP2 =    -0.59848690103441D+01

 The electronic state is 1-AG.
 Alpha  occ. eigenvalues --   -0.93590  -0.75526  -0.66049  -0.47896  -0.43089
 Alpha  occ. eigenvalues --   -0.26456
 Alpha virt. eigenvalues --    0.04576   0.18705   0.20669   0.48509   0.59845
 Alpha virt. eigenvalues --    0.98189

 Mulliken charges:
               1
     1  H    0.112831
     2  H   -0.057723
     3  H   -0.016801
     4  H   -0.052239
     5  H    0.020690
     6  H   -0.006758
     7  H   -0.016801
     8  H   -0.052239
     9  H   -0.006758
    10  H    0.020690
    11  H   -0.057723
    12  H    0.112831
 Sum of Mulliken charges =  -0.00000

 Dipole moment (field-independent basis, Debye):
    X=             -0.0000    Y=             -0.0000    Z=             -0.0000  Tot=              0.0000
 Quadrupole moment (field-independent basis, Debye-Ang):
   XX=            -19.3973   YY=            -14.6874   ZZ=            -15.1967
   XY=              1.9618   XZ=             -0.0000   YZ=              0.0000

 Normal termination of Gaussian 09 at Fri Feb 17 15:02:51 2017.
