 Gaussian 09, Revision E.01,
 Gaussian 09:  ES64L-G09RevE.01 30-Nov-2015

 ----------------------------------------------------------------------
 #rhf/gen scf(symm,tight,novaracc,noincfock,fulldiag) stable(crhf) gues
 s=read geom=nocrowd test
 ----------------------------------------------------------------------

 hf stability analysis of h12 triangular lattice, y= 0.7434330289905593
 0
 ----------------------------------------------------------------------
 Symbolic Z-matrix:
 Charge =  0 Multiplicity = 1

                         Standard orientation:
 ---------------------------------------------------------------------
 Center     Atomic      Atomic             Coordinates (Angstroms)
 Number     Number       Type             X           Y           Z
 ---------------------------------------------------------------------
      1          1           0        1.074058    1.565728   -0.000000
      2          1           0        0.000000    1.612623   -0.000000
      3          1           0        1.074058    0.490646   -0.000000
      4          1           0        0.000000    0.537541   -0.000000
      5          1           0       -1.074058    1.659517   -0.000000
      6          1           0       -1.074058    0.584435    0.000000
      7          1           0       -1.074058   -0.490646    0.000000
      8          1           0       -0.000000   -0.537541    0.000000
      9          1           0        1.074058   -0.584435    0.000000
     10          1           0        1.074058   -1.659517    0.000000
     11          1           0       -0.000000   -1.612623    0.000000
     12          1           0       -1.074058   -1.565728    0.000000
 ---------------------------------------------------------------------

 SCF Done:  E(RHF) =  -5.85633601131     A.U. after    8 cycles
 E2 =    -0.1379413031D+00 EUMP2 =    -0.59942773144194D+01

 The electronic state is 1-AG.
 Alpha  occ. eigenvalues --   -0.93758  -0.75473  -0.66462  -0.46582  -0.44555
 Alpha  occ. eigenvalues --   -0.27013
 Alpha virt. eigenvalues --    0.06056   0.18438   0.18938   0.52087   0.57246
 Alpha virt. eigenvalues --    1.00464

 Mulliken charges:
               1
     1  H    0.049482
     2  H   -0.057663
     3  H   -0.009913
     4  H   -0.052979
     5  H    0.084916
     6  H   -0.013843
     7  H   -0.009913
     8  H   -0.052979
     9  H   -0.013843
    10  H    0.084916
    11  H   -0.057663
    12  H    0.049482
 Sum of Mulliken charges =   0.00000

 Dipole moment (field-independent basis, Debye):
    X=             -0.0000    Y=             -0.0000    Z=              0.0000  Tot=              0.0000
 Quadrupole moment (field-independent basis, Debye-Ang):
   XX=            -19.3518   YY=            -15.0254   ZZ=            -15.1971
   XY=             -0.7550   XZ=              0.0000   YZ=              0.0000

 Normal termination of Gaussian 09 at Fri Feb 17 15:01:54 2017.
