 Gaussian 09, Revision E.01,
 Gaussian 09:  ES64L-G09RevE.01 30-Nov-2015

 ----------------------------------------------------------------------
 #rhf/gen scf(symm,tight,novaracc,noincfock,fulldiag) stable(crhf) gues
 s=read geom=nocrowd test
 ----------------------------------------------------------------------

 ----------------------------------------------------------------------
 hf stability analysis of h12 triangular lattice, y= 1.9954740303864316
 ----------------------------------------------------------------------
 Symbolic Z-matrix:
 Charge =  0 Multiplicity = 1

                         Standard orientation:
 ---------------------------------------------------------------------
 Center     Atomic      Atomic             Coordinates (Angstroms)
 Number     Number       Type             X           Y           Z
 ---------------------------------------------------------------------
      1          1           0        0.572672    4.957817   -0.000000
      2          1           0        0.000000    3.024511   -0.000000
      3          1           0        0.572672    2.941477   -0.000000
      4          1           0        0.000000    1.008170   -0.000000
      5          1           0       -0.572672    1.091204   -0.000000
      6          1           0       -0.572672   -0.925137    0.000000
      7          1           0       -0.572672   -2.941477   -0.000000
      8          1           0       -0.000000   -1.008170   -0.000000
      9          1           0        0.572672    0.925137    0.000000
     10          1           0        0.572672   -1.091204    0.000000
     11          1           0       -0.000000   -3.024511   -0.000000
     12          1           0       -0.572672   -4.957817   -0.000000
 ---------------------------------------------------------------------

 SCF Done:  E(RHF) =  -5.05749315364     A.U. after   10 cycles
 E2 =    -0.9200382856D+00 EUMP2 =    -0.59775314392103D+01

 The electronic state is 1-AG.
 Alpha  occ. eigenvalues --   -0.87822  -0.84276  -0.68103  -0.67705  -0.19729
 Alpha  occ. eigenvalues --   -0.17189
 Alpha virt. eigenvalues --   -0.14381  -0.04552   0.55092   0.55595   1.13164
 Alpha virt. eigenvalues --    1.27239

 Mulliken charges:
               1
     1  H   -0.003720
     2  H   -0.003181
     3  H   -0.010034
     4  H   -0.388927
     5  H    0.193757
     6  H    0.212106
     7  H   -0.010034
     8  H   -0.388927
     9  H    0.212106
    10  H    0.193757
    11  H   -0.003181
    12  H   -0.003720
 Sum of Mulliken charges =  -0.00000

 Dipole moment (field-independent basis, Debye):
    X=             -0.0000    Y=              0.0000    Z=              0.0000  Tot=              0.0000
 Quadrupole moment (field-independent basis, Debye-Ang):
   XX=            -15.1942   YY=            -21.5271   ZZ=            -15.1142
   XY=             -0.3213   XZ=              0.0000   YZ=              0.0000

 Normal termination of Gaussian 09 at Fri Feb 17 15:09:40 2017.
