 Gaussian 09, Revision E.01,
 Gaussian 09:  ES64L-G09RevE.01 30-Nov-2015

 -----------------------
 # UMP4/sto-3g scan test
 -----------------------

 P4 model PES scan over varying intermolecular H2 distances in the 3-21
 g basis
 ----------------------------------------------------------------------
 Symbolic Z-matrix:
 Charge =  0 Multiplicity = 1

 SCF Done:  E(UHF) =  -1.91894923359     A.U. after    8 cycles
 E2 =    -0.5033038211D-01 EUMP2 =    -0.19692796157037D+01

 The electronic state is 1-A'.
 Alpha  occ. eigenvalues --   -0.64740  -0.25600
 Alpha virt. eigenvalues --    0.25425   0.66423
  Beta  occ. eigenvalues --   -0.64740  -0.25600
  Beta virt. eigenvalues --    0.25425   0.66423

 Mulliken charges and spin densities:
               1          2
     1  H    0.123138   0.000000
     2  H   -0.014719   0.000000
     3  H   -0.177497   0.000000
     4  H    0.069078   0.000000
 Sum of Mulliken charges =   0.00000   0.00000

 Dipole moment (field-independent basis, Debye):
    X=             -0.9954    Y=             -0.3781    Z=              0.0000  Tot=              1.0648
 Quadrupole moment (field-independent basis, Debye-Ang):
   XX=             -4.5191   YY=             -2.9270   ZZ=             -3.6073
   XY=             -0.9878   XZ=              0.0000   YZ=              0.0000

 SCF Done:  E(UHF) =  -1.90928157354     A.U. after    7 cycles
 E2 =    -0.5405853430D-01 EUMP2 =    -0.19633401078415D+01
 SCF Done:  E(UHF) =  -1.89624947819     A.U. after    7 cycles
 E2 =    -0.5815564407D-01 EUMP2 =    -0.19544051222624D+01
 SCF Done:  E(UHF) =  -1.88043628455     A.U. after    7 cycles
 E2 =    -0.6265584108D-01 EUMP2 =    -0.19430921256304D+01
 SCF Done:  E(UHF) =  -1.86234284237     A.U. after    7 cycles
 E2 =    -0.6759026820D-01 EUMP2 =    -0.19299331105770D+01
 SCF Done:  E(UHF) =  -1.84240989692     A.U. after    7 cycles
 E2 =    -0.7298615685D-01 EUMP2 =    -0.19153960537691D+01
 SCF Done:  E(UHF) =  -1.82103256322     A.U. after    7 cycles
 E2 =    -0.7886529365D-01 EUMP2 =    -0.18998978568765D+01
 SCF Done:  E(UHF) =  -1.79856967212     A.U. after    7 cycles
 E2 =    -0.8524150761D-01 EUMP2 =    -0.18838111797387D+01
 SCF Done:  E(UHF) =  -1.77534993422     A.U. after    7 cycles
 E2 =    -0.9211670754D-01 EUMP2 =    -0.18674666417593D+01
 SCF Done:  E(UHF) =  -1.75167622728     A.U. after    7 cycles
 E2 =    -0.9947491577D-01 EUMP2 =    -0.18511511430507D+01
 E2 =    -0.1072737421D+00 EUMP2 =    -0.18351025906117D+01
 E2 =    -0.1154329762D+00 EUMP2 =    -0.18195012155334D+01
 E2 =    -0.1238206837D+00 EUMP2 =    -0.18044581353055D+01
 E2 =    -0.1322384893D+00 EUMP2 =    -0.17900029898041D+01
 E2 =    -0.1404091870D+00 EUMP2 =    -0.17760739851624D+01
 E2 =    -0.1479704848D+00 EUMP2 =    -0.17625146423618D+01
 E2 =    -0.1544808243D+00 EUMP2 =    -0.17490839261902D+01
 E2 =    -0.1594592957D+00 EUMP2 =    -0.17355016849815D+01
 E2 =    -0.1625229457D+00 EUMP2 =    -0.17215893577915D+01
 E2 =    -0.1636966204D+00 EUMP2 =    -0.17075731061710D+01
 E2 =    -0.3455547853D+00 EUMP2 =    -0.18400169923196D+01
 E2 =    -0.3507683254D+00 EUMP2 =    -0.18455437332418D+01
 E2 =    -0.3559528578D+00 EUMP2 =    -0.18509669229719D+01
 E2 =    -0.3611344519D+00 EUMP2 =    -0.18563141160339D+01
 E2 =    -0.3663334275D+00 EUMP2 =    -0.18616081207303D+01
 E2 =    -0.3715654781D+00 EUMP2 =    -0.18668678457748D+01
 E2 =    -0.3768424665D+00 EUMP2 =    -0.18721088753646D+01
 E2 =    -0.3821732380D+00 EUMP2 =    -0.18773441067166D+01
 E2 =    -0.3875641616D+00 EUMP2 =    -0.18825841504462D+01
 E2 =    -0.3930196234D+00 EUMP2 =    -0.18878377142109D+01
 SCF Done:  E(UHF) =  -1.49456948882     A.U. after    6 cycles
 E2 =    -0.3985424161D+00 EUMP2 =    -0.18931119049442D+01
 SCF Done:  E(UHF) =  -1.49427842266     A.U. after    6 cycles
 E2 =    -0.4041340588D+00 EUMP2 =    -0.18984124814467D+01
 SCF Done:  E(UHF) =  -1.49394900692     A.U. after    6 cycles
 E2 =    -0.4097950568D+00 EUMP2 =    -0.19037440637516D+01
 SCF Done:  E(UHF) =  -1.49358519312     A.U. after    6 cycles
 E2 =    -0.4155251147D+00 EUMP2 =    -0.19091103078648D+01
 SCF Done:  E(UHF) =  -1.49319074284     A.U. after    6 cycles
 E2 =    -0.4213233095D+00 EUMP2 =    -0.19145140523753D+01
 SCF Done:  E(UHF) =  -1.49276920971     A.U. after    6 cycles
 E2 =    -0.4271882324D+00 EUMP2 =    -0.19199574421192D+01
 SCF Done:  E(UHF) =  -1.49232392854     A.U. after    6 cycles
 E2 =    -0.4331181045D+00 EUMP2 =    -0.19254420330354D+01
 SCF Done:  E(UHF) =  -1.49185801032     A.U. after    5 cycles
 E2 =    -0.4391108772D+00 EUMP2 =    -0.19309688874898D+01
 SCF Done:  E(UHF) =  -1.49137434168     A.U. after    5 cycles
 E2 =    -0.4451642907D+00 EUMP2 =    -0.19365386323757D+01

                         Standard orientation:
 ---------------------------------------------------------------------
 Center     Atomic      Atomic             Coordinates (Angstroms)
 Number     Number       Type             X           Y           Z
 ---------------------------------------------------------------------
      1          1           0       -1.592060   -1.850769    0.000000
      2          1           0       -1.194045    2.129380   -0.000000
      3          1           0       -0.000000   -2.009975    0.000000
      4          1           0        2.786104    1.731365   -0.000000
 ---------------------------------------------------------------------

 SCF Done:  E(UHF) =  -1.49087558805     A.U. after    6 cycles
 E2 =    -0.4512759385D+00 EUMP2 =    -0.19421515265012D+01
 Normal termination of Gaussian 09 at Fri Dec  2 16:57:46 2016.
