 Gaussian 09, Revision E.01,
 Gaussian 09:  ES64L-G09RevE.01 30-Nov-2015

 ----------------------------------------------------------------------
 #rhf/gen scf(symm,tight,novaracc,noincfock,fulldiag) stable(crhf) geom
 =nocrowd test
 ----------------------------------------------------------------------

 hf stability analysis of h10 triangular lattice, y= 0.8833142989544126
 0
 ----------------------------------------------------------------------
 Symbolic Z-matrix:
 Charge =  0 Multiplicity = 1

                         Standard orientation:
 ---------------------------------------------------------------------
 Center     Atomic      Atomic             Coordinates (Angstroms)
 Number     Number       Type             X           Y           Z
 ---------------------------------------------------------------------
      1          1           0        1.766629    0.653618    0.000000
      2          1           0        0.883314    1.307236    0.000000
      3          1           0        0.883314    0.000000    0.000000
      4          1           0        0.000000    0.653618   -0.000000
      5          1           0       -0.000000   -0.653618    0.000000
      6          1           0       -0.883314    0.000000    0.000000
      7          1           0       -0.883314   -1.307236    0.000000
      8          1           0       -1.766629   -0.653618    0.000000
 ---------------------------------------------------------------------

 SCF Done:  E(RHF) =  -3.97582988795     A.U. after   10 cycles
 E2 =    -0.8032984538D-01 EUMP2 =    -0.40561597333319D+01

 The electronic state is 1-AG.
 Alpha  occ. eigenvalues --   -0.84493  -0.66662  -0.40122  -0.38891
 Alpha virt. eigenvalues --    0.05374   0.21059   0.41433   0.72320

 Mulliken charges:
               1
     1  H   -0.041315
     2  H    0.096178
     3  H    0.099261
     4  H   -0.154123
     5  H   -0.154123
     6  H    0.099261
     7  H    0.096178
     8  H   -0.041315
 Sum of Mulliken charges =   0.00000

 Dipole moment (field-independent basis, Debye):
    X=             -0.0000    Y=              0.0000    Z=              0.0000  Tot=              0.0000
 Quadrupole moment (field-independent basis, Debye-Ang):
   XX=            -11.7841   YY=            -11.1313   ZZ=            -10.4779
   XY=              0.5712   XZ=             -0.0000   YZ=              0.0000

 Normal termination of Gaussian 09 at Thu Feb  9 15:35:10 2017.
