 Gaussian 09, Revision E.01,
 Gaussian 09:  ES64L-G09RevE.01 30-Nov-2015

 ----------------------------------------------------------------------
 #rhf/gen scf(symm,tight,novaracc,noincfock,fulldiag) stable(crhf) geom
 =nocrowd test
 ----------------------------------------------------------------------

 hf stability analysis of h10 triangular lattice, y= 0.9501460469779395
 8
 ----------------------------------------------------------------------
 Symbolic Z-matrix:
 Charge =  0 Multiplicity = 1

                         Standard orientation:
 ---------------------------------------------------------------------
 Center     Atomic      Atomic             Coordinates (Angstroms)
 Number     Number       Type             X           Y           Z
 ---------------------------------------------------------------------
      1          1           0        1.900292    0.607644    0.000000
      2          1           0        0.950146    1.215287    0.000000
      3          1           0        0.950146    0.000000    0.000000
      4          1           0        0.000000    0.607644   -0.000000
      5          1           0       -0.000000   -0.607644   -0.000000
      6          1           0       -0.950146    0.000000    0.000000
      7          1           0       -0.950146   -1.215287    0.000000
      8          1           0       -1.900292   -0.607644    0.000000
 ---------------------------------------------------------------------

 SCF Done:  E(RHF) =  -3.96639083445     A.U. after   10 cycles
 E2 =    -0.7986379066D-01 EUMP2 =    -0.40462546251144D+01

 The electronic state is 1-AG.
 Alpha  occ. eigenvalues --   -0.83554  -0.66745  -0.40573  -0.36276
 Alpha virt. eigenvalues --    0.07124   0.16940   0.44684   0.61603

 Mulliken charges:
               1
     1  H   -0.040451
     2  H    0.105682
     3  H    0.129135
     4  H   -0.194366
     5  H   -0.194366
     6  H    0.129135
     7  H    0.105682
     8  H   -0.040451
 Sum of Mulliken charges =   0.00000

 Dipole moment (field-independent basis, Debye):
    X=             -0.0000    Y=              0.0000    Z=              0.0000  Tot=              0.0000
 Quadrupole moment (field-independent basis, Debye-Ang):
   XX=            -11.2398   YY=            -11.2820   ZZ=            -10.5161
   XY=              0.9372   XZ=              0.0000   YZ=             -0.0000

 Normal termination of Gaussian 09 at Thu Feb  9 15:38:29 2017.
