 Gaussian 09, Revision E.01,
 Gaussian 09:  ES64L-G09RevE.01 30-Nov-2015

 ----------------------------------------------------------------------
 #rhf/gen scf(symm,tight,novaracc,noincfock,fulldiag) stable(crhf) geom
 =nocrowd test
 ----------------------------------------------------------------------

 ----------------------------------------------------------------------
 hf stability analysis of h10 triangular lattice, y= 1.9713798731855150
 ----------------------------------------------------------------------
 Symbolic Z-matrix:
 Charge =  0 Multiplicity = 1

                         Standard orientation:
 ---------------------------------------------------------------------
 Center     Atomic      Atomic             Coordinates (Angstroms)
 Number     Number       Type             X           Y           Z
 ---------------------------------------------------------------------
      1          1           0        3.942760    0.292866   -0.000000
      2          1           0        1.971380    0.585732   -0.000000
      3          1           0        1.971380    0.000000   -0.000000
      4          1           0       -0.000000    0.292866    0.000000
      5          1           0       -0.000000   -0.292866    0.000000
      6          1           0       -1.971380    0.000000   -0.000000
      7          1           0       -1.971380   -0.585732   -0.000000
      8          1           0       -3.942760   -0.292866   -0.000000
 ---------------------------------------------------------------------

 SCF Done:  E(RHF) =  -3.79673581495     A.U. after    6 cycles
 E2 =    -0.5925438059D+00 EUMP2 =    -0.43892796208644D+01

 The electronic state is 1-AG.
 Alpha  occ. eigenvalues --   -0.73173  -0.68887  -0.63266  -0.20560
 Alpha virt. eigenvalues --   -0.13631   0.42013   0.52709   0.65836

 Mulliken charges:
               1
     1  H   -0.007429
     2  H    0.003817
     3  H    0.002346
     4  H    0.001266
     5  H    0.001266
     6  H    0.002346
     7  H    0.003817
     8  H   -0.007429
 Sum of Mulliken charges =  -0.00000

 Dipole moment (field-independent basis, Debye):
    X=              0.0000    Y=             -0.0000    Z=              0.0000  Tot=              0.0000
 Quadrupole moment (field-independent basis, Debye-Ang):
   XX=            -13.9857   YY=             -9.7712   ZZ=            -10.6376
   XY=             -0.2712   XZ=             -0.0000   YZ=              0.0000

 Normal termination of Gaussian 09 at Thu Feb  9 15:58:52 2017.
