 Gaussian 09, Revision E.01,
 Gaussian 09:  ES64L-G09RevE.01 30-Nov-2015

 ----------------------------------------------------------------------
 #rhf/gen scf(symm,tight,novaracc,noincfock,fulldiag) stable(crhf) geom
 =nocrowd test
 ----------------------------------------------------------------------

 ----------------------------------------------------------------------
 hf stability analysis of h10 triangular lattice, y= 2.1303392641794385
 ----------------------------------------------------------------------
 Symbolic Z-matrix:
 Charge =  0 Multiplicity = 1

                         Standard orientation:
 ---------------------------------------------------------------------
 Center     Atomic      Atomic             Coordinates (Angstroms)
 Number     Number       Type             X           Y           Z
 ---------------------------------------------------------------------
      1          1           0        4.260679    0.271013    0.000000
      2          1           0        2.130339    0.542027    0.000000
      3          1           0        2.130339    0.000000    0.000000
      4          1           0        0.000000    0.271013    0.000000
      5          1           0       -0.000000   -0.271013    0.000000
      6          1           0       -2.130339    0.000000    0.000000
      7          1           0       -2.130339   -0.542027    0.000000
      8          1           0       -4.260679   -0.271013    0.000000
 ---------------------------------------------------------------------

 SCF Done:  E(RHF) =  -3.70652725735     A.U. after    6 cycles
 E2 =    -0.6631402114D+00 EUMP2 =    -0.43696674687145D+01

 The electronic state is 1-AG.
 Alpha  occ. eigenvalues --   -0.73093  -0.70006  -0.66177  -0.20905
 Alpha virt. eigenvalues --   -0.14617   0.47751   0.56861   0.67756

 Mulliken charges:
               1
     1  H   -0.001367
     2  H    0.001324
     3  H   -0.000302
     4  H    0.000346
     5  H    0.000346
     6  H   -0.000302
     7  H    0.001324
     8  H   -0.001367
 Sum of Mulliken charges =   0.00000

 Dipole moment (field-independent basis, Debye):
    X=              0.0000    Y=             -0.0000    Z=             -0.0000  Tot=              0.0000
 Quadrupole moment (field-independent basis, Debye-Ang):
   XX=            -12.8895   YY=             -9.9409   ZZ=            -10.7021
   XY=             -0.1548   XZ=             -0.0000   YZ=              0.0000

 Normal termination of Gaussian 09 at Thu Feb  9 15:59:52 2017.
