 Gaussian 09, Revision E.01,
 Gaussian 09:  ES64L-G09RevE.01 30-Nov-2015

 ----------------------------------------------------------------------
 #rhf/gen scf(symm,tight,novaracc,noincfock,fulldiag) stable(crhf) geom
 =nocrowd test
 ----------------------------------------------------------------------

 ----------------------------------------------------------------------
 hf stability analysis of h10 triangular lattice, y= 1.1307914106018655
 ----------------------------------------------------------------------
 Symbolic Z-matrix:
 Charge =  0 Multiplicity = 1

                         Standard orientation:
 ---------------------------------------------------------------------
 Center     Atomic      Atomic             Coordinates (Angstroms)
 Number     Number       Type             X           Y           Z
 ---------------------------------------------------------------------
      1          1           0        2.261583    0.510572   -0.000000
      2          1           0        1.130791    1.021144    0.000000
      3          1           0        1.130791   -0.000000   -0.000000
      4          1           0        0.000000    0.510572    0.000000
      5          1           0       -0.000000   -0.510572    0.000000
      6          1           0       -1.130791    0.000000   -0.000000
      7          1           0       -1.130791   -1.021144    0.000000
      8          1           0       -2.261583   -0.510572   -0.000000
 ---------------------------------------------------------------------

 SCF Done:  E(RHF) =  -3.88437716740     A.U. after   10 cycles
 E2 =    -0.8900763663D-01 EUMP2 =    -0.39733848040352D+01

 The electronic state is 1-AG.
 Alpha  occ. eigenvalues --   -0.80321  -0.66523  -0.41822  -0.26822
 Alpha virt. eigenvalues --    0.07976   0.12317   0.35986   0.51622

 Mulliken charges:
               1
     1  H   -0.007997
     2  H    0.056443
     3  H    0.174191
     4  H   -0.222637
     5  H   -0.222637
     6  H    0.174191
     7  H    0.056443
     8  H   -0.007997
 Sum of Mulliken charges =  -0.00000

 Dipole moment (field-independent basis, Debye):
    X=             -0.0000    Y=              0.0000    Z=             -0.0000  Tot=              0.0000
 Quadrupole moment (field-independent basis, Debye-Ang):
   XX=             -9.0428   YY=            -12.0271   ZZ=            -10.5980
   XY=              1.1939   XZ=              0.0000   YZ=             -0.0000

 Normal termination of Gaussian 09 at Thu Feb  9 15:45:29 2017.
