 Gaussian 09, Revision E.01,
 Gaussian 09:  ES64L-G09RevE.01 30-Nov-2015

 ----------------------------------------------------------------------
 #rhf/gen scf(symm,tight,novaracc,noincfock,fulldiag) stable(crhf) geom
 =nocrowd test
 ----------------------------------------------------------------------

 ----------------------------------------------------------------------
 hf stability analysis of h10 triangular lattice, y= 1.8674825596677291
 ----------------------------------------------------------------------
 Symbolic Z-matrix:
 Charge =  0 Multiplicity = 1

                         Standard orientation:
 ---------------------------------------------------------------------
 Center     Atomic      Atomic             Coordinates (Angstroms)
 Number     Number       Type             X           Y           Z
 ---------------------------------------------------------------------
      1          1           0        3.734965    0.309160    0.000000
      2          1           0        1.867483    0.618319    0.000000
      3          1           0        1.867483    0.000000    0.000000
      4          1           0       -0.000000    0.309160   -0.000000
      5          1           0       -0.000000   -0.309160   -0.000000
      6          1           0       -1.867483    0.000000    0.000000
      7          1           0       -1.867483   -0.618319    0.000000
      8          1           0       -3.734965   -0.309160    0.000000
 ---------------------------------------------------------------------

 SCF Done:  E(RHF) =  -3.84108783593     A.U. after    7 cycles
 E2 =    -0.5379820716D+00 EUMP2 =    -0.43790699074917D+01

 The electronic state is 1-AG.
 Alpha  occ. eigenvalues --   -0.73508  -0.68250  -0.61125  -0.20160
 Alpha virt. eigenvalues --   -0.12660   0.37887   0.49711   0.64418

 Mulliken charges:
               1
     1  H   -0.016035
     2  H    0.007048
     3  H    0.006170
     4  H    0.002817
     5  H    0.002817
     6  H    0.006170
     7  H    0.007048
     8  H   -0.016035
 Sum of Mulliken charges =  -0.00000

 Dipole moment (field-independent basis, Debye):
    X=              0.0000    Y=              0.0000    Z=             -0.0000  Tot=              0.0000
 Quadrupole moment (field-independent basis, Debye-Ang):
   XX=            -15.0929   YY=             -9.6471   ZZ=            -10.5914
   XY=             -0.3996   XZ=             -0.0000   YZ=              0.0000

 Normal termination of Gaussian 09 at Thu Feb  9 15:58:05 2017.
