 Gaussian 09, Revision E.01,
 Gaussian 09:  ES64L-G09RevE.01 30-Nov-2015

 ----------------------------------------------------------------------
 #rhf/gen scf(symm,tight,novaracc,noincfock,fulldiag) stable(crhf) geom
 =nocrowd test
 ----------------------------------------------------------------------

 hf stability analysis of h10 triangular lattice, y= 0.8697759235828195
 2
 ----------------------------------------------------------------------
 Symbolic Z-matrix:
 Charge =  0 Multiplicity = 1

                         Standard orientation:
 ---------------------------------------------------------------------
 Center     Atomic      Atomic             Coordinates (Angstroms)
 Number     Number       Type             X           Y           Z
 ---------------------------------------------------------------------
      1          1           0        1.739552    0.663792    0.000000
      2          1           0        0.869776    1.327584    0.000000
      3          1           0        0.869776    0.000000    0.000000
      4          1           0        0.000000    0.663792    0.000000
      5          1           0       -0.000000   -0.663792    0.000000
      6          1           0       -0.869776    0.000000    0.000000
      7          1           0       -0.869776   -1.327584    0.000000
      8          1           0       -1.739552   -0.663792    0.000000
 ---------------------------------------------------------------------

 SCF Done:  E(RHF) =  -3.97664937957     A.U. after   10 cycles
 E2 =    -0.8063313795D-01 EUMP2 =    -0.40572825175275D+01

 The electronic state is 1-AG.
 Alpha  occ. eigenvalues --   -0.84642  -0.66634  -0.40039  -0.39318
 Alpha virt. eigenvalues --    0.05086   0.21887   0.40765   0.74337

 Mulliken charges:
               1
     1  H   -0.038755
     2  H    0.091368
     3  H    0.090523
     4  H   -0.143136
     5  H   -0.143136
     6  H    0.090523
     7  H    0.091368
     8  H   -0.038755
 Sum of Mulliken charges =   0.00000

 Dipole moment (field-independent basis, Debye):
    X=             -0.0000    Y=              0.0000    Z=              0.0000  Tot=              0.0000
 Quadrupole moment (field-independent basis, Debye-Ang):
   XX=            -11.8308   YY=            -11.1309   ZZ=            -10.4709
   XY=              0.4972   XZ=             -0.0000   YZ=              0.0000

 Normal termination of Gaussian 09 at Thu Feb  9 15:34:29 2017.
