 Gaussian 09, Revision E.01,
 Gaussian 09:  ES64L-G09RevE.01 30-Nov-2015

 ----------------------------------------------------------------------
 #rhf/gen scf(symm,tight,novaracc,noincfock,fulldiag) stable(crhf) geom
 =nocrowd test
 ----------------------------------------------------------------------

 ----------------------------------------------------------------------
 hf stability analysis of h10 triangular lattice, y= 2.4486760461856742
 ----------------------------------------------------------------------
 Symbolic Z-matrix:
 Charge =  0 Multiplicity = 1

                         Standard orientation:
 ---------------------------------------------------------------------
 Center     Atomic      Atomic             Coordinates (Angstroms)
 Number     Number       Type             X           Y           Z
 ---------------------------------------------------------------------
      1          1           0        4.897352    0.235781   -0.000000
      2          1           0        2.448676    0.471561   -0.000000
      3          1           0        2.448676   -0.000000   -0.000000
      4          1           0        0.000000    0.235781    0.000000
      5          1           0       -0.000000   -0.235781   -0.000000
      6          1           0       -2.448676    0.000000   -0.000000
      7          1           0       -2.448676   -0.471561   -0.000000
      8          1           0       -4.897352   -0.235781   -0.000000
 ---------------------------------------------------------------------

 SCF Done:  E(RHF) =  -3.46720557356     A.U. after    5 cycles
 E2 =    -0.7830435108D+00 EUMP2 =    -0.42502490843784D+01

 The electronic state is 1-AG.
 Alpha  occ. eigenvalues --   -0.73769  -0.72307  -0.70686  -0.21080
 Alpha virt. eigenvalues --   -0.15671   0.57710   0.64125   0.71415

 Mulliken charges:
               1
     1  H    0.001206
     2  H   -0.000095
     3  H   -0.001126
     4  H    0.000015
     5  H    0.000015
     6  H   -0.001126
     7  H   -0.000095
     8  H    0.001206
 Sum of Mulliken charges =  -0.00000

 Dipole moment (field-independent basis, Debye):
    X=             -0.0000    Y=              0.0000    Z=             -0.0000  Tot=              0.0000
 Quadrupole moment (field-independent basis, Debye-Ang):
   XX=            -11.7991   YY=            -10.2009   ZZ=            -10.7963
   XY=             -0.0552   XZ=             -0.0000   YZ=              0.0000

 Normal termination of Gaussian 09 at Thu Feb  9 16:01:12 2017.
