 Gaussian 09, Revision E.01,
 Gaussian 09:  ES64L-G09RevE.01 30-Nov-2015

 ----------------------------------------------------------------------
 #rhf/gen scf(symm,tight,novaracc,noincfock,fulldiag) stable(crhf) geom
 =nocrowd test
 ----------------------------------------------------------------------

 ----------------------------------------------------------------------
 hf stability analysis of h10 triangular lattice, y= 1.9833202813991822
 ----------------------------------------------------------------------
 Symbolic Z-matrix:
 Charge =  0 Multiplicity = 1

                         Standard orientation:
 ---------------------------------------------------------------------
 Center     Atomic      Atomic             Coordinates (Angstroms)
 Number     Number       Type             X           Y           Z
 ---------------------------------------------------------------------
      1          1           0        3.966641    0.291103   -0.000000
      2          1           0        1.983320    0.582206   -0.000000
      3          1           0        1.983320    0.000000   -0.000000
      4          1           0        0.000000    0.291103    0.000000
      5          1           0       -0.000000   -0.291103    0.000000
      6          1           0       -1.983320    0.000000   -0.000000
      7          1           0       -1.983320   -0.582206   -0.000000
      8          1           0       -3.966641   -0.291103   -0.000000
 ---------------------------------------------------------------------

 SCF Done:  E(RHF) =  -3.79083747836     A.U. after    6 cycles
 E2 =    -0.5983102149D+00 EUMP2 =    -0.43891476932524D+01

 The electronic state is 1-AG.
 Alpha  occ. eigenvalues --   -0.73151  -0.68967  -0.63500  -0.20595
 Alpha virt. eigenvalues --   -0.13723   0.42467   0.53038   0.65988

 Mulliken charges:
               1
     1  H   -0.006737
     2  H    0.003546
     3  H    0.002039
     4  H    0.001152
     5  H    0.001152
     6  H    0.002039
     7  H    0.003546
     8  H   -0.006737
 Sum of Mulliken charges =   0.00000

 Dipole moment (field-independent basis, Debye):
    X=             -0.0000    Y=             -0.0000    Z=              0.0000  Tot=              0.0000
 Quadrupole moment (field-independent basis, Debye-Ang):
   XX=            -13.8818   YY=             -9.7849   ZZ=            -10.6428
   XY=             -0.2597   XZ=             -0.0000   YZ=              0.0000

 Normal termination of Gaussian 09 at Thu Feb  9 15:58:57 2017.
