 Gaussian 09, Revision E.01,
 Gaussian 09:  ES64L-G09RevE.01 30-Nov-2015

 ----------------------------------------------------------------------
 #rhf/gen scf(symm,tight,novaracc,noincfock,fulldiag) stable(crhf) geom
 =nocrowd test
 ----------------------------------------------------------------------

 ----------------------------------------------------------------------
 hf stability analysis of h10 triangular lattice, y= 2.0332821999050843
 ----------------------------------------------------------------------
 Symbolic Z-matrix:
 Charge =  0 Multiplicity = 1

                         Standard orientation:
 ---------------------------------------------------------------------
 Center     Atomic      Atomic             Coordinates (Angstroms)
 Number     Number       Type             X           Y           Z
 ---------------------------------------------------------------------
      1          1           0        4.066564    0.283950   -0.000000
      2          1           0        2.033282    0.567900   -0.000000
      3          1           0        2.033282    0.000000   -0.000000
      4          1           0        0.000000    0.283950    0.000000
      5          1           0       -0.000000   -0.283950   -0.000000
      6          1           0       -2.033282    0.000000   -0.000000
      7          1           0       -2.033282   -0.567900   -0.000000
      8          1           0       -4.066564   -0.283950   -0.000000
 ---------------------------------------------------------------------

 SCF Done:  E(RHF) =  -3.76452445950     A.U. after    6 cycles
 E2 =    -0.6215144994D+00 EUMP2 =    -0.43860389588673D+01

 The electronic state is 1-AG.
 Alpha  occ. eigenvalues --   -0.73091  -0.69310  -0.64454  -0.20726
 Alpha virt. eigenvalues --   -0.14072   0.44321   0.54380   0.66607

 Mulliken charges:
               1
     1  H   -0.004333
     2  H    0.002586
     3  H    0.000975
     4  H    0.000772
     5  H    0.000772
     6  H    0.000975
     7  H    0.002586
     8  H   -0.004333
 Sum of Mulliken charges =  -0.00000

 Dipole moment (field-independent basis, Debye):
    X=             -0.0000    Y=             -0.0000    Z=              0.0000  Tot=              0.0000
 Quadrupole moment (field-independent basis, Debye-Ang):
   XX=            -13.4897   YY=             -9.8404   ZZ=            -10.6639
   XY=             -0.2170   XZ=             -0.0000   YZ=              0.0000

 Normal termination of Gaussian 09 at Thu Feb  9 15:59:17 2017.
