 Gaussian 09, Revision E.01,
 Gaussian 09:  ES64L-G09RevE.01 30-Nov-2015

 ----------------------------------------------------------------------
 #rhf/gen scf(symm,tight,novaracc,noincfock,fulldiag) stable(crhf) geom
 =nocrowd test
 ----------------------------------------------------------------------

 hf stability analysis of h10 triangular lattice, y= 0.8185645993885070
 1
 ----------------------------------------------------------------------
 Symbolic Z-matrix:
 Charge =  0 Multiplicity = 1

                         Standard orientation:
 ---------------------------------------------------------------------
 Center     Atomic      Atomic             Coordinates (Angstroms)
 Number     Number       Type             X           Y           Z
 ---------------------------------------------------------------------
      1          1           0        1.637129    0.705320    0.000000
      2          1           0        0.818565    1.410641    0.000000
      3          1           0        0.818565    0.000000    0.000000
      4          1           0        0.000000    0.705320    0.000000
      5          1           0       -0.000000   -0.705320    0.000000
      6          1           0       -0.818565    0.000000   -0.000000
      7          1           0       -0.818565   -1.410641    0.000000
      8          1           0       -1.637129   -0.705320   -0.000000
 ---------------------------------------------------------------------

 SCF Done:  E(RHF) =  -3.97773024707     A.U. after   10 cycles
 E2 =    -0.8202827971D-01 EUMP2 =    -0.40597585267765D+01

 The electronic state is 1-AG.
 Alpha  occ. eigenvalues --   -0.85062  -0.66522  -0.40554  -0.39784
 Alpha virt. eigenvalues --    0.04251   0.24766   0.38378   0.80718

 Mulliken charges:
               1
     1  H   -0.019200
     2  H    0.064269
     3  H    0.047393
     4  H   -0.092462
     5  H   -0.092462
     6  H    0.047393
     7  H    0.064269
     8  H   -0.019200
 Sum of Mulliken charges =  -0.00000

 Dipole moment (field-independent basis, Debye):
    X=             -0.0000    Y=              0.0000    Z=             -0.0000  Tot=              0.0000
 Quadrupole moment (field-independent basis, Debye-Ang):
   XX=            -11.8206   YY=            -11.2391   ZZ=            -10.4492
   XY=              0.2561   XZ=             -0.0000   YZ=              0.0000

 Normal termination of Gaussian 09 at Thu Feb  9 15:31:55 2017.
