 Gaussian 09, Revision E.01,
 Gaussian 09:  ES64L-G09RevE.01 30-Nov-2015

 ----------------------------------------------------------------------
 #rhf/gen scf(symm,tight,novaracc,noincfock,fulldiag) stable(crhf) geom
 =nocrowd test
 ----------------------------------------------------------------------

 ----------------------------------------------------------------------
 hf stability analysis of h10 triangular lattice, y= 1.8426822171706256
 ----------------------------------------------------------------------
 Symbolic Z-matrix:
 Charge =  0 Multiplicity = 1

                         Standard orientation:
 ---------------------------------------------------------------------
 Center     Atomic      Atomic             Coordinates (Angstroms)
 Number     Number       Type             X           Y           Z
 ---------------------------------------------------------------------
      1          1           0        3.685364    0.313321   -0.000000
      2          1           0        1.842682    0.626641   -0.000000
      3          1           0        1.842682    0.000000   -0.000000
      4          1           0       -0.000000    0.313321   -0.000000
      5          1           0       -0.000000   -0.313321   -0.000000
      6          1           0       -1.842682    0.000000   -0.000000
      7          1           0       -1.842682   -0.626641   -0.000000
      8          1           0       -3.685364   -0.313321   -0.000000
 ---------------------------------------------------------------------

 SCF Done:  E(RHF) =  -3.84968222292     A.U. after    7 cycles
 E2 =    -0.5236207604D+00 EUMP2 =    -0.43733029833550D+01

 The electronic state is 1-AG.
 Alpha  occ. eigenvalues --   -0.73634  -0.68116  -0.60591  -0.20038
 Alpha virt. eigenvalues --   -0.12373   0.36847   0.48953   0.64046

 Mulliken charges:
               1
     1  H   -0.018964
     2  H    0.008111
     3  H    0.007464
     4  H    0.003389
     5  H    0.003389
     6  H    0.007464
     7  H    0.008111
     8  H   -0.018964
 Sum of Mulliken charges =  -0.00000

 Dipole moment (field-independent basis, Debye):
    X=             -0.0000    Y=              0.0000    Z=              0.0000  Tot=              0.0000
 Quadrupole moment (field-independent basis, Debye-Ang):
   XX=            -15.4203   YY=             -9.6161   ZZ=            -10.5802
   XY=             -0.4394   XZ=              0.0000   YZ=             -0.0000

 Normal termination of Gaussian 09 at Thu Feb  9 15:57:53 2017.
