 Gaussian 09, Revision E.01,
 Gaussian 09:  ES64L-G09RevE.01 30-Nov-2015

 ----------------------------------------------------------------------
 #rhf/gen scf(symm,tight,novaracc,noincfock,fulldiag) stable(crhf) geom
 =nocrowd test
 ----------------------------------------------------------------------

 hf stability analysis of h10 triangular lattice, y= 0.8496712252064737
 6
 ----------------------------------------------------------------------
 Symbolic Z-matrix:
 Charge =  0 Multiplicity = 1

                         Standard orientation:
 ---------------------------------------------------------------------
 Center     Atomic      Atomic             Coordinates (Angstroms)
 Number     Number       Type             X           Y           Z
 ---------------------------------------------------------------------
      1          1           0        1.699342    0.679498   -0.000000
      2          1           0        0.849671    1.358997   -0.000000
      3          1           0        0.849671    0.000000   -0.000000
      4          1           0        0.000000    0.679498   -0.000000
      5          1           0       -0.000000   -0.679498   -0.000000
      6          1           0       -0.849671    0.000000   -0.000000
      7          1           0       -0.849671   -1.358997   -0.000000
      8          1           0       -1.699342   -0.679498   -0.000000
 ---------------------------------------------------------------------

 SCF Done:  E(RHF) =  -3.97738407009     A.U. after   10 cycles
 E2 =    -0.8116144376D-01 EUMP2 =    -0.40585455138429D+01

 The electronic state is 1-AG.
 Alpha  occ. eigenvalues --   -0.84834  -0.66589  -0.39926  -0.39879
 Alpha virt. eigenvalues --    0.04707   0.23083   0.39786   0.77123

 Mulliken charges:
               1
     1  H   -0.032962
     2  H    0.082355
     3  H    0.075535
     4  H   -0.124928
     5  H   -0.124928
     6  H    0.075535
     7  H    0.082355
     8  H   -0.032962
 Sum of Mulliken charges =  -0.00000

 Dipole moment (field-independent basis, Debye):
    X=             -0.0000    Y=             -0.0000    Z=             -0.0000  Tot=              0.0000
 Quadrupole moment (field-independent basis, Debye-Ang):
   XX=            -11.8606   YY=            -11.1525   ZZ=            -10.4613
   XY=              0.3932   XZ=             -0.0000   YZ=              0.0000

 Normal termination of Gaussian 09 at Thu Feb  9 15:33:30 2017.
