 Gaussian 09, Revision E.01,
 Gaussian 09:  ES64L-G09RevE.01 30-Nov-2015

 ----------------------------------------------------------------------
 #rhf/gen scf(symm,tight,novaracc,noincfock,fulldiag) stable(crhf) geom
 =nocrowd test
 ----------------------------------------------------------------------

 ----------------------------------------------------------------------
 hf stability analysis of h10 triangular lattice, y= 1.9311801631481520
 ----------------------------------------------------------------------
 Symbolic Z-matrix:
 Charge =  0 Multiplicity = 1

                         Standard orientation:
 ---------------------------------------------------------------------
 Center     Atomic      Atomic             Coordinates (Angstroms)
 Number     Number       Type             X           Y           Z
 ---------------------------------------------------------------------
      1          1           0        3.862360    0.298962   -0.000000
      2          1           0        1.931180    0.597925   -0.000000
      3          1           0        1.931180    0.000000   -0.000000
      4          1           0        0.000000    0.298962    0.000000
      5          1           0       -0.000000   -0.298962    0.000000
      6          1           0       -1.931180    0.000000   -0.000000
      7          1           0       -1.931180   -0.597925   -0.000000
      8          1           0       -3.862360   -0.298962   -0.000000
 ---------------------------------------------------------------------

 SCF Done:  E(RHF) =  -3.81542183806     A.U. after    6 cycles
 E2 =    -0.5724196228D+00 EUMP2 =    -0.43878414608510D+01

 The electronic state is 1-AG.
 Alpha  occ. eigenvalues --   -0.73270  -0.68627  -0.62458  -0.20425
 Alpha virt. eigenvalues --   -0.13295   0.40457   0.51581   0.65310

 Mulliken charges:
               1
     1  H   -0.010157
     2  H    0.004864
     3  H    0.003560
     4  H    0.001733
     5  H    0.001733
     6  H    0.003560
     7  H    0.004864
     8  H   -0.010157
 Sum of Mulliken charges =  -0.00000

 Dipole moment (field-independent basis, Debye):
    X=              0.0000    Y=              0.0000    Z=              0.0000  Tot=              0.0000
 Quadrupole moment (field-independent basis, Debye-Ang):
   XX=            -14.3683   YY=             -9.7243   ZZ=            -10.6200
   XY=             -0.3145   XZ=              0.0000   YZ=              0.0000

 Normal termination of Gaussian 09 at Thu Feb  9 15:58:35 2017.
