 Gaussian 09, Revision E.01,
 Gaussian 09:  ES64L-G09RevE.01 30-Nov-2015

 ----------------------------------------------------------------------
 #rhf/gen scf(symm,tight,novaracc,noincfock,fulldiag) stable(crhf) geom
 =nocrowd test
 ----------------------------------------------------------------------

 ----------------------------------------------------------------------
 hf stability analysis of h10 triangular lattice, y= 1.1026771700415456
 ----------------------------------------------------------------------
 Symbolic Z-matrix:
 Charge =  0 Multiplicity = 1

                         Standard orientation:
 ---------------------------------------------------------------------
 Center     Atomic      Atomic             Coordinates (Angstroms)
 Number     Number       Type             X           Y           Z
 ---------------------------------------------------------------------
      1          1           0        2.205354    0.523590    0.000000
      2          1           0        1.102677    1.047179    0.000000
      3          1           0        1.102677   -0.000000   -0.000000
      4          1           0        0.000000    0.523590    0.000000
      5          1           0       -0.000000   -0.523590    0.000000
      6          1           0       -1.102677    0.000000   -0.000000
      7          1           0       -1.102677   -1.047179    0.000000
      8          1           0       -2.205354   -0.523590    0.000000
 ---------------------------------------------------------------------

 SCF Done:  E(RHF) =  -3.90163461292     A.U. after   10 cycles
 E2 =    -0.8644412087D-01 EUMP2 =    -0.39880787337912D+01

 The electronic state is 1-AG.
 Alpha  occ. eigenvalues --   -0.80749  -0.66543  -0.41587  -0.28359
 Alpha virt. eigenvalues --    0.08977   0.11725   0.39296   0.50856

 Mulliken charges:
               1
     1  H   -0.006896
     2  H    0.067124
     3  H    0.165357
     4  H   -0.225585
     5  H   -0.225585
     6  H    0.165357
     7  H    0.067124
     8  H   -0.006896
 Sum of Mulliken charges =  -0.00000

 Dipole moment (field-independent basis, Debye):
    X=              0.0000    Y=              0.0000    Z=             -0.0000  Tot=              0.0000
 Quadrupole moment (field-independent basis, Debye-Ang):
   XX=             -9.0792   YY=            -11.9718   ZZ=            -10.5927
   XY=              1.3024   XZ=             -0.0000   YZ=              0.0000

 Normal termination of Gaussian 09 at Thu Feb  9 15:44:33 2017.
