 Gaussian 09, Revision E.01,
 Gaussian 09:  ES64L-G09RevE.01 30-Nov-2015

 ----------------------------------------------------------------------
 #rhf/gen scf(symm,tight,novaracc,noincfock,fulldiag) stable(crhf) geom
 =nocrowd test
 ----------------------------------------------------------------------

 ----------------------------------------------------------------------
 hf stability analysis of h10 triangular lattice, y= 1.2091098275984908
 ----------------------------------------------------------------------
 Symbolic Z-matrix:
 Charge =  0 Multiplicity = 1

                         Standard orientation:
 ---------------------------------------------------------------------
 Center     Atomic      Atomic             Coordinates (Angstroms)
 Number     Number       Type             X           Y           Z
 ---------------------------------------------------------------------
      1          1           0        2.418220    0.477500    0.000000
      2          1           0        1.209110    0.955001    0.000000
      3          1           0        1.209110    0.000000    0.000000
      4          1           0        0.000000    0.477500    0.000000
      5          1           0       -0.000000   -0.477500    0.000000
      6          1           0       -1.209110    0.000000    0.000000
      7          1           0       -1.209110   -0.955001    0.000000
      8          1           0       -2.418220   -0.477500    0.000000
 ---------------------------------------------------------------------

 SCF Done:  E(RHF) =  -3.83951437771     A.U. after   10 cycles
 E2 =    -0.9922268196D-01 EUMP2 =    -0.39387370596713D+01

 The electronic state is 1-AG.
 Alpha  occ. eigenvalues --   -0.79892  -0.66815  -0.43060  -0.22768
 Alpha virt. eigenvalues --    0.06859   0.11898   0.29201   0.52482

 Mulliken charges:
               1
     1  H   -0.054519
     2  H    0.041200
     3  H    0.192551
     4  H   -0.179232
     5  H   -0.179232
     6  H    0.192551
     7  H    0.041200
     8  H   -0.054519
 Sum of Mulliken charges =   0.00000

 Dipole moment (field-independent basis, Debye):
    X=             -0.0000    Y=              0.0000    Z=              0.0000  Tot=              0.0000
 Quadrupole moment (field-independent basis, Debye-Ang):
   XX=            -11.7935   YY=            -11.6139   ZZ=            -10.5723
   XY=              0.3069   XZ=              0.0000   YZ=             -0.0000

 Normal termination of Gaussian 09 at Thu Feb  9 15:47:50 2017.
