 Gaussian 09, Revision E.01,
 Gaussian 09:  ES64L-G09RevE.01 30-Nov-2015

 ----------------------------------------------------------------------
 #rhf/gen scf(symm,tight,novaracc,noincfock,fulldiag) stable(crhf) geom
 =nocrowd test
 ----------------------------------------------------------------------

 hf stability analysis of h10 triangular lattice, y= 0.7598357022583297
 5
 ----------------------------------------------------------------------
 Symbolic Z-matrix:
 Charge =  0 Multiplicity = 1

                         Standard orientation:
 ---------------------------------------------------------------------
 Center     Atomic      Atomic             Coordinates (Angstroms)
 Number     Number       Type             X           Y           Z
 ---------------------------------------------------------------------
      1          1           0        0.000000    0.537285    1.611855
      2          1           0       -0.000000   -0.537285    1.611855
      3          1           0        0.000000    0.537285    0.537285
      4          1           0       -0.000000   -0.537285    0.537285
      5          1           0        0.000000    0.537285   -0.537285
      6          1           0       -0.000000   -0.537285   -0.537285
      7          1           0        0.000000    0.537285   -1.611855
      8          1           0       -0.000000   -0.537285   -1.611855
 ---------------------------------------------------------------------

 SCF Done:  E(RHF) =  -3.97755813741     A.U. after    6 cycles
 E2 =    -0.8293499617D-01 EUMP2 =    -0.40604931335747D+01

 The electronic state is 1-AG.
 Alpha  occ. eigenvalues --   -0.85240  -0.66457  -0.41095  -0.39665
 Alpha virt. eigenvalues --    0.03889   0.26442   0.36933   0.83801

 Mulliken charges:
               1
     1  H    0.020616
     2  H    0.020616
     3  H   -0.020616
     4  H   -0.020616
     5  H   -0.020616
     6  H   -0.020616
     7  H    0.020616
     8  H    0.020616
 Sum of Mulliken charges =  -0.00000

 Dipole moment (field-independent basis, Debye):
    X=              0.0000    Y=              0.0000    Z=             -0.0000  Tot=              0.0000
 Quadrupole moment (field-independent basis, Debye-Ang):
   XX=            -10.4389   YY=            -11.6784   ZZ=            -11.4055
   XY=             -0.0000   XZ=              0.0000   YZ=              0.0000

 Normal termination of Gaussian 09 at Thu Feb  9 15:28:43 2017.
