 Gaussian 09, Revision E.01,
 Gaussian 09:  ES64L-G09RevE.01 30-Nov-2015

 ----------------------------------------------------------------------
 #rhf/gen scf(symm,tight,novaracc,noincfock,fulldiag) stable(crhf) geom
 =nocrowd test
 ----------------------------------------------------------------------

 ----------------------------------------------------------------------
 hf stability analysis of h10 triangular lattice, y= 1.4808545702551064
 ----------------------------------------------------------------------
 Symbolic Z-matrix:
 Charge =  0 Multiplicity = 1

                         Standard orientation:
 ---------------------------------------------------------------------
 Center     Atomic      Atomic             Coordinates (Angstroms)
 Number     Number       Type             X           Y           Z
 ---------------------------------------------------------------------
      1          1           0        2.961709    0.389876   -0.000000
      2          1           0        1.480855    0.779753   -0.000000
      3          1           0        1.480855    0.000000   -0.000000
      4          1           0       -0.000000    0.389876    0.000000
      5          1           0       -0.000000   -0.389876    0.000000
      6          1           0       -1.480855    0.000000   -0.000000
      7          1           0       -1.480855   -0.779753   -0.000000
      8          1           0       -2.961709   -0.389876   -0.000000
 ---------------------------------------------------------------------

 SCF Done:  E(RHF) =  -3.86770246011     A.U. after   10 cycles
 E2 =    -0.2566544263D+00 EUMP2 =    -0.41243568864108D+01

 The electronic state is 1-AG.
 Alpha  occ. eigenvalues --   -0.78632  -0.67716  -0.52386  -0.16854
 Alpha virt. eigenvalues --   -0.03770   0.18337   0.35367   0.55725

 Mulliken charges:
               1
     1  H   -0.135555
     2  H    0.046843
     3  H    0.061576
     4  H    0.027136
     5  H    0.027136
     6  H    0.061576
     7  H    0.046843
     8  H   -0.135555
 Sum of Mulliken charges =   0.00000

 Dipole moment (field-independent basis, Debye):
    X=             -0.0000    Y=             -0.0000    Z=              0.0000  Tot=              0.0000
 Quadrupole moment (field-independent basis, Debye-Ang):
   XX=            -23.4219   YY=             -9.1880   ZZ=            -10.4372
   XY=             -1.7051   XZ=              0.0000   YZ=             -0.0000

 Normal termination of Gaussian 09 at Thu Feb  9 15:53:35 2017.
