 Gaussian 09, Revision E.01,
 Gaussian 09:  ES64L-G09RevE.01 30-Nov-2015

 ----------------------------------------------------------------------
 #rhf/gen scf(symm,tight,novaracc,noincfock,fulldiag) stable(crhf) geom
 =nocrowd test
 ----------------------------------------------------------------------

 ----------------------------------------------------------------------
 hf stability analysis of h10 triangular lattice, y= 1.2360879047933260
 ----------------------------------------------------------------------
 Symbolic Z-matrix:
 Charge =  0 Multiplicity = 1

                         Standard orientation:
 ---------------------------------------------------------------------
 Center     Atomic      Atomic             Coordinates (Angstroms)
 Number     Number       Type             X           Y           Z
 ---------------------------------------------------------------------
      1          1           0        2.472176    0.467079    0.000000
      2          1           0        1.236088    0.934157   -0.000000
      3          1           0        1.236088    0.000000    0.000000
      4          1           0       -0.000000    0.467079   -0.000000
      5          1           0        0.000000   -0.467079   -0.000000
      6          1           0       -1.236088   -0.000000    0.000000
      7          1           0       -1.236088   -0.934157   -0.000000
      8          1           0       -2.472176   -0.467079   -0.000000
 ---------------------------------------------------------------------

 SCF Done:  E(RHF) =  -3.82884732546     A.U. after   11 cycles
 E2 =    -0.1032807343D+00 EUMP2 =    -0.39321280597290D+01

 The electronic state is 1-AG.
 Alpha  occ. eigenvalues --   -0.80024  -0.67047  -0.43809  -0.21429
 Alpha virt. eigenvalues --    0.07140   0.10624   0.28189   0.52383

 Mulliken charges:
               1
     1  H   -0.083439
     2  H    0.043876
     3  H    0.189727
     4  H   -0.150165
     5  H   -0.150165
     6  H    0.189727
     7  H    0.043876
     8  H   -0.083439
 Sum of Mulliken charges =   0.00000

 Dipole moment (field-independent basis, Debye):
    X=              0.0000    Y=              0.0000    Z=              0.0000  Tot=              0.0000
 Quadrupole moment (field-independent basis, Debye-Ang):
   XX=            -13.8453   YY=            -11.2499   ZZ=            -10.5491
   XY=             -0.1621   XZ=             -0.0000   YZ=              0.0000

 Normal termination of Gaussian 09 at Thu Feb  9 15:48:33 2017.
