 Gaussian 09, Revision E.01,
 Gaussian 09:  ES64L-G09RevE.01 30-Nov-2015

 ----------------------------------------------------------------------
 #rhf/gen scf(symm,tight,novaracc,noincfock,fulldiag) stable(crhf) geom
 =nocrowd test
 ----------------------------------------------------------------------

 ----------------------------------------------------------------------
 hf stability analysis of h10 triangular lattice, y= 2.4265770196459231
 ----------------------------------------------------------------------
 Symbolic Z-matrix:
 Charge =  0 Multiplicity = 1

                         Standard orientation:
 ---------------------------------------------------------------------
 Center     Atomic      Atomic             Coordinates (Angstroms)
 Number     Number       Type             X           Y           Z
 ---------------------------------------------------------------------
      1          1           0        4.853154    0.237928   -0.000000
      2          1           0        2.426577    0.475856   -0.000000
      3          1           0        2.426577    0.000000   -0.000000
      4          1           0        0.000000    0.237928   -0.000000
      5          1           0       -0.000000   -0.237928    0.000000
      6          1           0       -2.426577    0.000000   -0.000000
      7          1           0       -2.426577   -0.475856   -0.000000
      8          1           0       -4.853154   -0.237928   -0.000000
 ---------------------------------------------------------------------

 SCF Done:  E(RHF) =  -3.48575212342     A.U. after    5 cycles
 E2 =    -0.7751252912D+00 EUMP2 =    -0.42608774145678D+01

 The electronic state is 1-AG.
 Alpha  occ. eigenvalues --   -0.73701  -0.72153  -0.70423  -0.21080
 Alpha virt. eigenvalues --   -0.15621   0.57075   0.63655   0.71158

 Mulliken charges:
               1
     1  H    0.001184
     2  H   -0.000063
     3  H   -0.001141
     4  H    0.000019
     5  H    0.000019
     6  H   -0.001141
     7  H   -0.000063
     8  H    0.001184
 Sum of Mulliken charges =   0.00000

 Dipole moment (field-independent basis, Debye):
    X=              0.0000    Y=              0.0000    Z=             -0.0000  Tot=              0.0000
 Quadrupole moment (field-independent basis, Debye-Ang):
   XX=            -11.8479   YY=            -10.1861   ZZ=            -10.7913
   XY=             -0.0591   XZ=              0.0000   YZ=             -0.0000

 Normal termination of Gaussian 09 at Thu Feb  9 16:01:07 2017.
