 Gaussian 09, Revision E.01,
 Gaussian 09:  ES64L-G09RevE.01 30-Nov-2015

 ----------------------------------------------------------------------
 #rhf/gen scf(symm,tight,novaracc,noincfock,fulldiag) stable(crhf) geom
 =nocrowd test
 ----------------------------------------------------------------------

 ----------------------------------------------------------------------
 hf stability analysis of h10 triangular lattice, y= 1.6445705118746621
 ----------------------------------------------------------------------
 Symbolic Z-matrix:
 Charge =  0 Multiplicity = 1

                         Standard orientation:
 ---------------------------------------------------------------------
 Center     Atomic      Atomic             Coordinates (Angstroms)
 Number     Number       Type             X           Y           Z
 ---------------------------------------------------------------------
      1          1           0        3.289141    0.351065   -0.000000
      2          1           0        1.644570    0.702129   -0.000000
      3          1           0        1.644570    0.000000    0.000000
      4          1           0        0.000000    0.351065   -0.000000
      5          1           0       -0.000000   -0.351065   -0.000000
      6          1           0       -1.644570    0.000000   -0.000000
      7          1           0       -1.644570   -0.702129   -0.000000
      8          1           0       -3.289141   -0.351065   -0.000000
 ---------------------------------------------------------------------

 SCF Done:  E(RHF) =  -3.88618819818     A.U. after    8 cycles
 E2 =    -0.3877385983D+00 EUMP2 =    -0.42739267964983D+01

 The electronic state is 1-AG.
 Alpha  occ. eigenvalues --   -0.75551  -0.67484  -0.56142  -0.18591
 Alpha virt. eigenvalues --   -0.08935   0.27550   0.42142   0.60289

 Mulliken charges:
               1
     1  H   -0.062385
     2  H    0.023062
     3  H    0.026281
     4  H    0.013042
     5  H    0.013042
     6  H    0.026281
     7  H    0.023062
     8  H   -0.062385
 Sum of Mulliken charges =   0.00000

 Dipole moment (field-independent basis, Debye):
    X=             -0.0000    Y=              0.0000    Z=              0.0000  Tot=              0.0000
 Quadrupole moment (field-independent basis, Debye-Ang):
   XX=            -19.1679   YY=             -9.3595   ZZ=            -10.4945
   XY=             -0.9512   XZ=             -0.0000   YZ=              0.0000

 Normal termination of Gaussian 09 at Thu Feb  9 15:55:51 2017.
