 Gaussian 09, Revision E.01,
 Gaussian 09:  ES64L-G09RevE.01 30-Nov-2015

 ----------------------------------------------------------------------
 #rhf/gen scf(symm,tight,novaracc,noincfock,fulldiag) stable(crhf) geom
 =nocrowd test
 ----------------------------------------------------------------------

 ----------------------------------------------------------------------
 hf stability analysis of h10 triangular lattice, y= 1.0398466462433982
 ----------------------------------------------------------------------
 Symbolic Z-matrix:
 Charge =  0 Multiplicity = 1

                         Standard orientation:
 ---------------------------------------------------------------------
 Center     Atomic      Atomic             Coordinates (Angstroms)
 Number     Number       Type             X           Y           Z
 ---------------------------------------------------------------------
      1          1           0        2.079693    0.555226    0.000000
      2          1           0        1.039847    1.110453   -0.000000
      3          1           0        1.039847    0.000000    0.000000
      4          1           0        0.000000    0.555226   -0.000000
      5          1           0       -0.000000   -0.555226   -0.000000
      6          1           0       -1.039847    0.000000    0.000000
      7          1           0       -1.039847   -1.110453   -0.000000
      8          1           0       -2.079693   -0.555226    0.000000
 ---------------------------------------------------------------------

 SCF Done:  E(RHF) =  -3.93553180223     A.U. after   10 cycles
 E2 =    -0.8241785806D-01 EUMP2 =    -0.40179496602946D+01

 The electronic state is 1-AG.
 Alpha  occ. eigenvalues --   -0.81916  -0.66661  -0.41169  -0.31805
 Alpha virt. eigenvalues --    0.09919   0.11872   0.47704   0.48613

 Mulliken charges:
               1
     1  H   -0.019010
     2  H    0.089611
     3  H    0.150192
     4  H   -0.220793
     5  H   -0.220793
     6  H    0.150192
     7  H    0.089611
     8  H   -0.019010
 Sum of Mulliken charges =  -0.00000

 Dipole moment (field-independent basis, Debye):
    X=             -0.0000    Y=              0.0000    Z=              0.0000  Tot=              0.0000
 Quadrupole moment (field-independent basis, Debye-Ang):
   XX=             -9.9029   YY=            -11.7007   ZZ=            -10.5667
   XY=              1.2863   XZ=              0.0000   YZ=             -0.0000

 Normal termination of Gaussian 09 at Thu Feb  9 15:42:17 2017.
