 Gaussian 09, Revision E.01,
 Gaussian 09:  ES64L-G09RevE.01 30-Nov-2015

 ----------------------------------------------------------------------
 #rhf/gen scf(symm,tight,novaracc,noincfock,fulldiag) stable(crhf) geom
 =nocrowd test
 ----------------------------------------------------------------------

 hf stability analysis of h10 triangular lattice, y= 0.7944634756096572
 4
 ----------------------------------------------------------------------
 Symbolic Z-matrix:
 Charge =  0 Multiplicity = 1

                         Standard orientation:
 ---------------------------------------------------------------------
 Center     Atomic      Atomic             Coordinates (Angstroms)
 Number     Number       Type             X           Y           Z
 ---------------------------------------------------------------------
      1          1           0        1.588927    0.726717    0.000000
      2          1           0        0.794463    1.453434    0.000000
      3          1           0        0.794463    0.000000    0.000000
      4          1           0        0.000000    0.726717    0.000000
      5          1           0       -0.000000   -0.726717    0.000000
      6          1           0       -0.794463    0.000000   -0.000000
      7          1           0       -0.794463   -1.453434    0.000000
      8          1           0       -1.588927   -0.726717    0.000000
 ---------------------------------------------------------------------

 SCF Done:  E(RHF) =  -3.97766722782     A.U. after    9 cycles
 E2 =    -0.8258597334D-01 EUMP2 =    -0.40602532011612D+01

 The electronic state is 1-AG.
 Alpha  occ. eigenvalues --   -0.85177  -0.66481  -0.40901  -0.39708
 Alpha virt. eigenvalues --    0.04018   0.25792   0.37499   0.82673

 Mulliken charges:
               1
     1  H   -0.004737
     2  H    0.047385
     3  H    0.021567
     4  H   -0.064215
     5  H   -0.064215
     6  H    0.021567
     7  H    0.047385
     8  H   -0.004737
 Sum of Mulliken charges =  -0.00000

 Dipole moment (field-independent basis, Debye):
    X=              0.0000    Y=              0.0000    Z=              0.0000  Tot=              0.0000
 Quadrupole moment (field-independent basis, Debye-Ang):
   XX=            -11.7300   YY=            -11.3466   ZZ=            -10.4427
   XY=              0.1804   XZ=             -0.0000   YZ=              0.0000

 Normal termination of Gaussian 09 at Thu Feb  9 15:30:38 2017.
