 Gaussian 09, Revision E.01,
 Gaussian 09:  ES64L-G09RevE.01 30-Nov-2015

 ----------------------------------------------------------------------
 #rhf/gen scf(symm,tight,novaracc,noincfock,fulldiag) stable(crhf) geom
 =nocrowd test
 ----------------------------------------------------------------------

 hf stability analysis of h10 triangular lattice, y= 0.9005060787134614
 4
 ----------------------------------------------------------------------
 Symbolic Z-matrix:
 Charge =  0 Multiplicity = 1

                         Standard orientation:
 ---------------------------------------------------------------------
 Center     Atomic      Atomic             Coordinates (Angstroms)
 Number     Number       Type             X           Y           Z
 ---------------------------------------------------------------------
      1          1           0        1.801012    0.641140   -0.000000
      2          1           0        0.900506    1.282280   -0.000000
      3          1           0        0.900506    0.000000   -0.000000
      4          1           0        0.000000    0.641140   -0.000000
      5          1           0       -0.000000   -0.641140   -0.000000
      6          1           0       -0.900506    0.000000   -0.000000
      7          1           0       -0.900506   -1.282280   -0.000000
      8          1           0       -1.801012   -0.641140   -0.000000
 ---------------------------------------------------------------------

 SCF Done:  E(RHF) =  -3.97432806390     A.U. after   10 cycles
 E2 =    -0.8003150670D-01 EUMP2 =    -0.40543595705932D+01

 The electronic state is 1-AG.
 Alpha  occ. eigenvalues --   -0.84282  -0.66694  -0.40233  -0.38295
 Alpha virt. eigenvalues --    0.05777   0.19995   0.42283   0.69644

 Mulliken charges:
               1
     1  H   -0.043103
     2  H    0.100826
     3  H    0.108898
     4  H   -0.166621
     5  H   -0.166621
     6  H    0.108898
     7  H    0.100826
     8  H   -0.043103
 Sum of Mulliken charges =   0.00000

 Dipole moment (field-independent basis, Debye):
    X=              0.0000    Y=              0.0000    Z=             -0.0000  Tot=              0.0000
 Quadrupole moment (field-independent basis, Debye-Ang):
   XX=            -11.6933   YY=            -11.1481   ZZ=            -10.4873
   XY=              0.6672   XZ=             -0.0000   YZ=              0.0000

 Normal termination of Gaussian 09 at Thu Feb  9 15:36:05 2017.
