 Gaussian 09, Revision E.01,
 Gaussian 09:  ES64L-G09RevE.01 30-Nov-2015

 ----------------------------------------------------------------------
 #rhf/gen scf(symm,tight,novaracc,noincfock,fulldiag) stable(crhf) geom
 =nocrowd test
 ----------------------------------------------------------------------

 hf stability analysis of h10 triangular lattice, y= 0.8042800232144692
 3
 ----------------------------------------------------------------------
 Symbolic Z-matrix:
 Charge =  0 Multiplicity = 1

                         Standard orientation:
 ---------------------------------------------------------------------
 Center     Atomic      Atomic             Coordinates (Angstroms)
 Number     Number       Type             X           Y           Z
 ---------------------------------------------------------------------
      1          1           0        1.608560    0.717847    0.000000
      2          1           0        0.804280    1.435695    0.000000
      3          1           0        0.804280    0.000000    0.000000
      4          1           0        0.000000    0.717847    0.000000
      5          1           0       -0.000000   -0.717847    0.000000
      6          1           0       -0.804280    0.000000    0.000000
      7          1           0       -0.804280   -1.435695    0.000000
      8          1           0       -1.608560   -0.717847    0.000000
 ---------------------------------------------------------------------

 SCF Done:  E(RHF) =  -3.97770840525     A.U. after    9 cycles
 E2 =    -0.8238116272D-01 EUMP2 =    -0.40600895679731D+01

 The electronic state is 1-AG.
 Alpha  occ. eigenvalues --   -0.85137  -0.66496  -0.40780  -0.39735
 Alpha virt. eigenvalues --    0.04100   0.25415   0.37824   0.81979

 Mulliken charges:
               1
     1  H   -0.010998
     2  H    0.054510
     3  H    0.032486
     4  H   -0.075998
     5  H   -0.075998
     6  H    0.032486
     7  H    0.054510
     8  H   -0.010998
 Sum of Mulliken charges =  -0.00000

 Dipole moment (field-independent basis, Debye):
    X=             -0.0000    Y=              0.0000    Z=              0.0000  Tot=              0.0000
 Quadrupole moment (field-independent basis, Debye-Ang):
   XX=            -11.7722   YY=            -11.2991   ZZ=            -10.4450
   XY=              0.2073   XZ=              0.0000   YZ=              0.0000

 Normal termination of Gaussian 09 at Thu Feb  9 15:31:10 2017.
