 Gaussian 09, Revision E.01,
 Gaussian 09:  ES64L-G09RevE.01 30-Nov-2015

 ----------------------------------------------------------------------
 #rhf/gen scf(symm,tight,novaracc,noincfock,fulldiag) stable(crhf) geom
 =nocrowd test
 ----------------------------------------------------------------------

 hf stability analysis of h10 triangular lattice, y= 0.8200107869855390
 9
 ----------------------------------------------------------------------
 Symbolic Z-matrix:
 Charge =  0 Multiplicity = 1

                         Standard orientation:
 ---------------------------------------------------------------------
 Center     Atomic      Atomic             Coordinates (Angstroms)
 Number     Number       Type             X           Y           Z
 ---------------------------------------------------------------------
      1          1           0        1.640022    0.704076    0.000000
      2          1           0        0.820011    1.408153    0.000000
      3          1           0        0.820011    0.000000    0.000000
      4          1           0        0.000000    0.704076    0.000000
      5          1           0       -0.000000   -0.704076    0.000000
      6          1           0       -0.820011    0.000000    0.000000
      7          1           0       -0.820011   -1.408153    0.000000
      8          1           0       -1.640022   -0.704076    0.000000
 ---------------------------------------------------------------------

 SCF Done:  E(RHF) =  -3.97772826823     A.U. after   10 cycles
 E2 =    -0.8198986910D-01 EUMP2 =    -0.40597181373367D+01

 The electronic state is 1-AG.
 Alpha  occ. eigenvalues --   -0.85053  -0.66525  -0.40529  -0.39789
 Alpha virt. eigenvalues --    0.04268   0.24695   0.38438   0.80575

 Mulliken charges:
               1
     1  H   -0.019966
     2  H    0.065211
     3  H    0.048835
     4  H   -0.094079
     5  H   -0.094079
     6  H    0.048835
     7  H    0.065211
     8  H   -0.019966
 Sum of Mulliken charges =   0.00000

 Dipole moment (field-independent basis, Debye):
    X=              0.0000    Y=              0.0000    Z=              0.0000  Tot=              0.0000
 Quadrupole moment (field-independent basis, Debye-Ang):
   XX=            -11.8246   YY=            -11.2337   ZZ=            -10.4497
   XY=              0.2616   XZ=              0.0000   YZ=             -0.0000

 Normal termination of Gaussian 09 at Thu Feb  9 15:31:59 2017.
