 Gaussian 09, Revision E.01,
 Gaussian 09:  ES64L-G09RevE.01 30-Nov-2015

 ----------------------------------------------------------------------
 #rhf/gen scf(symm,tight,novaracc,noincfock,fulldiag) stable(crhf) geom
 =nocrowd test
 ----------------------------------------------------------------------

 ----------------------------------------------------------------------
 hf stability analysis of h10 triangular lattice, y= 2.0078476644618948
 ----------------------------------------------------------------------
 Symbolic Z-matrix:
 Charge =  0 Multiplicity = 1

                         Standard orientation:
 ---------------------------------------------------------------------
 Center     Atomic      Atomic             Coordinates (Angstroms)
 Number     Number       Type             X           Y           Z
 ---------------------------------------------------------------------
      1          1           0        4.015695    0.287547   -0.000000
      2          1           0        2.007848    0.575094   -0.000000
      3          1           0        2.007848    0.000000   -0.000000
      4          1           0        0.000000    0.287547    0.000000
      5          1           0       -0.000000   -0.287547    0.000000
      6          1           0       -2.007848    0.000000   -0.000000
      7          1           0       -2.007848   -0.575094   -0.000000
      8          1           0       -4.015695   -0.287547   -0.000000
 ---------------------------------------------------------------------

 SCF Done:  E(RHF) =  -3.77824239468     A.U. after    6 cycles
 E2 =    -0.6098793503D+00 EUMP2 =    -0.43881217449858D+01

 The electronic state is 1-AG.
 Alpha  occ. eigenvalues --   -0.73116  -0.69133  -0.63974  -0.20663
 Alpha virt. eigenvalues --   -0.13901   0.43385   0.53703   0.66295

 Mulliken charges:
               1
     1  H   -0.005464
     2  H    0.003042
     3  H    0.001474
     4  H    0.000948
     5  H    0.000948
     6  H    0.001474
     7  H    0.003042
     8  H   -0.005464
 Sum of Mulliken charges =  -0.00000

 Dipole moment (field-independent basis, Debye):
    X=              0.0000    Y=             -0.0000    Z=              0.0000  Tot=              0.0000
 Quadrupole moment (field-independent basis, Debye-Ang):
   XX=            -13.6811   YY=             -9.8125   ZZ=            -10.6532
   XY=             -0.2377   XZ=             -0.0000   YZ=              0.0000

 Normal termination of Gaussian 09 at Thu Feb  9 15:59:07 2017.
