 Gaussian 09, Revision E.01,
 Gaussian 09:  ES64L-G09RevE.01 30-Nov-2015

 ----------------------------------------------------------------------
 #rhf/gen scf(symm,tight,novaracc,noincfock,fulldiag) stable(crhf) geom
 =nocrowd test
 ----------------------------------------------------------------------

 ----------------------------------------------------------------------
 hf stability analysis of h10 triangular lattice, y= 1.3135898396745678
 ----------------------------------------------------------------------
 Symbolic Z-matrix:
 Charge =  0 Multiplicity = 1

                         Standard orientation:
 ---------------------------------------------------------------------
 Center     Atomic      Atomic             Coordinates (Angstroms)
 Number     Number       Type             X           Y           Z
 ---------------------------------------------------------------------
      1          1           0        2.627180    0.439521    0.000000
      2          1           0        1.313590    0.879042   -0.000000
      3          1           0        1.313590    0.000000    0.000000
      4          1           0        0.000000    0.439521   -0.000000
      5          1           0       -0.000000   -0.439521   -0.000000
      6          1           0       -1.313590    0.000000    0.000000
      7          1           0       -1.313590   -0.879042   -0.000000
      8          1           0       -2.627180   -0.439521    0.000000
 ---------------------------------------------------------------------

 SCF Done:  E(RHF) =  -3.82100453802     A.U. after   12 cycles
 E2 =    -0.1227251103D+00 EUMP2 =    -0.39437296483694D+01

 The electronic state is 1-AG.
 Alpha  occ. eigenvalues --   -0.80676  -0.67777  -0.46878  -0.17941
 Alpha virt. eigenvalues --    0.05143   0.09396   0.28664   0.52022

 Mulliken charges:
               1
     1  H   -0.161380
     2  H    0.058849
     3  H    0.152245
     4  H   -0.049714
     5  H   -0.049714
     6  H    0.152245
     7  H    0.058849
     8  H   -0.161380
 Sum of Mulliken charges =  -0.00000

 Dipole moment (field-independent basis, Debye):
    X=              0.0000    Y=              0.0000    Z=             -0.0000  Tot=              0.0000
 Quadrupole moment (field-independent basis, Debye-Ang):
   XX=            -20.7495   YY=            -10.0210   ZZ=            -10.4689
   XY=             -1.4906   XZ=              0.0000   YZ=              0.0000

 Normal termination of Gaussian 09 at Thu Feb  9 15:50:24 2017.
