 Gaussian 09, Revision E.01,
 Gaussian 09:  ES64L-G09RevE.01 30-Nov-2015

 ----------------------------------------------------------------------
 #rhf/gen scf(symm,tight,novaracc,noincfock,fulldiag) stable(crhf) geom
 =nocrowd test
 ----------------------------------------------------------------------

 ----------------------------------------------------------------------
 hf stability analysis of h10 triangular lattice, y= 1.2168923582625433
 ----------------------------------------------------------------------
 Symbolic Z-matrix:
 Charge =  0 Multiplicity = 1

                         Standard orientation:
 ---------------------------------------------------------------------
 Center     Atomic      Atomic             Coordinates (Angstroms)
 Number     Number       Type             X           Y           Z
 ---------------------------------------------------------------------
      1          1           0        2.433785    0.474446    0.000000
      2          1           0        1.216892    0.948893    0.000000
      3          1           0        1.216892    0.000000    0.000000
      4          1           0        0.000000    0.474446   -0.000000
      5          1           0       -0.000000   -0.474446    0.000000
      6          1           0       -1.216892    0.000000    0.000000
      7          1           0       -1.216892   -0.948893    0.000000
      8          1           0       -2.433785   -0.474446    0.000000
 ---------------------------------------------------------------------

 SCF Done:  E(RHF) =  -3.83606980847     A.U. after   10 cycles
 E2 =    -0.1003890939D+00 EUMP2 =    -0.39364589023639D+01

 The electronic state is 1-AG.
 Alpha  occ. eigenvalues --   -0.79918  -0.66876  -0.43257  -0.22380
 Alpha virt. eigenvalues --    0.06907   0.11593   0.28829   0.52467

 Mulliken charges:
               1
     1  H   -0.062496
     2  H    0.041608
     3  H    0.192365
     4  H   -0.171477
     5  H   -0.171477
     6  H    0.192365
     7  H    0.041608
     8  H   -0.062496
 Sum of Mulliken charges =   0.00000

 Dipole moment (field-independent basis, Debye):
    X=              0.0000    Y=             -0.0000    Z=              0.0000  Tot=              0.0000
 Quadrupole moment (field-independent basis, Debye-Ang):
   XX=            -12.3386   YY=            -11.5181   ZZ=            -10.5662
   XY=              0.1765   XZ=              0.0000   YZ=              0.0000

 Normal termination of Gaussian 09 at Thu Feb  9 15:48:02 2017.
