 Gaussian 09, Revision E.01,
 Gaussian 09:  ES64L-G09RevE.01 30-Nov-2015

 ----------------------------------------------------------------------
 #rhf/gen scf(symm,tight,novaracc,noincfock,fulldiag) stable(crhf) geom
 =nocrowd test
 ----------------------------------------------------------------------

 ----------------------------------------------------------------------
 hf stability analysis of h10 triangular lattice, y= 1.2459728127807141
 ----------------------------------------------------------------------
 Symbolic Z-matrix:
 Charge =  0 Multiplicity = 1

                         Standard orientation:
 ---------------------------------------------------------------------
 Center     Atomic      Atomic             Coordinates (Angstroms)
 Number     Number       Type             X           Y           Z
 ---------------------------------------------------------------------
      1          1           0        2.491946    0.463373   -0.000000
      2          1           0        1.245973    0.926746    0.000000
      3          1           0        1.245973    0.000000   -0.000000
      4          1           0        0.000000    0.463373    0.000000
      5          1           0       -0.000000   -0.463373    0.000000
      6          1           0       -1.245973    0.000000   -0.000000
      7          1           0       -1.245973   -0.926746    0.000000
      8          1           0       -2.491946   -0.463373   -0.000000
 ---------------------------------------------------------------------

 SCF Done:  E(RHF) =  -3.82589938854     A.U. after   11 cycles
 E2 =    -0.1048025086D+00 EUMP2 =    -0.39307018971240D+01

 The electronic state is 1-AG.
 Alpha  occ. eigenvalues --   -0.80097  -0.67143  -0.44131  -0.20945
 Alpha virt. eigenvalues --    0.07320   0.10021   0.28006   0.52323

 Mulliken charges:
               1
     1  H   -0.094575
     2  H    0.045578
     3  H    0.187181
     4  H   -0.138184
     5  H   -0.138184
     6  H    0.187181
     7  H    0.045578
     8  H   -0.094575
 Sum of Mulliken charges =   0.00000

 Dipole moment (field-independent basis, Debye):
    X=              0.0000    Y=              0.0000    Z=             -0.0000  Tot=              0.0000
 Quadrupole moment (field-independent basis, Debye-Ang):
   XX=            -14.6925   YY=            -11.0982   ZZ=            -10.5394
   XY=             -0.3421   XZ=              0.0000   YZ=              0.0000

 Normal termination of Gaussian 09 at Thu Feb  9 15:48:48 2017.
