 Gaussian 09, Revision E.01,
 Gaussian 09:  ES64L-G09RevE.01 30-Nov-2015

 ----------------------------------------------------------------------
 #rhf/gen scf(symm,tight,novaracc,noincfock,fulldiag) stable(crhf) geom
 =nocrowd test
 ----------------------------------------------------------------------

 ----------------------------------------------------------------------
 hf stability analysis of h10 triangular lattice, y= 1.6071456321126634
 ----------------------------------------------------------------------
 Symbolic Z-matrix:
 Charge =  0 Multiplicity = 1

                         Standard orientation:
 ---------------------------------------------------------------------
 Center     Atomic      Atomic             Coordinates (Angstroms)
 Number     Number       Type             X           Y           Z
 ---------------------------------------------------------------------
      1          1           0        3.214291    0.359240   -0.000000
      2          1           0        1.607146    0.718479   -0.000000
      3          1           0        1.607146    0.000000   -0.000000
      4          1           0        0.000000    0.359240   -0.000000
      5          1           0       -0.000000   -0.359240   -0.000000
      6          1           0       -1.607146    0.000000   -0.000000
      7          1           0       -1.607146   -0.718479   -0.000000
      8          1           0       -3.214291   -0.359240   -0.000000
 ---------------------------------------------------------------------

 SCF Done:  E(RHF) =  -3.88601884121     A.U. after    8 cycles
 E2 =    -0.3584636745D+00 EUMP2 =    -0.42444825157123D+01

 The electronic state is 1-AG.
 Alpha  occ. eigenvalues --   -0.76136  -0.67474  -0.55290  -0.18219
 Alpha virt. eigenvalues --   -0.07980   0.25563   0.40682   0.59370

 Mulliken charges:
               1
     1  H   -0.075925
     2  H    0.027558
     3  H    0.032195
     4  H    0.016172
     5  H    0.016172
     6  H    0.032195
     7  H    0.027558
     8  H   -0.075925
 Sum of Mulliken charges =  -0.00000

 Dipole moment (field-independent basis, Debye):
    X=             -0.0000    Y=              0.0000    Z=              0.0000  Tot=              0.0000
 Quadrupole moment (field-independent basis, Debye-Ang):
   XX=            -20.1064   YY=             -9.3118   ZZ=            -10.4799
   XY=             -1.0977   XZ=              0.0000   YZ=              0.0000

 Normal termination of Gaussian 09 at Thu Feb  9 15:55:24 2017.
