 Gaussian 09, Revision E.01,
 Gaussian 09:  ES64L-G09RevE.01 30-Nov-2015

 ----------------------------------------------------------------------
 #rhf/gen scf(symm,tight,novaracc,noincfock,fulldiag) stable(crhf) geom
 =nocrowd test
 ----------------------------------------------------------------------

 ----------------------------------------------------------------------
 hf stability analysis of h10 triangular lattice, y= 1.1089257086049120
 ----------------------------------------------------------------------
 Symbolic Z-matrix:
 Charge =  0 Multiplicity = 1

                         Standard orientation:
 ---------------------------------------------------------------------
 Center     Atomic      Atomic             Coordinates (Angstroms)
 Number     Number       Type             X           Y           Z
 ---------------------------------------------------------------------
      1          1           0        2.217851    0.520639   -0.000000
      2          1           0        1.108926    1.041279   -0.000000
      3          1           0        1.108926    0.000000   -0.000000
      4          1           0        0.000000    0.520639   -0.000000
      5          1           0       -0.000000   -0.520639   -0.000000
      6          1           0       -1.108926    0.000000   -0.000000
      7          1           0       -1.108926   -1.041279   -0.000000
      8          1           0       -2.217851   -0.520639   -0.000000
 ---------------------------------------------------------------------

 SCF Done:  E(RHF) =  -3.89786399010     A.U. after   10 cycles
 E2 =    -0.8696595059D-01 EUMP2 =    -0.39848299406929D+01

 The electronic state is 1-AG.
 Alpha  occ. eigenvalues --   -0.80646  -0.66535  -0.41634  -0.28015
 Alpha virt. eigenvalues --    0.08735   0.11874   0.38534   0.51043

 Mulliken charges:
               1
     1  H   -0.006624
     2  H    0.064704
     3  H    0.167216
     4  H   -0.225296
     5  H   -0.225296
     6  H    0.167216
     7  H    0.064704
     8  H   -0.006624
 Sum of Mulliken charges =   0.00000

 Dipole moment (field-independent basis, Debye):
    X=             -0.0000    Y=             -0.0000    Z=             -0.0000  Tot=              0.0000
 Quadrupole moment (field-independent basis, Debye-Ang):
   XX=             -9.0425   YY=            -11.9897   ZZ=            -10.5943
   XY=              1.2862   XZ=              0.0000   YZ=             -0.0000

 Normal termination of Gaussian 09 at Thu Feb  9 15:44:46 2017.
