 Gaussian 09, Revision E.01,
 Gaussian 09:  ES64L-G09RevE.01 30-Nov-2015

 ----------------------------------------------------------------------
 #rhf/gen scf(symm,tight,novaracc,noincfock,fulldiag) stable(crhf) geom
 =nocrowd test
 ----------------------------------------------------------------------

 ----------------------------------------------------------------------
 hf stability analysis of h10 triangular lattice, y= 1.4355804989048313
 ----------------------------------------------------------------------
 Symbolic Z-matrix:
 Charge =  0 Multiplicity = 1

                         Standard orientation:
 ---------------------------------------------------------------------
 Center     Atomic      Atomic             Coordinates (Angstroms)
 Number     Number       Type             X           Y           Z
 ---------------------------------------------------------------------
      1          1           0        2.871161    0.402172   -0.000000
      2          1           0        1.435580    0.804344   -0.000000
      3          1           0        1.435580    0.000000   -0.000000
      4          1           0        0.000000    0.402172    0.000000
      5          1           0       -0.000000   -0.402172    0.000000
      6          1           0       -1.435580    0.000000   -0.000000
      7          1           0       -1.435580   -0.804344   -0.000000
      8          1           0       -2.871161   -0.402172   -0.000000
 ---------------------------------------------------------------------

 SCF Done:  E(RHF) =  -3.85495187453     A.U. after   10 cycles
 E2 =    -0.2192530803D+00 EUMP2 =    -0.40742049548545D+01

 The electronic state is 1-AG.
 Alpha  occ. eigenvalues --   -0.79613  -0.67873  -0.51261  -0.16465
 Alpha virt. eigenvalues --   -0.01829   0.15646   0.33369   0.54304

 Mulliken charges:
               1
     1  H   -0.159344
     2  H    0.054403
     3  H    0.078072
     4  H    0.026869
     5  H    0.026869
     6  H    0.078072
     7  H    0.054403
     8  H   -0.159344
 Sum of Mulliken charges =   0.00000

 Dipole moment (field-independent basis, Debye):
    X=              0.0000    Y=             -0.0000    Z=              0.0000  Tot=              0.0000
 Quadrupole moment (field-independent basis, Debye-Ang):
   XX=            -24.2997   YY=             -9.1959   ZZ=            -10.4272
   XY=             -1.9177   XZ=              0.0000   YZ=              0.0000

 Normal termination of Gaussian 09 at Thu Feb  9 15:52:49 2017.
