 Gaussian 09, Revision E.01,
 Gaussian 09:  ES64L-G09RevE.01 30-Nov-2015

 ----------------------------------------------------------------------
 #rhf/gen scf(symm,tight,novaracc,noincfock,fulldiag) stable(crhf) geom
 =nocrowd test
 ----------------------------------------------------------------------

 hf stability analysis of h10 triangular lattice, y= 0.9621591990663992
 4
 ----------------------------------------------------------------------
 Symbolic Z-matrix:
 Charge =  0 Multiplicity = 1

                         Standard orientation:
 ---------------------------------------------------------------------
 Center     Atomic      Atomic             Coordinates (Angstroms)
 Number     Number       Type             X           Y           Z
 ---------------------------------------------------------------------
      1          1           0        1.924318    0.600057    0.000000
      2          1           0        0.962159    1.200114    0.000000
      3          1           0        0.962159    0.000000    0.000000
      4          1           0        0.000000    0.600057    0.000000
      5          1           0       -0.000000   -0.600057    0.000000
      6          1           0       -0.962159    0.000000    0.000000
      7          1           0       -0.962159   -1.200114    0.000000
      8          1           0       -1.924318   -0.600057    0.000000
 ---------------------------------------------------------------------

 SCF Done:  E(RHF) =  -3.96354563981     A.U. after    9 cycles
 E2 =    -0.7999292542D-01 EUMP2 =    -0.40435385652229D+01

 The electronic state is 1-AG.
 Alpha  occ. eigenvalues --   -0.83354  -0.66746  -0.40656  -0.35730
 Alpha virt. eigenvalues --    0.07482   0.16218   0.45245   0.59654

 Mulliken charges:
               1
     1  H   -0.038424
     2  H    0.105149
     3  H    0.132724
     4  H   -0.199449
     5  H   -0.199449
     6  H    0.132724
     7  H    0.105149
     8  H   -0.038424
 Sum of Mulliken charges =   0.00000

 Dipole moment (field-independent basis, Debye):
    X=              0.0000    Y=             -0.0000    Z=             -0.0000  Tot=              0.0000
 Quadrupole moment (field-independent basis, Debye-Ang):
   XX=            -11.0913   YY=            -11.3292   ZZ=            -10.5232
   XY=              0.9972   XZ=             -0.0000   YZ=              0.0000

 Normal termination of Gaussian 09 at Thu Feb  9 15:39:03 2017.
