 Gaussian 09, Revision E.01,
 Gaussian 09:  ES64L-G09RevE.01 30-Nov-2015

 ----------------------------------------------------------------------
 #rhf/gen scf(symm,tight,novaracc,noincfock,fulldiag) stable(crhf) geom
 =nocrowd test
 ----------------------------------------------------------------------

 hf stability analysis of h10 triangular lattice, y= 0.9105785525071997
 7
 ----------------------------------------------------------------------
 Symbolic Z-matrix:
 Charge =  0 Multiplicity = 1

                         Standard orientation:
 ---------------------------------------------------------------------
 Center     Atomic      Atomic             Coordinates (Angstroms)
 Number     Number       Type             X           Y           Z
 ---------------------------------------------------------------------
      1          1           0        1.821157    0.634048    0.000000
      2          1           0        0.910579    1.268096   -0.000000
      3          1           0        0.910579    0.000000    0.000000
      4          1           0        0.000000    0.634048   -0.000000
      5          1           0       -0.000000   -0.634048   -0.000000
      6          1           0       -0.910579    0.000000    0.000000
      7          1           0       -0.910579   -1.268096    0.000000
      8          1           0       -1.821157   -0.634048    0.000000
 ---------------------------------------------------------------------

 SCF Done:  E(RHF) =  -3.97317621991     A.U. after   10 cycles
 E2 =    -0.7990973656D-01 EUMP2 =    -0.40530859564639D+01

 The electronic state is 1-AG.
 Alpha  occ. eigenvalues --   -0.84149  -0.66709  -0.40301  -0.37919
 Alpha virt. eigenvalues --    0.06030   0.19370   0.42779   0.68036

 Mulliken charges:
               1
     1  H   -0.043442
     2  H    0.102809
     3  H    0.113848
     4  H   -0.173215
     5  H   -0.173215
     6  H    0.113848
     7  H    0.102809
     8  H   -0.043442
 Sum of Mulliken charges =  -0.00000

 Dipole moment (field-independent basis, Debye):
    X=              0.0000    Y=              0.0000    Z=              0.0000  Tot=              0.0000
 Quadrupole moment (field-independent basis, Debye-Ang):
   XX=            -11.6237   YY=            -11.1657   ZZ=            -10.4930
   XY=              0.7236   XZ=             -0.0000   YZ=              0.0000

 Normal termination of Gaussian 09 at Thu Feb  9 15:36:35 2017.
