 Gaussian 09, Revision E.01,
 Gaussian 09:  ES64L-G09RevE.01 30-Nov-2015

 ----------------------------------------------------------------------
 #rhf/gen scf(symm,tight,novaracc,noincfock,fulldiag) stable(crhf) geom
 =nocrowd test
 ----------------------------------------------------------------------

 hf stability analysis of h10 triangular lattice, y= 0.9225735451415472
 1
 ----------------------------------------------------------------------
 Symbolic Z-matrix:
 Charge =  0 Multiplicity = 1

                         Standard orientation:
 ---------------------------------------------------------------------
 Center     Atomic      Atomic             Coordinates (Angstroms)
 Number     Number       Type             X           Y           Z
 ---------------------------------------------------------------------
      1          1           0        1.845147    0.625804    0.000000
      2          1           0        0.922574    1.251608    0.000000
      3          1           0        0.922574    0.000000    0.000000
      4          1           0        0.000000    0.625804    0.000000
      5          1           0       -0.000000   -0.625804    0.000000
      6          1           0       -0.922574    0.000000    0.000000
      7          1           0       -0.922574   -1.251608    0.000000
      8          1           0       -1.845147   -0.625804    0.000000
 ---------------------------------------------------------------------

 SCF Done:  E(RHF) =  -3.97151559006     A.U. after   10 cycles
 E2 =    -0.7982098940D-01 EUMP2 =    -0.40513365794620D+01

 The electronic state is 1-AG.
 Alpha  occ. eigenvalues --   -0.83980  -0.66725  -0.40382  -0.37448
 Alpha virt. eigenvalues --    0.06346   0.18627   0.43364   0.66096

 Mulliken charges:
               1
     1  H   -0.043218
     2  H    0.104482
     3  H    0.119133
     4  H   -0.180397
     5  H   -0.180397
     6  H    0.119133
     7  H    0.104482
     8  H   -0.043218
 Sum of Mulliken charges =  -0.00000

 Dipole moment (field-independent basis, Debye):
    X=             -0.0000    Y=             -0.0000    Z=              0.0000  Tot=              0.0000
 Quadrupole moment (field-independent basis, Debye-Ang):
   XX=            -11.5255   YY=            -11.1936   ZZ=            -10.4999
   XY=              0.7902   XZ=              0.0000   YZ=             -0.0000

 Normal termination of Gaussian 09 at Thu Feb  9 15:37:11 2017.
