 Gaussian 09, Revision E.01,
 Gaussian 09:  ES64L-G09RevE.01 30-Nov-2015

 ----------------------------------------------------------------------
 #rhf/gen scf(symm,tight,novaracc,noincfock,fulldiag) stable(crhf) geom
 =nocrowd test
 ----------------------------------------------------------------------

 hf stability analysis of h10 triangular lattice, y= 0.8354020730679347
 9
 ----------------------------------------------------------------------
 Symbolic Z-matrix:
 Charge =  0 Multiplicity = 1

                         Standard orientation:
 ---------------------------------------------------------------------
 Center     Atomic      Atomic             Coordinates (Angstroms)
 Number     Number       Type             X           Y           Z
 ---------------------------------------------------------------------
      1          1           0        1.670804    0.691105   -0.000000
      2          1           0        0.835402    1.382209   -0.000000
      3          1           0        0.835402    0.000000   -0.000000
      4          1           0        0.000000    0.691105   -0.000000
      5          1           0       -0.000000   -0.691105   -0.000000
      6          1           0       -0.835402    0.000000   -0.000000
      7          1           0       -0.835402   -1.382209   -0.000000
      8          1           0       -1.670804   -0.691105   -0.000000
 ---------------------------------------------------------------------

 SCF Done:  E(RHF) =  -3.97763417858     A.U. after   10 cycles
 E2 =    -0.8156375745D-01 EUMP2 =    -0.40591979360298D+01

 The electronic state is 1-AG.
 Alpha  occ. eigenvalues --   -0.84950  -0.66557  -0.40219  -0.39855
 Alpha virt. eigenvalues --    0.04477   0.23889   0.39116   0.78899

 Mulliken charges:
               1
     1  H   -0.027369
     2  H    0.074648
     3  H    0.063376
     4  H   -0.110656
     5  H   -0.110656
     6  H    0.063376
     7  H    0.074648
     8  H   -0.027369
 Sum of Mulliken charges =  -0.00000

 Dipole moment (field-independent basis, Debye):
    X=             -0.0000    Y=              0.0000    Z=             -0.0000  Tot=              0.0000
 Quadrupole moment (field-independent basis, Debye-Ang):
   XX=            -11.8544   YY=            -11.1844   ZZ=            -10.4553
   XY=              0.3258   XZ=             -0.0000   YZ=              0.0000

 Normal termination of Gaussian 09 at Thu Feb  9 15:32:47 2017.
