 Gaussian 09, Revision E.01,
 Gaussian 09:  ES64L-G09RevE.01 30-Nov-2015

 ----------------------------------------------------------------------
 #rhf/gen scf(symm,tight,novaracc,noincfock,fulldiag) stable(crhf) geom
 =nocrowd test
 ----------------------------------------------------------------------

 ----------------------------------------------------------------------
 hf stability analysis of h10 triangular lattice, y= 1.8188096772254154
 ----------------------------------------------------------------------
 Symbolic Z-matrix:
 Charge =  0 Multiplicity = 1

                         Standard orientation:
 ---------------------------------------------------------------------
 Center     Atomic      Atomic             Coordinates (Angstroms)
 Number     Number       Type             X           Y           Z
 ---------------------------------------------------------------------
      1          1           0        3.637619    0.317433    0.000000
      2          1           0        1.818810    0.634866    0.000000
      3          1           0        1.818810    0.000000    0.000000
      4          1           0        0.000000    0.317433   -0.000000
      5          1           0       -0.000000   -0.317433   -0.000000
      6          1           0       -1.818810    0.000000    0.000000
      7          1           0       -1.818810   -0.634866    0.000000
      8          1           0       -3.637619   -0.317433    0.000000
 ---------------------------------------------------------------------

 SCF Done:  E(RHF) =  -3.85717223703     A.U. after    7 cycles
 E2 =    -0.5092496785D+00 EUMP2 =    -0.43664219154914D+01

 The electronic state is 1-AG.
 Alpha  occ. eigenvalues --   -0.73775  -0.67997  -0.60070  -0.19909
 Alpha virt. eigenvalues --   -0.12073   0.35823   0.48206   0.63672

 Mulliken charges:
               1
     1  H   -0.022190
     2  H    0.009269
     3  H    0.008882
     4  H    0.004039
     5  H    0.004039
     6  H    0.008882
     7  H    0.009269
     8  H   -0.022190
 Sum of Mulliken charges =   0.00000

 Dipole moment (field-independent basis, Debye):
    X=              0.0000    Y=             -0.0000    Z=             -0.0000  Tot=              0.0000
 Quadrupole moment (field-independent basis, Debye-Ang):
   XX=            -15.7622   YY=             -9.5859   ZZ=            -10.5695
   XY=             -0.4817   XZ=              0.0000   YZ=             -0.0000

 Normal termination of Gaussian 09 at Thu Feb  9 15:57:40 2017.
