 Gaussian 09, Revision E.01,
 Gaussian 09:  ES64L-G09RevE.01 30-Nov-2015

 ----------------------------------------------------------------------
 #rhf/gen scf(symm,tight,novaracc,noincfock,fulldiag) stable(crhf) geom
 =nocrowd test
 ----------------------------------------------------------------------

 hf stability analysis of h10 triangular lattice, y= 0.9208433600613213
 9
 ----------------------------------------------------------------------
 Symbolic Z-matrix:
 Charge =  0 Multiplicity = 1

                         Standard orientation:
 ---------------------------------------------------------------------
 Center     Atomic      Atomic             Coordinates (Angstroms)
 Number     Number       Type             X           Y           Z
 ---------------------------------------------------------------------
      1          1           0        1.841687    0.626980    0.000000
      2          1           0        0.920843    1.253960    0.000000
      3          1           0        0.920843    0.000000    0.000000
      4          1           0        0.000000    0.626980    0.000000
      5          1           0       -0.000000   -0.626980   -0.000000
      6          1           0       -0.920843    0.000000    0.000000
      7          1           0       -0.920843   -1.253960    0.000000
      8          1           0       -1.841687   -0.626980    0.000000
 ---------------------------------------------------------------------

 SCF Done:  E(RHF) =  -3.97177535785     A.U. after   10 cycles
 E2 =    -0.7982988469D-01 EUMP2 =    -0.40516052425460D+01

 The electronic state is 1-AG.
 Alpha  occ. eigenvalues --   -0.84005  -0.66723  -0.40370  -0.37518
 Alpha virt. eigenvalues --    0.06299   0.18734   0.43280   0.66377

 Mulliken charges:
               1
     1  H   -0.043290
     2  H    0.104285
     3  H    0.118409
     4  H   -0.179405
     5  H   -0.179405
     6  H    0.118409
     7  H    0.104285
     8  H   -0.043290
 Sum of Mulliken charges =  -0.00000

 Dipole moment (field-independent basis, Debye):
    X=              0.0000    Y=              0.0000    Z=              0.0000  Tot=              0.0000
 Quadrupole moment (field-independent basis, Debye-Ang):
   XX=            -11.5407   YY=            -11.1892   ZZ=            -10.4989
   XY=              0.7806   XZ=              0.0000   YZ=             -0.0000

 Normal termination of Gaussian 09 at Thu Feb  9 15:37:06 2017.
