 Gaussian 09, Revision E.01,
 Gaussian 09:  ES64L-G09RevE.01 30-Nov-2015

 ----------------------------------------------------------------------
 #rhf/gen scf(symm,tight,novaracc,noincfock,fulldiag) stable(crhf) geom
 =nocrowd test
 ----------------------------------------------------------------------

 ----------------------------------------------------------------------
 hf stability analysis of h10 triangular lattice, y= 1.0714165029145688
 ----------------------------------------------------------------------
 Symbolic Z-matrix:
 Charge =  0 Multiplicity = 1

                         Standard orientation:
 ---------------------------------------------------------------------
 Center     Atomic      Atomic             Coordinates (Angstroms)
 Number     Number       Type             X           Y           Z
 ---------------------------------------------------------------------
      1          1           0        2.142833    0.538866   -0.000000
      2          1           0        1.071416    1.077733   -0.000000
      3          1           0        1.071416    0.000000   -0.000000
      4          1           0        0.000000    0.538866    0.000000
      5          1           0       -0.000000   -0.538866    0.000000
      6          1           0       -1.071416    0.000000   -0.000000
      7          1           0       -1.071416   -1.077733    0.000000
      8          1           0       -2.142833   -0.538866    0.000000
 ---------------------------------------------------------------------

 SCF Done:  E(RHF) =  -3.91955412549     A.U. after   10 cycles
 E2 =    -0.8418581433D-01 EUMP2 =    -0.40037399398150D+01

 The electronic state is 1-AG.
 Alpha  occ. eigenvalues --   -0.81310  -0.66598  -0.41371  -0.30084
 Alpha virt. eigenvalues --    0.10326   0.10878   0.43317   0.49812

 Mulliken charges:
               1
     1  H   -0.011365
     2  H    0.078963
     3  H    0.157112
     4  H   -0.224710
     5  H   -0.224710
     6  H    0.157112
     7  H    0.078963
     8  H   -0.011365
 Sum of Mulliken charges =  -0.00000

 Dipole moment (field-independent basis, Debye):
    X=              0.0000    Y=              0.0000    Z=             -0.0000  Tot=              0.0000
 Quadrupole moment (field-independent basis, Debye-Ang):
   XX=             -9.4191   YY=            -11.8515   ZZ=            -10.5815
   XY=              1.3292   XZ=             -0.0000   YZ=              0.0000

 Normal termination of Gaussian 09 at Thu Feb  9 15:43:28 2017.
