 Gaussian 09, Revision E.01,
 Gaussian 09:  ES64L-G09RevE.01 30-Nov-2015

 ----------------------------------------------------------------------
 #rhf/gen scf(symm,tight,novaracc,noincfock,fulldiag) stable(crhf) geom
 =nocrowd test
 ----------------------------------------------------------------------

 hf stability analysis of h10 triangular lattice, y= 0.9392996027124712
 6
 ----------------------------------------------------------------------
 Symbolic Z-matrix:
 Charge =  0 Multiplicity = 1

                         Standard orientation:
 ---------------------------------------------------------------------
 Center     Atomic      Atomic             Coordinates (Angstroms)
 Number     Number       Type             X           Y           Z
 ---------------------------------------------------------------------
      1          1           0        1.878599    0.614660    0.000000
      2          1           0        0.939300    1.229321   -0.000000
      3          1           0        0.939300    0.000000    0.000000
      4          1           0        0.000000    0.614660   -0.000000
      5          1           0       -0.000000   -0.614660   -0.000000
      6          1           0       -0.939300    0.000000    0.000000
      7          1           0       -0.939300   -1.229321   -0.000000
      8          1           0       -1.878599   -0.614660    0.000000
 ---------------------------------------------------------------------

 SCF Done:  E(RHF) =  -3.96863408753     A.U. after   10 cycles
 E2 =    -0.7980503957D-01 EUMP2 =    -0.40484391271001D+01

 The electronic state is 1-AG.
 Alpha  occ. eigenvalues --   -0.83727  -0.66739  -0.40498  -0.36751
 Alpha virt. eigenvalues --    0.06810   0.17599   0.44170   0.63371

 Mulliken charges:
               1
     1  H   -0.041881
     2  H    0.105630
     3  H    0.125522
     4  H   -0.189272
     5  H   -0.189272
     6  H    0.125522
     7  H    0.105630
     8  H   -0.041881
 Sum of Mulliken charges =  -0.00000

 Dipole moment (field-independent basis, Debye):
    X=              0.0000    Y=             -0.0000    Z=              0.0000  Tot=              0.0000
 Quadrupole moment (field-independent basis, Debye-Ang):
   XX=            -11.3617   YY=            -11.2436   ZZ=            -10.5097
   XY=              0.8807   XZ=              0.0000   YZ=             -0.0000

 Normal termination of Gaussian 09 at Thu Feb  9 15:37:59 2017.
