 Gaussian 09, Revision E.01,
 Gaussian 09:  ES64L-G09RevE.01 30-Nov-2015

 ----------------------------------------------------------------------
 #rhf/gen scf(symm,tight,novaracc,noincfock,fulldiag) stable(crhf) geom
 =nocrowd test
 ----------------------------------------------------------------------

 ----------------------------------------------------------------------
 hf stability analysis of h10 triangular lattice, y= 1.1281674130044770
 ----------------------------------------------------------------------
 Symbolic Z-matrix:
 Charge =  0 Multiplicity = 1

                         Standard orientation:
 ---------------------------------------------------------------------
 Center     Atomic      Atomic             Coordinates (Angstroms)
 Number     Number       Type             X           Y           Z
 ---------------------------------------------------------------------
      1          1           0        2.256335    0.511759   -0.000000
      2          1           0        1.128167    1.023519   -0.000000
      3          1           0        1.128167   -0.000000   -0.000000
      4          1           0        0.000000    0.511759   -0.000000
      5          1           0       -0.000000   -0.511759   -0.000000
      6          1           0       -1.128167    0.000000   -0.000000
      7          1           0       -1.128167   -1.023519   -0.000000
      8          1           0       -2.256335   -0.511759   -0.000000
 ---------------------------------------------------------------------

 SCF Done:  E(RHF) =  -3.88601080894     A.U. after   10 cycles
 E2 =    -0.8874377061D-01 EUMP2 =    -0.39747545795490D+01

 The electronic state is 1-AG.
 Alpha  occ. eigenvalues --   -0.80357  -0.66523  -0.41797  -0.26964
 Alpha virt. eigenvalues --    0.08059   0.12271   0.36281   0.51560

 Mulliken charges:
               1
     1  H   -0.007615
     2  H    0.057401
     3  H    0.173325
     4  H   -0.223111
     5  H   -0.223111
     6  H    0.173325
     7  H    0.057401
     8  H   -0.007615
 Sum of Mulliken charges =   0.00000

 Dipole moment (field-independent basis, Debye):
    X=              0.0000    Y=              0.0000    Z=             -0.0000  Tot=              0.0000
 Quadrupole moment (field-independent basis, Debye-Ang):
   XX=             -9.0303   YY=            -12.0251   ZZ=            -10.5978
   XY=              1.2082   XZ=              0.0000   YZ=             -0.0000

 Normal termination of Gaussian 09 at Thu Feb  9 15:45:24 2017.
