 Gaussian 09, Revision E.01,
 Gaussian 09:  ES64L-G09RevE.01 30-Nov-2015

 ----------------------------------------------------------------------
 #rhf/gen scf(symm,tight,novaracc,noincfock,fulldiag) stable(crhf) geom
 =nocrowd test
 ----------------------------------------------------------------------

 ----------------------------------------------------------------------
 hf stability analysis of h10 triangular lattice, y= 1.4477766504653917
 ----------------------------------------------------------------------
 Symbolic Z-matrix:
 Charge =  0 Multiplicity = 1

                         Standard orientation:
 ---------------------------------------------------------------------
 Center     Atomic      Atomic             Coordinates (Angstroms)
 Number     Number       Type             X           Y           Z
 ---------------------------------------------------------------------
      1          1           0        2.895553    0.398784   -0.000000
      2          1           0        1.447777    0.797568   -0.000000
      3          1           0        1.447777    0.000000   -0.000000
      4          1           0        0.000000    0.398784   -0.000000
      5          1           0       -0.000000   -0.398784   -0.000000
      6          1           0       -1.447777    0.000000   -0.000000
      7          1           0       -1.447777   -0.797568   -0.000000
      8          1           0       -2.895553   -0.398784   -0.000000
 ---------------------------------------------------------------------

 SCF Done:  E(RHF) =  -3.85864366919     A.U. after   10 cycles
 E2 =    -0.2294529568D+00 EUMP2 =    -0.40880966260356D+01

 The electronic state is 1-AG.
 Alpha  occ. eigenvalues --   -0.79355  -0.67831  -0.51576  -0.16551
 Alpha virt. eigenvalues --   -0.02377   0.16368   0.33908   0.54683

 Mulliken charges:
               1
     1  H   -0.153134
     2  H    0.052425
     3  H    0.073140
     4  H    0.027570
     5  H    0.027570
     6  H    0.073140
     7  H    0.052425
     8  H   -0.153134
 Sum of Mulliken charges =   0.00000

 Dipole moment (field-independent basis, Debye):
    X=             -0.0000    Y=              0.0000    Z=              0.0000  Tot=              0.0000
 Quadrupole moment (field-independent basis, Debye-Ang):
   XX=            -24.1105   YY=             -9.1874   ZZ=            -10.4293
   XY=             -1.8658   XZ=              0.0000   YZ=              0.0000

 Normal termination of Gaussian 09 at Thu Feb  9 15:53:02 2017.
