 Gaussian 09, Revision E.01,
 Gaussian 09:  ES64L-G09RevE.01 30-Nov-2015

 ----------------------------------------------------------------------
 #rhf/gen scf(symm,tight,novaracc,noincfock,fulldiag) stable(crhf) geom
 =nocrowd test
 ----------------------------------------------------------------------

 hf stability analysis of h10 triangular lattice, y= 0.9565797678394015
 7
 ----------------------------------------------------------------------
 Symbolic Z-matrix:
 Charge =  0 Multiplicity = 1

                         Standard orientation:
 ---------------------------------------------------------------------
 Center     Atomic      Atomic             Coordinates (Angstroms)
 Number     Number       Type             X           Y           Z
 ---------------------------------------------------------------------
      1          1           0        1.913160    0.603557    0.000000
      2          1           0        0.956580    1.207114    0.000000
      3          1           0        0.956580    0.000000    0.000000
      4          1           0       -0.000000    0.603557   -0.000000
      5          1           0       -0.000000   -0.603557   -0.000000
      6          1           0       -0.956580    0.000000    0.000000
      7          1           0       -0.956580   -1.207114   -0.000000
      8          1           0       -1.913160   -0.603557    0.000000
 ---------------------------------------------------------------------

 SCF Done:  E(RHF) =  -3.96491500943     A.U. after    9 cycles
 E2 =    -0.7992457518D-01 EUMP2 =    -0.40448395846092D+01

 The electronic state is 1-AG.
 Alpha  occ. eigenvalues --   -0.83448  -0.66746  -0.40617  -0.35986
 Alpha virt. eigenvalues --    0.07314   0.16552   0.44986   0.60558

 Mulliken charges:
               1
     1  H   -0.039419
     2  H    0.105471
     3  H    0.131107
     4  H   -0.197158
     5  H   -0.197158
     6  H    0.131107
     7  H    0.105471
     8  H   -0.039419
 Sum of Mulliken charges =   0.00000

 Dipole moment (field-independent basis, Debye):
    X=              0.0000    Y=              0.0000    Z=              0.0000  Tot=              0.0000
 Quadrupole moment (field-independent basis, Debye-Ang):
   XX=            -11.1619   YY=            -11.3067   ZZ=            -10.5199
   XY=              0.9697   XZ=              0.0000   YZ=             -0.0000

 Normal termination of Gaussian 09 at Thu Feb  9 15:38:47 2017.
