 Gaussian 09, Revision E.01,
 Gaussian 09:  ES64L-G09RevE.01 30-Nov-2015

 ----------------------------------------------------------------------
 #rhf/gen scf(symm,tight,novaracc,noincfock,fulldiag) stable(crhf) geom
 =nocrowd test
 ----------------------------------------------------------------------

 ----------------------------------------------------------------------
 hf stability analysis of h10 triangular lattice, y= 1.4861289010746450
 ----------------------------------------------------------------------
 Symbolic Z-matrix:
 Charge =  0 Multiplicity = 1

                         Standard orientation:
 ---------------------------------------------------------------------
 Center     Atomic      Atomic             Coordinates (Angstroms)
 Number     Number       Type             X           Y           Z
 ---------------------------------------------------------------------
      1          1           0        2.972258    0.388493    0.000000
      2          1           0        1.486129    0.776986    0.000000
      3          1           0        1.486129    0.000000    0.000000
      4          1           0        0.000000    0.388493    0.000000
      5          1           0       -0.000000   -0.388493    0.000000
      6          1           0       -1.486129    0.000000    0.000000
      7          1           0       -1.486129   -0.776986    0.000000
      8          1           0       -2.972258   -0.388493    0.000000
 ---------------------------------------------------------------------

 SCF Done:  E(RHF) =  -3.86900027213     A.U. after   10 cycles
 E2 =    -0.2609534578D+00 EUMP2 =    -0.41299537299389D+01

 The electronic state is 1-AG.
 Alpha  occ. eigenvalues --   -0.78516  -0.67699  -0.52512  -0.16908
 Alpha virt. eigenvalues --   -0.03980   0.18650   0.35599   0.55890

 Mulliken charges:
               1
     1  H   -0.132741
     2  H    0.045948
     3  H    0.059937
     4  H    0.026856
     5  H    0.026856
     6  H    0.059937
     7  H    0.045948
     8  H   -0.132741
 Sum of Mulliken charges =  -0.00000

 Dipole moment (field-independent basis, Debye):
    X=              0.0000    Y=              0.0000    Z=             -0.0000  Tot=              0.0000
 Quadrupole moment (field-independent basis, Debye-Ang):
   XX=            -23.2961   YY=             -9.1904   ZZ=            -10.4387
   XY=             -1.6781   XZ=              0.0000   YZ=             -0.0000

 Normal termination of Gaussian 09 at Thu Feb  9 15:53:40 2017.
