 Gaussian 09, Revision E.01,
 Gaussian 09:  ES64L-G09RevE.01 30-Nov-2015

 ----------------------------------------------------------------------
 #rhf/gen scf(symm,tight,novaracc,noincfock,fulldiag) stable(crhf) geom
 =nocrowd test
 ----------------------------------------------------------------------

 ----------------------------------------------------------------------
 hf stability analysis of h10 triangular lattice, y= 1.3552522653158787
 ----------------------------------------------------------------------
 Symbolic Z-matrix:
 Charge =  0 Multiplicity = 1

                         Standard orientation:
 ---------------------------------------------------------------------
 Center     Atomic      Atomic             Coordinates (Angstroms)
 Number     Number       Type             X           Y           Z
 ---------------------------------------------------------------------
      1          1           0        2.710505    0.426009    0.000000
      2          1           0        1.355252    0.852019    0.000000
      3          1           0        1.355252    0.000000    0.000000
      4          1           0        0.000000    0.426009   -0.000000
      5          1           0       -0.000000   -0.426009   -0.000000
      6          1           0       -1.355252    0.000000    0.000000
      7          1           0       -1.355252   -0.852019   -0.000000
      8          1           0       -2.710505   -0.426009    0.000000
 ---------------------------------------------------------------------

 SCF Done:  E(RHF) =  -3.82955999667     A.U. after   11 cycles
 E2 =    -0.1499923169D+00 EUMP2 =    -0.39795523135677D+01

 The electronic state is 1-AG.
 Alpha  occ. eigenvalues --   -0.80748  -0.67986  -0.48672  -0.16771
 Alpha virt. eigenvalues --    0.02380   0.11236   0.30014   0.52326

 Mulliken charges:
               1
     1  H   -0.179826
     2  H    0.062148
     3  H    0.123037
     4  H   -0.005358
     5  H   -0.005358
     6  H    0.123037
     7  H    0.062148
     8  H   -0.179826
 Sum of Mulliken charges =  -0.00000

 Dipole moment (field-independent basis, Debye):
    X=             -0.0000    Y=             -0.0000    Z=             -0.0000  Tot=              0.0000
 Quadrupole moment (field-independent basis, Debye-Ang):
   XX=            -23.4358   YY=             -9.5316   ZZ=            -10.4375
   XY=             -1.9169   XZ=              0.0000   YZ=              0.0000

 Normal termination of Gaussian 09 at Thu Feb  9 15:51:17 2017.
