 Gaussian 09, Revision E.01,
 Gaussian 09:  ES64L-G09RevE.01 30-Nov-2015

 ----------------------------------------------------------------------
 #rhf/gen scf(symm,tight,novaracc,noincfock,fulldiag) stable(crhf) geom
 =nocrowd test
 ----------------------------------------------------------------------

 ----------------------------------------------------------------------
 hf stability analysis of h10 triangular lattice, y= 1.3004293760427814
 ----------------------------------------------------------------------
 Symbolic Z-matrix:
 Charge =  0 Multiplicity = 1

                         Standard orientation:
 ---------------------------------------------------------------------
 Center     Atomic      Atomic             Coordinates (Angstroms)
 Number     Number       Type             X           Y           Z
 ---------------------------------------------------------------------
      1          1           0        2.600859    0.443969    0.000000
      2          1           0        1.300429    0.887938    0.000000
      3          1           0        1.300429    0.000000    0.000000
      4          1           0        0.000000    0.443969    0.000000
      5          1           0       -0.000000   -0.443969    0.000000
      6          1           0       -1.300429    0.000000    0.000000
      7          1           0       -1.300429   -0.887938    0.000000
      8          1           0       -2.600859   -0.443969    0.000000
 ---------------------------------------------------------------------

 SCF Done:  E(RHF) =  -3.81990834932     A.U. after   12 cycles
 E2 =    -0.1172131082D+00 EUMP2 =    -0.39371214575242D+01

 The electronic state is 1-AG.
 Alpha  occ. eigenvalues --   -0.80580  -0.67671  -0.46293  -0.18451
 Alpha virt. eigenvalues --    0.06100   0.08894   0.28346   0.52030

 Mulliken charges:
               1
     1  H   -0.151008
     2  H    0.056683
     3  H    0.160901
     4  H   -0.066576
     5  H   -0.066576
     6  H    0.160901
     7  H    0.056683
     8  H   -0.151008
 Sum of Mulliken charges =  -0.00000

 Dipole moment (field-independent basis, Debye):
    X=              0.0000    Y=              0.0000    Z=             -0.0000  Tot=              0.0000
 Quadrupole moment (field-independent basis, Debye-Ang):
   XX=            -19.6400   YY=            -10.2172   ZZ=            -10.4819
   XY=             -1.2963   XZ=             -0.0000   YZ=             -0.0000

 Normal termination of Gaussian 09 at Thu Feb  9 15:50:06 2017.
