 Gaussian 09, Revision E.01,
 Gaussian 09:  ES64L-G09RevE.01 30-Nov-2015

 ----------------------------------------------------------------------
 #rhf/gen scf(symm,tight,novaracc,noincfock,fulldiag) stable(crhf) geom
 =nocrowd test
 ----------------------------------------------------------------------

 ----------------------------------------------------------------------
 hf stability analysis of h10 triangular lattice, y= 1.5302699011377114
 ----------------------------------------------------------------------
 Symbolic Z-matrix:
 Charge =  0 Multiplicity = 1

                         Standard orientation:
 ---------------------------------------------------------------------
 Center     Atomic      Atomic             Coordinates (Angstroms)
 Number     Number       Type             X           Y           Z
 ---------------------------------------------------------------------
      1          1           0        3.060540    0.377287    0.000000
      2          1           0        1.530270    0.754573    0.000000
      3          1           0        1.530270    0.000000    0.000000
      4          1           0        0.000000    0.377287    0.000000
      5          1           0       -0.000000   -0.377287   -0.000000
      6          1           0       -1.530270    0.000000    0.000000
      7          1           0       -1.530270   -0.754573    0.000000
      8          1           0       -3.060540   -0.377287    0.000000
 ---------------------------------------------------------------------

 SCF Done:  E(RHF) =  -3.87810142322     A.U. after    9 cycles
 E2 =    -0.2967655917D+00 EUMP2 =    -0.41748670149540D+01

 The electronic state is 1-AG.
 Alpha  occ. eigenvalues --   -0.77574  -0.67576  -0.53537  -0.17386
 Alpha virt. eigenvalues --   -0.05614   0.21245   0.37510   0.57240

 Mulliken charges:
               1
     1  H   -0.109963
     2  H    0.038655
     3  H    0.047912
     4  H    0.023396
     5  H    0.023396
     6  H    0.047912
     7  H    0.038655
     8  H   -0.109963
 Sum of Mulliken charges =  -0.00000

 Dipole moment (field-independent basis, Debye):
    X=             -0.0000    Y=              0.0000    Z=             -0.0000  Tot=              0.0000
 Quadrupole moment (field-independent basis, Debye-Ang):
   XX=            -22.1581   YY=             -9.2241   ZZ=            -10.4524
   XY=             -1.4524   XZ=              0.0000   YZ=              0.0000

 Normal termination of Gaussian 09 at Thu Feb  9 15:54:21 2017.
