 Gaussian 09, Revision E.01,
 Gaussian 09:  ES64L-G09RevE.01 30-Nov-2015

 ----------------------------------------------------------------------
 #rhf/gen scf(symm,tight,novaracc,noincfock,fulldiag) stable(crhf) geom
 =nocrowd test
 ----------------------------------------------------------------------

 ----------------------------------------------------------------------
 hf stability analysis of h10 triangular lattice, y= 1.0163890700006153
 ----------------------------------------------------------------------
 Symbolic Z-matrix:
 Charge =  0 Multiplicity = 1

                         Standard orientation:
 ---------------------------------------------------------------------
 Center     Atomic      Atomic             Coordinates (Angstroms)
 Number     Number       Type             X           Y           Z
 ---------------------------------------------------------------------
      1          1           0        2.032778    0.568041   -0.000000
      2          1           0        1.016389    1.136081   -0.000000
      3          1           0        1.016389    0.000000   -0.000000
      4          1           0        0.000000    0.568041   -0.000000
      5          1           0       -0.000000   -0.568041   -0.000000
      6          1           0       -1.016389    0.000000   -0.000000
      7          1           0       -1.016389   -1.136081   -0.000000
      8          1           0       -2.032778   -0.568041   -0.000000
 ---------------------------------------------------------------------

 SCF Done:  E(RHF) =  -3.94575155648     A.U. after    9 cycles
 E2 =    -0.8140049823D-01 EUMP2 =    -0.40271520547060D+01

 The electronic state is 1-AG.
 Alpha  occ. eigenvalues --   -0.82368  -0.66702  -0.41019  -0.33048
 Alpha virt. eigenvalues --    0.09177   0.13114   0.47650   0.51157

 Mulliken charges:
               1
     1  H   -0.025395
     2  H    0.096171
     3  H    0.145414
     4  H   -0.216190
     5  H   -0.216190
     6  H    0.145414
     7  H    0.096171
     8  H   -0.025395
 Sum of Mulliken charges =   0.00000

 Dipole moment (field-independent basis, Debye):
    X=             -0.0000    Y=             -0.0000    Z=             -0.0000  Tot=              0.0000
 Quadrupole moment (field-independent basis, Debye-Ang):
   XX=            -10.2858   YY=            -11.5828   ZZ=            -10.5543
   XY=              1.2215   XZ=             -0.0000   YZ=              0.0000

 Normal termination of Gaussian 09 at Thu Feb  9 15:41:21 2017.
