 Gaussian 09, Revision E.01,
 Gaussian 09:  ES64L-G09RevE.01 30-Nov-2015

 ----------------------------------------------------------------------
 #rhf/gen scf(symm,tight,novaracc,noincfock,fulldiag) stable(crhf) geom
 =nocrowd test
 ----------------------------------------------------------------------

 hf stability analysis of h10 triangular lattice, y= 0.8099559021050455
 3
 ----------------------------------------------------------------------
 Symbolic Z-matrix:
 Charge =  0 Multiplicity = 1

                         Standard orientation:
 ---------------------------------------------------------------------
 Center     Atomic      Atomic             Coordinates (Angstroms)
 Number     Number       Type             X           Y           Z
 ---------------------------------------------------------------------
      1          1           0        1.619912    0.712817   -0.000000
      2          1           0        0.809956    1.425634   -0.000000
      3          1           0        0.809956    0.000000   -0.000000
      4          1           0       -0.000000    0.712817   -0.000000
      5          1           0       -0.000000   -0.712817   -0.000000
      6          1           0       -0.809956    0.000000   -0.000000
      7          1           0       -0.809956   -1.425634   -0.000000
      8          1           0       -1.619912   -0.712817   -0.000000
 ---------------------------------------------------------------------

 SCF Done:  E(RHF) =  -3.97772461195     A.U. after   10 cycles
 E2 =    -0.8224751920D-01 EUMP2 =    -0.40599721311462D+01

 The electronic state is 1-AG.
 Alpha  occ. eigenvalues --   -0.85109  -0.66506  -0.40697  -0.39753
 Alpha virt. eigenvalues --    0.04155   0.25170   0.38034   0.81512

 Mulliken charges:
               1
     1  H   -0.014391
     2  H    0.058482
     3  H    0.038552
     4  H   -0.082644
     5  H   -0.082644
     6  H    0.038552
     7  H    0.058482
     8  H   -0.014391
 Sum of Mulliken charges =   0.00000

 Dipole moment (field-independent basis, Debye):
    X=              0.0000    Y=             -0.0000    Z=             -0.0000  Tot=              0.0000
 Quadrupole moment (field-independent basis, Debye-Ang):
   XX=            -11.7934   YY=            -11.2739   ZZ=            -10.4465
   XY=              0.2254   XZ=              0.0000   YZ=             -0.0000

 Normal termination of Gaussian 09 at Thu Feb  9 15:31:28 2017.
