 Gaussian 09, Revision E.01,
 Gaussian 09:  ES64L-G09RevE.01 30-Nov-2015

 ----------------------------------------------------------------------
 #rhf/gen scf(symm,tight,novaracc,noincfock,fulldiag) stable(crhf) geom
 =nocrowd test
 ----------------------------------------------------------------------

 ----------------------------------------------------------------------
 hf stability analysis of h10 triangular lattice, y= 1.5941195507007735
 ----------------------------------------------------------------------
 Symbolic Z-matrix:
 Charge =  0 Multiplicity = 1

                         Standard orientation:
 ---------------------------------------------------------------------
 Center     Atomic      Atomic             Coordinates (Angstroms)
 Number     Number       Type             X           Y           Z
 ---------------------------------------------------------------------
      1          1           0        3.188239    0.362175   -0.000000
      2          1           0        1.594120    0.724350   -0.000000
      3          1           0        1.594120    0.000000   -0.000000
      4          1           0        0.000000    0.362175   -0.000000
      5          1           0       -0.000000   -0.362175   -0.000000
      6          1           0       -1.594120    0.000000   -0.000000
      7          1           0       -1.594120   -0.724350   -0.000000
      8          1           0       -3.188239   -0.362175   -0.000000
 ---------------------------------------------------------------------

 SCF Done:  E(RHF) =  -3.88539692168     A.U. after    8 cycles
 E2 =    -0.3481189167D+00 EUMP2 =    -0.42335158384305D+01

 The electronic state is 1-AG.
 Alpha  occ. eigenvalues --   -0.76358  -0.67480  -0.54993  -0.18083
 Alpha virt. eigenvalues --   -0.07619   0.24853   0.40161   0.59031

 Mulliken charges:
               1
     1  H   -0.081108
     2  H    0.029266
     3  H    0.034492
     4  H    0.017350
     5  H    0.017350
     6  H    0.034492
     7  H    0.029266
     8  H   -0.081108
 Sum of Mulliken charges =  -0.00000

 Dipole moment (field-independent basis, Debye):
    X=             -0.0000    Y=             -0.0000    Z=              0.0000  Tot=              0.0000
 Quadrupole moment (field-independent basis, Debye-Ang):
   XX=            -20.4460   YY=             -9.2957   ZZ=            -10.4750
   XY=             -1.1529   XZ=             -0.0000   YZ=              0.0000

 Normal termination of Gaussian 09 at Thu Feb  9 15:55:13 2017.
