 Gaussian 09, Revision E.01,
 Gaussian 09:  ES64L-G09RevE.01 30-Nov-2015

 ----------------------------------------------------------------------
 #rhf/gen scf(symm,tight,novaracc,noincfock,fulldiag) stable(crhf) geom
 =nocrowd test
 ----------------------------------------------------------------------

 ----------------------------------------------------------------------
 hf stability analysis of h10 triangular lattice, y= 1.6341209389415596
 ----------------------------------------------------------------------
 Symbolic Z-matrix:
 Charge =  0 Multiplicity = 1

                         Standard orientation:
 ---------------------------------------------------------------------
 Center     Atomic      Atomic             Coordinates (Angstroms)
 Number     Number       Type             X           Y           Z
 ---------------------------------------------------------------------
      1          1           0        3.268242    0.353309   -0.000000
      2          1           0        1.634121    0.706619   -0.000000
      3          1           0        1.634121    0.000000   -0.000000
      4          1           0        0.000000    0.353309    0.000000
      5          1           0       -0.000000   -0.353309    0.000000
      6          1           0       -1.634121    0.000000   -0.000000
      7          1           0       -1.634121   -0.706619   -0.000000
      8          1           0       -3.268242   -0.353309   -0.000000
 ---------------------------------------------------------------------

 SCF Done:  E(RHF) =  -3.88638070052     A.U. after    8 cycles
 E2 =    -0.3796420660D+00 EUMP2 =    -0.42660227665203D+01

 The electronic state is 1-AG.
 Alpha  occ. eigenvalues --   -0.75706  -0.67478  -0.55904  -0.18490
 Alpha virt. eigenvalues --   -0.08680   0.27003   0.41740   0.60040

 Mulliken charges:
               1
     1  H   -0.065967
     2  H    0.024256
     3  H    0.027836
     4  H    0.013874
     5  H    0.013874
     6  H    0.027836
     7  H    0.024256
     8  H   -0.065967
 Sum of Mulliken charges =  -0.00000

 Dipole moment (field-independent basis, Debye):
    X=              0.0000    Y=             -0.0000    Z=              0.0000  Tot=              0.0000
 Quadrupole moment (field-independent basis, Debye-Ang):
   XX=            -19.4237   YY=             -9.3460   ZZ=            -10.4904
   XY=             -0.9903   XZ=             -0.0000   YZ=              0.0000

 Normal termination of Gaussian 09 at Thu Feb  9 15:55:44 2017.
