 Gaussian 09, Revision E.01,
 Gaussian 09:  ES64L-G09RevE.01 30-Nov-2015

 ----------------------------------------------------------------------
 #rhf/gen scf(symm,tight,novaracc,noincfock,fulldiag) stable(crhf) geom
 =nocrowd test
 ----------------------------------------------------------------------

 ----------------------------------------------------------------------
 hf stability analysis of h10 triangular lattice, y= 1.6038611261814530
 ----------------------------------------------------------------------
 Symbolic Z-matrix:
 Charge =  0 Multiplicity = 1

                         Standard orientation:
 ---------------------------------------------------------------------
 Center     Atomic      Atomic             Coordinates (Angstroms)
 Number     Number       Type             X           Y           Z
 ---------------------------------------------------------------------
      1          1           0        3.207722    0.359975   -0.000000
      2          1           0        1.603861    0.719951   -0.000000
      3          1           0        1.603861    0.000000   -0.000000
      4          1           0        0.000000    0.359975    0.000000
      5          1           0       -0.000000   -0.359975    0.000000
      6          1           0       -1.603861    0.000000   -0.000000
      7          1           0       -1.603861   -0.719951    0.000000
      8          1           0       -3.207722   -0.359975   -0.000000
 ---------------------------------------------------------------------

 SCF Done:  E(RHF) =  -3.88588960726     A.U. after    8 cycles
 E2 =    -0.3558615626D+00 EUMP2 =    -0.42417511698324D+01

 The electronic state is 1-AG.
 Alpha  occ. eigenvalues --   -0.76191  -0.67476  -0.55215  -0.18185
 Alpha virt. eigenvalues --   -0.07890   0.25385   0.40551   0.59285

 Mulliken charges:
               1
     1  H   -0.077209
     2  H    0.027982
     3  H    0.032762
     4  H    0.016465
     5  H    0.016465
     6  H    0.032762
     7  H    0.027982
     8  H   -0.077209
 Sum of Mulliken charges =   0.00000

 Dipole moment (field-independent basis, Debye):
    X=              0.0000    Y=             -0.0000    Z=              0.0000  Tot=              0.0000
 Quadrupole moment (field-independent basis, Debye-Ang):
   XX=            -20.1915   YY=             -9.3077   ZZ=            -10.4787
   XY=             -1.1115   XZ=              0.0000   YZ=             -0.0000

 Normal termination of Gaussian 09 at Thu Feb  9 15:55:21 2017.
