 Gaussian 09, Revision E.01,
 Gaussian 09:  ES64L-G09RevE.01 30-Nov-2015

 ----------------------------------------------------------------------
 #rhf/gen scf(symm,tight,novaracc,noincfock,fulldiag) stable(crhf) geom
 =nocrowd test
 ----------------------------------------------------------------------

 hf stability analysis of h10 triangular lattice, y= 0.9097319657000613
 2
 ----------------------------------------------------------------------
 Symbolic Z-matrix:
 Charge =  0 Multiplicity = 1

                         Standard orientation:
 ---------------------------------------------------------------------
 Center     Atomic      Atomic             Coordinates (Angstroms)
 Number     Number       Type             X           Y           Z
 ---------------------------------------------------------------------
      1          1           0        1.819464    0.634638   -0.000000
      2          1           0        0.909732    1.269276   -0.000000
      3          1           0        0.909732    0.000000    0.000000
      4          1           0        0.000000    0.634638   -0.000000
      5          1           0       -0.000000   -0.634638   -0.000000
      6          1           0       -0.909732    0.000000   -0.000000
      7          1           0       -0.909732   -1.269276   -0.000000
      8          1           0       -1.819464   -0.634638   -0.000000
 ---------------------------------------------------------------------

 SCF Done:  E(RHF) =  -3.97328131472     A.U. after   10 cycles
 E2 =    -0.7991835109D-01 EUMP2 =    -0.40531996658111D+01

 The electronic state is 1-AG.
 Alpha  occ. eigenvalues --   -0.84160  -0.66708  -0.40295  -0.37951
 Alpha virt. eigenvalues --    0.06008   0.19422   0.42737   0.68172

 Mulliken charges:
               1
     1  H   -0.043432
     2  H    0.102662
     3  H    0.113450
     4  H   -0.172680
     5  H   -0.172680
     6  H    0.113450
     7  H    0.102662
     8  H   -0.043432
 Sum of Mulliken charges =   0.00000

 Dipole moment (field-independent basis, Debye):
    X=              0.0000    Y=             -0.0000    Z=             -0.0000  Tot=              0.0000
 Quadrupole moment (field-independent basis, Debye-Ang):
   XX=            -11.6300   YY=            -11.1640   ZZ=            -10.4925
   XY=              0.7189   XZ=             -0.0000   YZ=              0.0000

 Normal termination of Gaussian 09 at Thu Feb  9 15:36:33 2017.
