 Gaussian 09, Revision E.01,
 Gaussian 09:  ES64L-G09RevE.01 30-Nov-2015

 ----------------------------------------------------------------------
 #rhf/gen scf(symm,tight,novaracc,noincfock,fulldiag) stable(crhf) geom
 =nocrowd test
 ----------------------------------------------------------------------

 ----------------------------------------------------------------------
 hf stability analysis of h10 triangular lattice, y= 1.1850037206438264
 ----------------------------------------------------------------------
 Symbolic Z-matrix:
 Charge =  0 Multiplicity = 1

                         Standard orientation:
 ---------------------------------------------------------------------
 Center     Atomic      Atomic             Coordinates (Angstroms)
 Number     Number       Type             X           Y           Z
 ---------------------------------------------------------------------
      1          1           0        2.370007    0.487214   -0.000000
      2          1           0        1.185004    0.974428    0.000000
      3          1           0        1.185004    0.000000   -0.000000
      4          1           0        0.000000    0.487214    0.000000
      5          1           0       -0.000000   -0.487214    0.000000
      6          1           0       -1.185004    0.000000    0.000000
      7          1           0       -1.185004   -0.974428    0.000000
      8          1           0       -2.370007   -0.487214    0.000000
 ---------------------------------------------------------------------

 SCF Done:  E(RHF) =  -3.85176220262     A.U. after   10 cycles
 E2 =    -0.9568400811D-01 EUMP2 =    -0.39474462107289D+01

 The electronic state is 1-AG.
 Alpha  occ. eigenvalues --   -0.79884  -0.66659  -0.42548  -0.23981
 Alpha virt. eigenvalues --    0.06894   0.12501   0.30760   0.52430

 Mulliken charges:
               1
     1  H   -0.032936
     2  H    0.042239
     3  H    0.190082
     4  H   -0.199386
     5  H   -0.199386
     6  H    0.190082
     7  H    0.042239
     8  H   -0.032936
 Sum of Mulliken charges =  -0.00000

 Dipole moment (field-independent basis, Debye):
    X=             -0.0000    Y=              0.0000    Z=             -0.0000  Tot=              0.0000
 Quadrupole moment (field-independent basis, Debye-Ang):
   XX=            -10.4026   YY=            -11.8508   ZZ=            -10.5875
   XY=              0.6717   XZ=             -0.0000   YZ=              0.0000

 Normal termination of Gaussian 09 at Thu Feb  9 15:47:09 2017.
