 Gaussian 09, Revision E.01,
 Gaussian 09:  ES64L-G09RevE.01 30-Nov-2015

 ----------------------------------------------------------------------
 #rhf/gen scf(symm,tight,novaracc,noincfock,fulldiag) stable(crhf) geom
 =nocrowd test
 ----------------------------------------------------------------------

 ----------------------------------------------------------------------
 hf stability analysis of h10 triangular lattice, y= 1.3872306646308596
 ----------------------------------------------------------------------
 Symbolic Z-matrix:
 Charge =  0 Multiplicity = 1

                         Standard orientation:
 ---------------------------------------------------------------------
 Center     Atomic      Atomic             Coordinates (Angstroms)
 Number     Number       Type             X           Y           Z
 ---------------------------------------------------------------------
      1          1           0        2.774461    0.416189    0.000000
      2          1           0        1.387231    0.832378    0.000000
      3          1           0        1.387231    0.000000    0.000000
      4          1           0       -0.000000    0.416189    0.000000
      5          1           0        0.000000   -0.416189    0.000000
      6          1           0       -1.387231    0.000000   -0.000000
      7          1           0       -1.387231   -0.832378    0.000000
      8          1           0       -2.774461   -0.416189   -0.000000
 ---------------------------------------------------------------------

 SCF Done:  E(RHF) =  -3.83932464695     A.U. after   11 cycles
 E2 =    -0.1774177301D+00 EUMP2 =    -0.40167423770209D+01

 The electronic state is 1-AG.
 Alpha  occ. eigenvalues --   -0.80469  -0.67999  -0.49843  -0.16396
 Alpha virt. eigenvalues --    0.00559   0.12886   0.31281   0.52945

 Mulliken charges:
               1
     1  H   -0.178260
     2  H    0.060737
     3  H    0.102391
     4  H    0.015132
     5  H    0.015132
     6  H    0.102391
     7  H    0.060737
     8  H   -0.178260
 Sum of Mulliken charges =  -0.00000

 Dipole moment (field-independent basis, Debye):
    X=              0.0000    Y=              0.0000    Z=             -0.0000  Tot=              0.0000
 Quadrupole moment (field-independent basis, Debye-Ang):
   XX=            -24.3737   YY=             -9.3183   ZZ=            -10.4266
   XY=             -2.0209   XZ=             -0.0000   YZ=             -0.0000

 Normal termination of Gaussian 09 at Thu Feb  9 15:51:56 2017.
