 Gaussian 09, Revision E.01,
 Gaussian 09:  ES64L-G09RevE.01 30-Nov-2015

 ----------------------------------------------------------------------
 #rhf/gen scf(symm,tight,novaracc,noincfock,fulldiag) stable(crhf) geom
 =nocrowd test
 ----------------------------------------------------------------------

 ----------------------------------------------------------------------
 hf stability analysis of h10 triangular lattice, y= 1.0409398623973067
 ----------------------------------------------------------------------
 Symbolic Z-matrix:
 Charge =  0 Multiplicity = 1

                         Standard orientation:
 ---------------------------------------------------------------------
 Center     Atomic      Atomic             Coordinates (Angstroms)
 Number     Number       Type             X           Y           Z
 ---------------------------------------------------------------------
      1          1           0        2.081880    0.554643    0.000000
      2          1           0        1.040940    1.109287    0.000000
      3          1           0        1.040940    0.000000    0.000000
      4          1           0        0.000000    0.554643    0.000000
      5          1           0       -0.000000   -0.554643    0.000000
      6          1           0       -1.040940    0.000000    0.000000
      7          1           0       -1.040940   -1.109287    0.000000
      8          1           0       -2.081880   -0.554643    0.000000
 ---------------------------------------------------------------------

 SCF Done:  E(RHF) =  -3.93501978046     A.U. after    9 cycles
 E2 =    -0.8247128975D-01 EUMP2 =    -0.40174910702022D+01

 The electronic state is 1-AG.
 Alpha  occ. eigenvalues --   -0.81895  -0.66659  -0.41176  -0.31746
 Alpha virt. eigenvalues --    0.09953   0.11816   0.47547   0.48656

 Mulliken charges:
               1
     1  H   -0.018719
     2  H    0.089274
     3  H    0.150418
     4  H   -0.220973
     5  H   -0.220973
     6  H    0.150418
     7  H    0.089274
     8  H   -0.018719
 Sum of Mulliken charges =  -0.00000

 Dipole moment (field-independent basis, Debye):
    X=             -0.0000    Y=              0.0000    Z=              0.0000  Tot=              0.0000
 Quadrupole moment (field-independent basis, Debye-Ang):
   XX=             -9.8852   YY=            -11.7061   ZZ=            -10.5673
   XY=              1.2887   XZ=              0.0000   YZ=              0.0000

 Normal termination of Gaussian 09 at Thu Feb  9 15:42:20 2017.
