 Gaussian 09, Revision E.01,
 Gaussian 09:  ES64L-G09RevE.01 30-Nov-2015

 ----------------------------------------------------------------------
 #rhf/gen scf(symm,tight,novaracc,noincfock,fulldiag) stable(crhf) geom
 =nocrowd test
 ----------------------------------------------------------------------

 ----------------------------------------------------------------------
 hf stability analysis of h10 triangular lattice, y= 1.8330252138232914
 ----------------------------------------------------------------------
 Symbolic Z-matrix:
 Charge =  0 Multiplicity = 1

                         Standard orientation:
 ---------------------------------------------------------------------
 Center     Atomic      Atomic             Coordinates (Angstroms)
 Number     Number       Type             X           Y           Z
 ---------------------------------------------------------------------
      1          1           0        3.666050    0.314971   -0.000000
      2          1           0        1.833025    0.629943   -0.000000
      3          1           0        1.833025    0.000000   -0.000000
      4          1           0       -0.000000    0.314971    0.000000
      5          1           0       -0.000000   -0.314971    0.000000
      6          1           0       -1.833025    0.000000   -0.000000
      7          1           0       -1.833025   -0.629943   -0.000000
      8          1           0       -3.666050   -0.314971   -0.000000
 ---------------------------------------------------------------------

 SCF Done:  E(RHF) =  -3.85280613508     A.U. after    7 cycles
 E2 =    -0.5178732113D+00 EUMP2 =    -0.43706793464042D+01

 The electronic state is 1-AG.
 Alpha  occ. eigenvalues --   -0.73689  -0.68067  -0.60381  -0.19987
 Alpha virt. eigenvalues --   -0.12255   0.36436   0.48653   0.63897

 Mulliken charges:
               1
     1  H   -0.020219
     2  H    0.008563
     3  H    0.008016
     4  H    0.003640
     5  H    0.003640
     6  H    0.008016
     7  H    0.008563
     8  H   -0.020219
 Sum of Mulliken charges =   0.00000

 Dipole moment (field-independent basis, Debye):
    X=              0.0000    Y=             -0.0000    Z=              0.0000  Tot=              0.0000
 Quadrupole moment (field-independent basis, Debye-Ang):
   XX=            -15.5554   YY=             -9.6040   ZZ=            -10.5759
   XY=             -0.4560   XZ=              0.0000   YZ=             -0.0000

 Normal termination of Gaussian 09 at Thu Feb  9 15:57:48 2017.
