 Gaussian 09, Revision E.01,
 Gaussian 09:  ES64L-G09RevE.01 30-Nov-2015

 ----------------------------------------------------------------------
 #rhf/gen scf(symm,tight,novaracc,noincfock,fulldiag) stable(crhf) geom
 =nocrowd test
 ----------------------------------------------------------------------

 ----------------------------------------------------------------------
 hf stability analysis of h10 triangular lattice, y= 1.0760973851886237
 ----------------------------------------------------------------------
 Symbolic Z-matrix:
 Charge =  0 Multiplicity = 1

                         Standard orientation:
 ---------------------------------------------------------------------
 Center     Atomic      Atomic             Coordinates (Angstroms)
 Number     Number       Type             X           Y           Z
 ---------------------------------------------------------------------
      1          1           0        2.152195    0.536522   -0.000000
      2          1           0        1.076097    1.073045   -0.000000
      3          1           0        1.076097    0.000000    0.000000
      4          1           0        0.000000    0.536522   -0.000000
      5          1           0       -0.000000   -0.536522    0.000000
      6          1           0       -1.076097    0.000000    0.000000
      7          1           0       -1.076097   -1.073045    0.000000
      8          1           0       -2.152195   -0.536522    0.000000
 ---------------------------------------------------------------------

 SCF Done:  E(RHF) =  -3.91698915928     A.U. after   10 cycles
 E2 =    -0.8448953111D-01 EUMP2 =    -0.40014786903911D+01

 The electronic state is 1-AG.
 Alpha  occ. eigenvalues --   -0.81223  -0.66589  -0.41401  -0.29826
 Alpha virt. eigenvalues --    0.10111   0.11013   0.42694   0.49978

 Mulliken charges:
               1
     1  H   -0.010435
     2  H    0.077248
     3  H    0.158241
     4  H   -0.225053
     5  H   -0.225053
     6  H    0.158241
     7  H    0.077248
     8  H   -0.010435
 Sum of Mulliken charges =   0.00000

 Dipole moment (field-independent basis, Debye):
    X=             -0.0000    Y=              0.0000    Z=              0.0000  Tot=              0.0000
 Quadrupole moment (field-independent basis, Debye-Ang):
   XX=             -9.3559   YY=            -11.8720   ZZ=            -10.5834
   XY=              1.3302   XZ=             -0.0000   YZ=              0.0000

 Normal termination of Gaussian 09 at Thu Feb  9 15:43:38 2017.
