 Gaussian 09, Revision E.01,
 Gaussian 09:  ES64L-G09RevE.01 30-Nov-2015

 ----------------------------------------------------------------------
 #rhf/gen scf(symm,tight,novaracc,noincfock,fulldiag) stable(crhf) geom
 =nocrowd test
 ----------------------------------------------------------------------

 hf stability analysis of h10 triangular lattice, y= 0.8642939301619531
 1
 ----------------------------------------------------------------------
 Symbolic Z-matrix:
 Charge =  0 Multiplicity = 1

                         Standard orientation:
 ---------------------------------------------------------------------
 Center     Atomic      Atomic             Coordinates (Angstroms)
 Number     Number       Type             X           Y           Z
 ---------------------------------------------------------------------
      1          1           0        1.728588    0.668002    0.000000
      2          1           0        0.864294    1.336004    0.000000
      3          1           0        0.864294    0.000000    0.000000
      4          1           0        0.000000    0.668002    0.000000
      5          1           0       -0.000000   -0.668002    0.000000
      6          1           0       -0.864294    0.000000    0.000000
      7          1           0       -0.864294   -1.336004    0.000000
      8          1           0       -1.728588   -0.668002    0.000000
 ---------------------------------------------------------------------

 SCF Done:  E(RHF) =  -3.97690186947     A.U. after   10 cycles
 E2 =    -0.8076967079D-01 EUMP2 =    -0.40576715402633D+01

 The electronic state is 1-AG.
 Alpha  occ. eigenvalues --   -0.84698  -0.66622  -0.40007  -0.39480
 Alpha virt. eigenvalues --    0.04976   0.22218   0.40495   0.75125

 Mulliken charges:
               1
     1  H   -0.037415
     2  H    0.089130
     3  H    0.086680
     4  H   -0.138396
     5  H   -0.138396
     6  H    0.086680
     7  H    0.089130
     8  H   -0.037415
 Sum of Mulliken charges =  -0.00000

 Dipole moment (field-independent basis, Debye):
    X=              0.0000    Y=              0.0000    Z=              0.0000  Tot=              0.0000
 Quadrupole moment (field-independent basis, Debye-Ang):
   XX=            -11.8436   YY=            -11.1341   ZZ=            -10.4682
   XY=              0.4680   XZ=              0.0000   YZ=             -0.0000

 Normal termination of Gaussian 09 at Thu Feb  9 15:34:13 2017.
