 Gaussian 09, Revision E.01,
 Gaussian 09:  ES64L-G09RevE.01 30-Nov-2015

 ----------------------------------------------------------------------
 #rhf/gen scf(symm,tight,novaracc,noincfock,fulldiag) stable(crhf) geom
 =nocrowd test
 ----------------------------------------------------------------------

 hf stability analysis of h10 triangular lattice, y= 0.9148316281989556
 9
 ----------------------------------------------------------------------
 Symbolic Z-matrix:
 Charge =  0 Multiplicity = 1

                         Standard orientation:
 ---------------------------------------------------------------------
 Center     Atomic      Atomic             Coordinates (Angstroms)
 Number     Number       Type             X           Y           Z
 ---------------------------------------------------------------------
      1          1           0        1.829663    0.631100   -0.000000
      2          1           0        0.914832    1.262200   -0.000000
      3          1           0        0.914832    0.000000   -0.000000
      4          1           0        0.000000    0.631100   -0.000000
      5          1           0       -0.000000   -0.631100   -0.000000
      6          1           0       -0.914832    0.000000    0.000000
      7          1           0       -0.914832   -1.262200   -0.000000
      8          1           0       -1.829663   -0.631100   -0.000000
 ---------------------------------------------------------------------

 SCF Done:  E(RHF) =  -3.97262447713     A.U. after   10 cycles
 E2 =    -0.7987109032D-01 EUMP2 =    -0.40524955674485D+01

 The electronic state is 1-AG.
 Alpha  occ. eigenvalues --   -0.84090  -0.66715  -0.40329  -0.37755
 Alpha virt. eigenvalues --    0.06140   0.19106   0.42987   0.67350

 Mulliken charges:
               1
     1  H   -0.043438
     2  H    0.103486
     3  H    0.115794
     4  H   -0.175843
     5  H   -0.175843
     6  H    0.115794
     7  H    0.103486
     8  H   -0.043438
 Sum of Mulliken charges =  -0.00000

 Dipole moment (field-independent basis, Debye):
    X=             -0.0000    Y=              0.0000    Z=             -0.0000  Tot=              0.0000
 Quadrupole moment (field-independent basis, Debye-Ang):
   XX=            -11.5908   YY=            -11.1748   ZZ=            -10.4954
   XY=              0.7473   XZ=              0.0000   YZ=             -0.0000

 Normal termination of Gaussian 09 at Thu Feb  9 15:36:48 2017.
