 Gaussian 09, Revision E.01,
 Gaussian 09:  ES64L-G09RevE.01 30-Nov-2015

 ----------------------------------------------------------------------
 #rhf/gen scf(symm,tight,novaracc,noincfock,fulldiag) stable(crhf) geom
 =nocrowd test
 ----------------------------------------------------------------------

 ----------------------------------------------------------------------
 hf stability analysis of h10 triangular lattice, y= 1.4074087190092159
 ----------------------------------------------------------------------
 Symbolic Z-matrix:
 Charge =  0 Multiplicity = 1

                         Standard orientation:
 ---------------------------------------------------------------------
 Center     Atomic      Atomic             Coordinates (Angstroms)
 Number     Number       Type             X           Y           Z
 ---------------------------------------------------------------------
      1          1           0        2.814817    0.410222   -0.000000
      2          1           0        1.407409    0.820444   -0.000000
      3          1           0        1.407409    0.000000   -0.000000
      4          1           0        0.000000    0.410222    0.000000
      5          1           0       -0.000000   -0.410222   -0.000000
      6          1           0       -1.407409    0.000000   -0.000000
      7          1           0       -1.407409   -0.820444   -0.000000
      8          1           0       -2.814817   -0.410222   -0.000000
 ---------------------------------------------------------------------

 SCF Done:  E(RHF) =  -3.84593259378     A.U. after   11 cycles
 E2 =    -0.1951382687D+00 EUMP2 =    -0.40410708625281D+01

 The electronic state is 1-AG.
 Alpha  occ. eigenvalues --   -0.80157  -0.67960  -0.50476  -0.16355
 Alpha virt. eigenvalues --   -0.00483   0.14010   0.32138   0.53471

 Mulliken charges:
               1
     1  H   -0.171974
     2  H    0.058511
     3  H    0.091224
     4  H    0.022239
     5  H    0.022239
     6  H    0.091224
     7  H    0.058511
     8  H   -0.171974
 Sum of Mulliken charges =   0.00000

 Dipole moment (field-independent basis, Debye):
    X=              0.0000    Y=             -0.0000    Z=              0.0000  Tot=              0.0000
 Quadrupole moment (field-independent basis, Debye-Ang):
   XX=            -24.5104   YY=             -9.2452   ZZ=            -10.4249
   XY=             -2.0049   XZ=             -0.0000   YZ=              0.0000

 Normal termination of Gaussian 09 at Thu Feb  9 15:52:18 2017.
