 Gaussian 09, Revision E.01,
 Gaussian 09:  ES64L-G09RevE.01 30-Nov-2015

 ----------------------------------------------------------------------
 #rhf/gen scf(symm,tight,novaracc,noincfock,fulldiag) stable(crhf) geom
 =nocrowd test
 ----------------------------------------------------------------------

 ----------------------------------------------------------------------
 hf stability analysis of h10 triangular lattice, y= 1.7649657119256603
 ----------------------------------------------------------------------
 Symbolic Z-matrix:
 Charge =  0 Multiplicity = 1

                         Standard orientation:
 ---------------------------------------------------------------------
 Center     Atomic      Atomic             Coordinates (Angstroms)
 Number     Number       Type             X           Y           Z
 ---------------------------------------------------------------------
      1          1           0        3.529931    0.327117   -0.000000
      2          1           0        1.764966    0.654234    0.000000
      3          1           0        1.764966    0.000000   -0.000000
      4          1           0       -0.000000    0.327117    0.000000
      5          1           0       -0.000000   -0.327117    0.000000
      6          1           0       -1.764966    0.000000   -0.000000
      7          1           0       -1.764966   -0.654234   -0.000000
      8          1           0       -3.529931   -0.327117   -0.000000
 ---------------------------------------------------------------------

 SCF Done:  E(RHF) =  -3.87110847160     A.U. after    7 cycles
 E2 =    -0.4747785335D+00 EUMP2 =    -0.43458870050908D+01

 The electronic state is 1-AG.
 Alpha  occ. eigenvalues --   -0.74174  -0.67766  -0.58873  -0.19575
 Alpha virt. eigenvalues --   -0.11297   0.33426   0.46453   0.62762

 Mulliken charges:
               1
     1  H   -0.031174
     2  H    0.012436
     3  H    0.012803
     4  H    0.005935
     5  H    0.005935
     6  H    0.012803
     7  H    0.012436
     8  H   -0.031174
 Sum of Mulliken charges =  -0.00000

 Dipole moment (field-independent basis, Debye):
    X=             -0.0000    Y=             -0.0000    Z=              0.0000  Tot=              0.0000
 Quadrupole moment (field-independent basis, Debye-Ang):
   XX=            -16.6381   YY=             -9.5167   ZZ=            -10.5454
   XY=             -0.5940   XZ=             -0.0000   YZ=              0.0000

 Normal termination of Gaussian 09 at Thu Feb  9 15:57:11 2017.
