 Gaussian 09, Revision E.01,
 Gaussian 09:  ES64L-G09RevE.01 30-Nov-2015

 ----------------------------------------------------------------------
 #rhf/gen scf(symm,tight,novaracc,noincfock,fulldiag) stable(crhf) geom
 =nocrowd test
 ----------------------------------------------------------------------

 ----------------------------------------------------------------------
 hf stability analysis of h10 triangular lattice, y= 2.3437412473608381
 ----------------------------------------------------------------------
 Symbolic Z-matrix:
 Charge =  0 Multiplicity = 1

                         Standard orientation:
 ---------------------------------------------------------------------
 Center     Atomic      Atomic             Coordinates (Angstroms)
 Number     Number       Type             X           Y           Z
 ---------------------------------------------------------------------
      1          1           0        4.687482    0.246337   -0.000000
      2          1           0        2.343741    0.492674   -0.000000
      3          1           0        2.343741    0.000000   -0.000000
      4          1           0        0.000000    0.246337   -0.000000
      5          1           0       -0.000000   -0.246337   -0.000000
      6          1           0       -2.343741    0.000000   -0.000000
      7          1           0       -2.343741   -0.492674   -0.000000
      8          1           0       -4.687482   -0.246337   -0.000000
 ---------------------------------------------------------------------

 SCF Done:  E(RHF) =  -3.55300945843     A.U. after    5 cycles
 E2 =    -0.7451154262D+00 EUMP2 =    -0.42981248845879D+01

 The electronic state is 1-AG.
 Alpha  occ. eigenvalues --   -0.73467  -0.71564  -0.69378  -0.21069
 Alpha virt. eigenvalues --   -0.15408   0.54622   0.61854   0.70203

 Mulliken charges:
               1
     1  H    0.000982
     2  H    0.000115
     3  H   -0.001145
     4  H    0.000049
     5  H    0.000049
     6  H   -0.001145
     7  H    0.000115
     8  H    0.000982
 Sum of Mulliken charges =  -0.00000

 Dipole moment (field-independent basis, Debye):
    X=              0.0000    Y=             -0.0000    Z=             -0.0000  Tot=              0.0000
 Quadrupole moment (field-independent basis, Debye-Ang):
   XX=            -12.0580   YY=            -10.1265   ZZ=            -10.7707
   XY=             -0.0767   XZ=              0.0000   YZ=             -0.0000

 Normal termination of Gaussian 09 at Thu Feb  9 16:00:49 2017.
