 Gaussian 09, Revision E.01,
 Gaussian 09:  ES64L-G09RevE.01 30-Nov-2015

 ----------------------------------------------------------------------
 #rhf/gen scf(symm,tight,novaracc,noincfock,fulldiag) stable(crhf) geom
 =nocrowd test
 ----------------------------------------------------------------------

 ----------------------------------------------------------------------
 hf stability analysis of h10 triangular lattice, y= 1.3232044396011293
 ----------------------------------------------------------------------
 Symbolic Z-matrix:
 Charge =  0 Multiplicity = 1

                         Standard orientation:
 ---------------------------------------------------------------------
 Center     Atomic      Atomic             Coordinates (Angstroms)
 Number     Number       Type             X           Y           Z
 ---------------------------------------------------------------------
      1          1           0        2.646409    0.436327   -0.000000
      2          1           0        1.323204    0.872655   -0.000000
      3          1           0        1.323204    0.000000   -0.000000
      4          1           0        0.000000    0.436327    0.000000
      5          1           0       -0.000000   -0.436327    0.000000
      6          1           0       -1.323204    0.000000   -0.000000
      7          1           0       -1.323204   -0.872655   -0.000000
      8          1           0       -2.646409   -0.436327   -0.000000
 ---------------------------------------------------------------------

 SCF Done:  E(RHF) =  -3.82235474190     A.U. after   12 cycles
 E2 =    -0.1277122162D+00 EUMP2 =    -0.39500669581177D+01

 The electronic state is 1-AG.
 Alpha  occ. eigenvalues --   -0.80729  -0.67844  -0.47306  -0.17606
 Alpha virt. eigenvalues --    0.04465   0.09787   0.28934   0.52043

 Mulliken charges:
               1
     1  H   -0.167700
     2  H    0.060127
     3  H    0.145614
     4  H   -0.038040
     5  H   -0.038040
     6  H    0.145614
     7  H    0.060127
     8  H   -0.167700
 Sum of Mulliken charges =   0.00000

 Dipole moment (field-independent basis, Debye):
    X=              0.0000    Y=              0.0000    Z=              0.0000  Tot=              0.0000
 Quadrupole moment (field-independent basis, Debye-Ang):
   XX=            -21.4966   YY=             -9.8883   ZZ=            -10.4602
   XY=             -1.6167   XZ=              0.0000   YZ=             -0.0000

 Normal termination of Gaussian 09 at Thu Feb  9 15:50:37 2017.
