 Gaussian 09, Revision E.01,
 Gaussian 09:  ES64L-G09RevE.01 30-Nov-2015

 ----------------------------------------------------------------------
 #rhf/gen scf(symm,tight,novaracc,noincfock,fulldiag) stable(crhf) geom
 =nocrowd test
 ----------------------------------------------------------------------

 ----------------------------------------------------------------------
 hf stability analysis of h10 triangular lattice, y= 1.5507537964299845
 ----------------------------------------------------------------------
 Symbolic Z-matrix:
 Charge =  0 Multiplicity = 1

                         Standard orientation:
 ---------------------------------------------------------------------
 Center     Atomic      Atomic             Coordinates (Angstroms)
 Number     Number       Type             X           Y           Z
 ---------------------------------------------------------------------
      1          1           0        3.101508    0.372303    0.000000
      2          1           0        1.550754    0.744606    0.000000
      3          1           0        1.550754    0.000000    0.000000
      4          1           0        0.000000    0.372303    0.000000
      5          1           0       -0.000000   -0.372303    0.000000
      6          1           0       -1.550754    0.000000    0.000000
      7          1           0       -1.550754   -0.744606    0.000000
      8          1           0       -3.101508   -0.372303    0.000000
 ---------------------------------------------------------------------

 SCF Done:  E(RHF) =  -3.88120995097     A.U. after    9 cycles
 E2 =    -0.3133178878D+00 EUMP2 =    -0.41945278387439D+01

 The electronic state is 1-AG.
 Alpha  occ. eigenvalues --   -0.77162  -0.67533  -0.54006  -0.17613
 Alpha virt. eigenvalues --   -0.06301   0.22424   0.38376   0.57838

 Mulliken charges:
               1
     1  H   -0.100105
     2  H    0.035468
     3  H    0.043172
     4  H    0.021465
     5  H    0.021465
     6  H    0.043172
     7  H    0.035468
     8  H   -0.100105
 Sum of Mulliken charges =   0.00000

 Dipole moment (field-independent basis, Debye):
    X=              0.0000    Y=              0.0000    Z=             -0.0000  Tot=              0.0000
 Quadrupole moment (field-independent basis, Debye-Ang):
   XX=            -21.6063   YY=             -9.2452   ZZ=            -10.4593
   XY=             -1.3516   XZ=              0.0000   YZ=             -0.0000

 Normal termination of Gaussian 09 at Thu Feb  9 15:54:39 2017.
