 Gaussian 09, Revision E.01,
 Gaussian 09:  ES64L-G09RevE.01 30-Nov-2015

 ----------------------------------------------------------------------
 #rhf/gen scf(symm,tight,novaracc,noincfock,fulldiag) stable(crhf) geom
 =nocrowd test
 ----------------------------------------------------------------------

 ----------------------------------------------------------------------
 hf stability analysis of h10 triangular lattice, y= 1.7115041216740989
 ----------------------------------------------------------------------
 Symbolic Z-matrix:
 Charge =  0 Multiplicity = 1

                         Standard orientation:
 ---------------------------------------------------------------------
 Center     Atomic      Atomic             Coordinates (Angstroms)
 Number     Number       Type             X           Y           Z
 ---------------------------------------------------------------------
      1          1           0        3.423008    0.337335   -0.000000
      2          1           0        1.711504    0.674670   -0.000000
      3          1           0        1.711504    0.000000   -0.000000
      4          1           0        0.000000    0.337335    0.000000
      5          1           0       -0.000000   -0.337335    0.000000
      6          1           0       -1.711504    0.000000   -0.000000
      7          1           0       -1.711504   -0.674670   -0.000000
      8          1           0       -3.423008   -0.337335   -0.000000
 ---------------------------------------------------------------------

 SCF Done:  E(RHF) =  -3.88065745656     A.U. after    8 cycles
 E2 =    -0.4377161958D+00 EUMP2 =    -0.43183736523993D+01

 The electronic state is 1-AG.
 Alpha  occ. eigenvalues --   -0.74695  -0.67596  -0.57666  -0.19180
 Alpha virt. eigenvalues --   -0.10368   0.30911   0.44609   0.61748

 Mulliken charges:
               1
     1  H   -0.042900
     2  H    0.016482
     3  H    0.017874
     4  H    0.008544
     5  H    0.008544
     6  H    0.017874
     7  H    0.016482
     8  H   -0.042900
 Sum of Mulliken charges =   0.00000

 Dipole moment (field-independent basis, Debye):
    X=             -0.0000    Y=              0.0000    Z=              0.0000  Tot=              0.0000
 Quadrupole moment (field-independent basis, Debye-Ang):
   XX=            -17.6627   YY=             -9.4469   ZZ=            -10.5222
   XY=             -0.7326   XZ=             -0.0000   YZ=              0.0000

 Normal termination of Gaussian 09 at Thu Feb  9 15:56:37 2017.
