 Gaussian 09, Revision E.01,
 Gaussian 09:  ES64L-G09RevE.01 30-Nov-2015

 ----------------------------------------------------------------------
 #rhf/gen scf(symm,tight,novaracc,noincfock,fulldiag) stable(crhf) geom
 =nocrowd test
 ----------------------------------------------------------------------

 hf stability analysis of h10 triangular lattice, y= 0.8085322786021854
 6
 ----------------------------------------------------------------------
 Symbolic Z-matrix:
 Charge =  0 Multiplicity = 1

                         Standard orientation:
 ---------------------------------------------------------------------
 Center     Atomic      Atomic             Coordinates (Angstroms)
 Number     Number       Type             X           Y           Z
 ---------------------------------------------------------------------
      1          1           0        1.617065    0.714072   -0.000000
      2          1           0        0.808532    1.428144    0.000000
      3          1           0        0.808532    0.000000   -0.000000
      4          1           0        0.000000    0.714072    0.000000
      5          1           0       -0.000000   -0.714072    0.000000
      6          1           0       -0.808532    0.000000   -0.000000
      7          1           0       -0.808532   -1.428144    0.000000
      8          1           0       -1.617065   -0.714072    0.000000
 ---------------------------------------------------------------------

 SCF Done:  E(RHF) =  -3.97772130245     A.U. after    9 cycles
 E2 =    -0.8228195167D-01 EUMP2 =    -0.40600032541202D+01

 The electronic state is 1-AG.
 Alpha  occ. eigenvalues --   -0.85116  -0.66503  -0.40719  -0.39748
 Alpha virt. eigenvalues --    0.04141   0.25233   0.37980   0.81633

 Mulliken charges:
               1
     1  H   -0.013556
     2  H    0.057497
     3  H    0.037048
     4  H   -0.080989
     5  H   -0.080989
     6  H    0.037048
     7  H    0.057497
     8  H   -0.013556
 Sum of Mulliken charges =  -0.00000

 Dipole moment (field-independent basis, Debye):
    X=             -0.0000    Y=              0.0000    Z=             -0.0000  Tot=              0.0000
 Quadrupole moment (field-independent basis, Debye-Ang):
   XX=            -11.7883   YY=            -11.2801   ZZ=            -10.4461
   XY=              0.2207   XZ=              0.0000   YZ=              0.0000

 Normal termination of Gaussian 09 at Thu Feb  9 15:31:24 2017.
