 Gaussian 09, Revision E.01,
 Gaussian 09:  ES64L-G09RevE.01 30-Nov-2015

 ----------------------------------------------------------------------
 #rhf/gen scf(symm,tight,novaracc,noincfock,fulldiag) stable(crhf) geom
 =nocrowd test
 ----------------------------------------------------------------------

 ----------------------------------------------------------------------
 hf stability analysis of h10 triangular lattice, y= 1.3531893207273342
 ----------------------------------------------------------------------
 Symbolic Z-matrix:
 Charge =  0 Multiplicity = 1

                         Standard orientation:
 ---------------------------------------------------------------------
 Center     Atomic      Atomic             Coordinates (Angstroms)
 Number     Number       Type             X           Y           Z
 ---------------------------------------------------------------------
      1          1           0        2.706379    0.426659   -0.000000
      2          1           0        1.353189    0.853318   -0.000000
      3          1           0        1.353189    0.000000    0.000000
      4          1           0        0.000000    0.426659   -0.000000
      5          1           0       -0.000000   -0.426659   -0.000000
      6          1           0       -1.353189    0.000000    0.000000
      7          1           0       -1.353189   -0.853318   -0.000000
      8          1           0       -2.706379   -0.426659   -0.000000
 ---------------------------------------------------------------------

 SCF Done:  E(RHF) =  -3.82899588944     A.U. after   11 cycles
 E2 =    -0.1483404804D+00 EUMP2 =    -0.39773363698814D+01

 The electronic state is 1-AG.
 Alpha  occ. eigenvalues --   -0.80756  -0.67981  -0.48589  -0.16811
 Alpha virt. eigenvalues --    0.02506   0.11137   0.29938   0.52298

 Mulliken charges:
               1
     1  H   -0.179479
     2  H    0.062127
     3  H    0.124465
     4  H   -0.007113
     5  H   -0.007113
     6  H    0.124465
     7  H    0.062127
     8  H   -0.179479
 Sum of Mulliken charges =  -0.00000

 Dipole moment (field-independent basis, Debye):
    X=             -0.0000    Y=              0.0000    Z=             -0.0000  Tot=              0.0000
 Quadrupole moment (field-independent basis, Debye-Ang):
   XX=            -23.3405   YY=             -9.5502   ZZ=            -10.4386
   XY=             -1.9036   XZ=             -0.0000   YZ=              0.0000

 Normal termination of Gaussian 09 at Thu Feb  9 15:51:15 2017.
