 Gaussian 09, Revision E.01,
 Gaussian 09:  ES64L-G09RevE.01 30-Nov-2015

 ----------------------------------------------------------------------
 #rhf/gen scf(symm,tight,novaracc,noincfock,fulldiag) stable(crhf) geom
 =nocrowd test
 ----------------------------------------------------------------------

 hf stability analysis of h10 triangular lattice, y= 0.8376326839306148
 5
 ----------------------------------------------------------------------
 Symbolic Z-matrix:
 Charge =  0 Multiplicity = 1

                         Standard orientation:
 ---------------------------------------------------------------------
 Center     Atomic      Atomic             Coordinates (Angstroms)
 Number     Number       Type             X           Y           Z
 ---------------------------------------------------------------------
      1          1           0        1.675265    0.689264   -0.000000
      2          1           0        0.837633    1.378529   -0.000000
      3          1           0        0.837633    0.000000   -0.000000
      4          1           0       -0.000000    0.689264    0.000000
      5          1           0       -0.000000   -0.689264    0.000000
      6          1           0       -0.837633    0.000000   -0.000000
      7          1           0       -0.837633   -1.378529   -0.000000
      8          1           0       -1.675265   -0.689264   -0.000000
 ---------------------------------------------------------------------

 SCF Done:  E(RHF) =  -3.97760700536     A.U. after   10 cycles
 E2 =    -0.8150058912D-01 EUMP2 =    -0.40591075944891D+01

 The electronic state is 1-AG.
 Alpha  occ. eigenvalues --   -0.84933  -0.66562  -0.40169  -0.39866
 Alpha virt. eigenvalues --    0.04511   0.23766   0.39219   0.78634

 Mulliken charges:
               1
     1  H   -0.028324
     2  H    0.075921
     3  H    0.065361
     4  H   -0.112958
     5  H   -0.112958
     6  H    0.065361
     7  H    0.075921
     8  H   -0.028324
 Sum of Mulliken charges =  -0.00000

 Dipole moment (field-independent basis, Debye):
    X=             -0.0000    Y=              0.0000    Z=             -0.0000  Tot=              0.0000
 Quadrupole moment (field-independent basis, Debye-Ang):
   XX=            -11.8568   YY=            -11.1785   ZZ=            -10.4562
   XY=              0.3359   XZ=             -0.0000   YZ=              0.0000

 Normal termination of Gaussian 09 at Thu Feb  9 15:32:54 2017.
