 Gaussian 09, Revision E.01,
 Gaussian 09:  ES64L-G09RevE.01 30-Nov-2015

 ----------------------------------------------------------------------
 #rhf/gen scf(symm,tight,novaracc,noincfock,fulldiag) stable(crhf) geom
 =nocrowd test
 ----------------------------------------------------------------------

 hf stability analysis of h10 triangular lattice, y= 0.9744610999233596
 1
 ----------------------------------------------------------------------
 Symbolic Z-matrix:
 Charge =  0 Multiplicity = 1

                         Standard orientation:
 ---------------------------------------------------------------------
 Center     Atomic      Atomic             Coordinates (Angstroms)
 Number     Number       Type             X           Y           Z
 ---------------------------------------------------------------------
      1          1           0        1.948922    0.592482   -0.000000
      2          1           0        0.974461    1.184963   -0.000000
      3          1           0        0.974461    0.000000   -0.000000
      4          1           0        0.000000    0.592482   -0.000000
      5          1           0       -0.000000   -0.592482   -0.000000
      6          1           0       -0.974461    0.000000   -0.000000
      7          1           0       -0.974461   -1.184963   -0.000000
      8          1           0       -1.948922   -0.592482   -0.000000
 ---------------------------------------------------------------------

 SCF Done:  E(RHF) =  -3.96022711814     A.U. after    9 cycles
 E2 =    -0.8019472237D-01 EUMP2 =    -0.40404218405122D+01

 The electronic state is 1-AG.
 Alpha  occ. eigenvalues --   -0.83141  -0.66743  -0.40740  -0.35150
 Alpha virt. eigenvalues --    0.07857   0.15490   0.45810   0.57677

 Mulliken charges:
               1
     1  H   -0.035936
     2  H    0.104003
     3  H    0.136022
     4  H   -0.204089
     5  H   -0.204089
     6  H    0.136022
     7  H    0.104003
     8  H   -0.035936
 Sum of Mulliken charges =  -0.00000

 Dipole moment (field-independent basis, Debye):
    X=              0.0000    Y=              0.0000    Z=             -0.0000  Tot=              0.0000
 Quadrupole moment (field-independent basis, Debye-Ang):
   XX=            -10.9259   YY=            -11.3819   ZZ=            -10.5304
   XY=              1.0555   XZ=              0.0000   YZ=             -0.0000

 Normal termination of Gaussian 09 at Thu Feb  9 15:39:33 2017.
