 Gaussian 09, Revision E.01,
 Gaussian 09:  ES64L-G09RevE.01 30-Nov-2015

 ----------------------------------------------------------------------
 #rhf/gen scf(symm,tight,novaracc,noincfock,fulldiag) stable(crhf) geom
 =nocrowd test
 ----------------------------------------------------------------------

 ----------------------------------------------------------------------
 hf stability analysis of h10 triangular lattice, y= 1.5720191654568727
 ----------------------------------------------------------------------
 Symbolic Z-matrix:
 Charge =  0 Multiplicity = 1

                         Standard orientation:
 ---------------------------------------------------------------------
 Center     Atomic      Atomic             Coordinates (Angstroms)
 Number     Number       Type             X           Y           Z
 ---------------------------------------------------------------------
      1          1           0        3.144038    0.367267    0.000000
      2          1           0        1.572019    0.734533    0.000000
      3          1           0        1.572019    0.000000    0.000000
      4          1           0        0.000000    0.367267    0.000000
      5          1           0       -0.000000   -0.367267    0.000000
      6          1           0       -1.572019    0.000000    0.000000
      7          1           0       -1.572019   -0.734533    0.000000
      8          1           0       -3.144038   -0.367267    0.000000
 ---------------------------------------------------------------------

 SCF Done:  E(RHF) =  -3.88367047888     A.U. after    8 cycles
 E2 =    -0.3304383004D+00 EUMP2 =    -0.42141087792596D+01

 The electronic state is 1-AG.
 Alpha  occ. eigenvalues --   -0.76755  -0.67501  -0.54490  -0.17847
 Alpha virt. eigenvalues --   -0.06970   0.23627   0.39260   0.58436

 Mulliken charges:
               1
     1  H   -0.090459
     2  H    0.032330
     3  H    0.038704
     4  H    0.019425
     5  H    0.019425
     6  H    0.038704
     7  H    0.032330
     8  H   -0.090459
 Sum of Mulliken charges =   0.00000

 Dipole moment (field-independent basis, Debye):
    X=              0.0000    Y=             -0.0000    Z=             -0.0000  Tot=              0.0000
 Quadrupole moment (field-independent basis, Debye-Ang):
   XX=            -21.0333   YY=             -9.2692   ZZ=            -10.4669
   XY=             -1.2514   XZ=             -0.0000   YZ=              0.0000

 Normal termination of Gaussian 09 at Thu Feb  9 15:54:56 2017.
