 Gaussian 09, Revision E.01,
 Gaussian 09:  ES64L-G09RevE.01 30-Nov-2015

 ----------------------------------------------------------------------
 #rhf/gen scf(symm,tight,novaracc,noincfock,fulldiag) stable(crhf) geom
 =nocrowd test
 ----------------------------------------------------------------------

 ----------------------------------------------------------------------
 hf stability analysis of h10 triangular lattice, y= 2.4829720147946408
 ----------------------------------------------------------------------
 Symbolic Z-matrix:
 Charge =  0 Multiplicity = 1

                         Standard orientation:
 ---------------------------------------------------------------------
 Center     Atomic      Atomic             Coordinates (Angstroms)
 Number     Number       Type             X           Y           Z
 ---------------------------------------------------------------------
      1          1           0        4.965944    0.232524    0.000000
      2          1           0        2.482972    0.465048    0.000000
      3          1           0        2.482972    0.000000    0.000000
      4          1           0        0.000000    0.232524   -0.000000
      5          1           0       -0.000000   -0.232524   -0.000000
      6          1           0       -2.482972    0.000000    0.000000
      7          1           0       -2.482972   -0.465048    0.000000
      8          1           0       -4.965944   -0.232524    0.000000
 ---------------------------------------------------------------------

 SCF Done:  E(RHF) =  -3.43795564957     A.U. after    5 cycles
 E2 =    -0.7952784267D+00 EUMP2 =    -0.42332340762510D+01

 The electronic state is 1-AG.
 Alpha  occ. eigenvalues --   -0.73880  -0.72544  -0.71080  -0.21078
 Alpha virt. eigenvalues --   -0.15745   0.58682   0.64845   0.71814

 Mulliken charges:
               1
     1  H    0.001221
     2  H   -0.000136
     3  H   -0.001094
     4  H    0.000009
     5  H    0.000009
     6  H   -0.001094
     7  H   -0.000136
     8  H    0.001221
 Sum of Mulliken charges =  -0.00000

 Dipole moment (field-independent basis, Debye):
    X=              0.0000    Y=             -0.0000    Z=              0.0000  Tot=              0.0000
 Quadrupole moment (field-independent basis, Debye-Ang):
   XX=            -11.7287   YY=            -10.2230   ZZ=            -10.8036
   XY=             -0.0496   XZ=             -0.0000   YZ=             -0.0000

 Normal termination of Gaussian 09 at Thu Feb  9 16:01:18 2017.
