 Gaussian 09, Revision E.01,
 Gaussian 09:  ES64L-G09RevE.01 30-Nov-2015

 ----------------------------------------------------------------------
 #rhf/gen scf(symm,tight,novaracc,noincfock,fulldiag) stable(crhf) geom
 =nocrowd test
 ----------------------------------------------------------------------

 hf stability analysis of h10 triangular lattice, y= 0.8689895537432557
 0
 ----------------------------------------------------------------------
 Symbolic Z-matrix:
 Charge =  0 Multiplicity = 1

                         Standard orientation:
 ---------------------------------------------------------------------
 Center     Atomic      Atomic             Coordinates (Angstroms)
 Number     Number       Type             X           Y           Z
 ---------------------------------------------------------------------
      1          1           0        1.737979    0.664393   -0.000000
      2          1           0        0.868990    1.328785    0.000000
      3          1           0        0.868990    0.000000   -0.000000
      4          1           0       -0.000000    0.664393    0.000000
      5          1           0       -0.000000   -0.664393    0.000000
      6          1           0       -0.868990    0.000000   -0.000000
      7          1           0       -0.868990   -1.328785    0.000000
      8          1           0       -1.737979   -0.664393   -0.000000
 ---------------------------------------------------------------------

 SCF Done:  E(RHF) =  -3.97668823760     A.U. after   10 cycles
 E2 =    -0.8065229209D-01 EUMP2 =    -0.40573405296886D+01

 The electronic state is 1-AG.
 Alpha  occ. eigenvalues --   -0.84650  -0.66632  -0.40034  -0.39342
 Alpha virt. eigenvalues --    0.05070   0.21935   0.40726   0.74451

 Mulliken charges:
               1
     1  H   -0.038573
     2  H    0.091057
     3  H    0.089983
     4  H   -0.142467
     5  H   -0.142467
     6  H    0.089983
     7  H    0.091057
     8  H   -0.038573
 Sum of Mulliken charges =  -0.00000

 Dipole moment (field-independent basis, Debye):
    X=              0.0000    Y=             -0.0000    Z=             -0.0000  Tot=              0.0000
 Quadrupole moment (field-independent basis, Debye-Ang):
   XX=            -11.8329   YY=            -11.1312   ZZ=            -10.4705
   XY=              0.4930   XZ=             -0.0000   YZ=              0.0000

 Normal termination of Gaussian 09 at Thu Feb  9 15:34:27 2017.
