 Gaussian 09, Revision E.01,
 Gaussian 09:  ES64L-G09RevE.01 30-Nov-2015

 ----------------------------------------------------------------------
 #rhf/gen scf(symm,tight,novaracc,noincfock,fulldiag) stable(crhf) geom
 =nocrowd test
 ----------------------------------------------------------------------

 ----------------------------------------------------------------------
 hf stability analysis of h10 triangular lattice, y= 1.0269137823584431
 ----------------------------------------------------------------------
 Symbolic Z-matrix:
 Charge =  0 Multiplicity = 1

                         Standard orientation:
 ---------------------------------------------------------------------
 Center     Atomic      Atomic             Coordinates (Angstroms)
 Number     Number       Type             X           Y           Z
 ---------------------------------------------------------------------
      1          1           0        2.053828    0.562219   -0.000000
      2          1           0        1.026914    1.124438   -0.000000
      3          1           0        1.026914    0.000000    0.000000
      4          1           0        0.000000    0.562219   -0.000000
      5          1           0       -0.000000   -0.562219   -0.000000
      6          1           0       -1.026914    0.000000   -0.000000
      7          1           0       -1.026914   -1.124438   -0.000000
      8          1           0       -2.053828   -0.562219   -0.000000
 ---------------------------------------------------------------------

 SCF Done:  E(RHF) =  -3.94134987401     A.U. after   10 cycles
 E2 =    -0.8182658955D-01 EUMP2 =    -0.40231764635626D+01

 The electronic state is 1-AG.
 Alpha  occ. eigenvalues --   -0.82166  -0.66685  -0.41086  -0.32495
 Alpha virt. eigenvalues --    0.09511   0.12548   0.48089   0.49588

 Mulliken charges:
               1
     1  H   -0.022515
     2  H    0.093394
     3  H    0.147555
     4  H   -0.218433
     5  H   -0.218433
     6  H    0.147555
     7  H    0.093394
     8  H   -0.022515
 Sum of Mulliken charges =   0.00000

 Dipole moment (field-independent basis, Debye):
    X=              0.0000    Y=             -0.0000    Z=             -0.0000  Tot=              0.0000
 Quadrupole moment (field-independent basis, Debye-Ang):
   XX=            -10.1141   YY=            -11.6358   ZZ=            -10.5600
   XY=              1.2535   XZ=              0.0000   YZ=              0.0000

 Normal termination of Gaussian 09 at Thu Feb  9 15:41:46 2017.
