 Gaussian 09, Revision E.01,
 Gaussian 09:  ES64L-G09RevE.01 30-Nov-2015

 ----------------------------------------------------------------------
 #rhf/gen scf(symm,tight,novaracc,noincfock,fulldiag) stable(crhf) geom
 =nocrowd test
 ----------------------------------------------------------------------

 ----------------------------------------------------------------------
 hf stability analysis of h10 triangular lattice, y= 1.6137717412076256
 ----------------------------------------------------------------------
 Symbolic Z-matrix:
 Charge =  0 Multiplicity = 1

                         Standard orientation:
 ---------------------------------------------------------------------
 Center     Atomic      Atomic             Coordinates (Angstroms)
 Number     Number       Type             X           Y           Z
 ---------------------------------------------------------------------
      1          1           0        3.227543    0.357765    0.000000
      2          1           0        1.613772    0.715529    0.000000
      3          1           0        1.613772    0.000000    0.000000
      4          1           0        0.000000    0.357765    0.000000
      5          1           0       -0.000000   -0.357765    0.000000
      6          1           0       -1.613772    0.000000    0.000000
      7          1           0       -1.613772   -0.715529    0.000000
      8          1           0       -3.227543   -0.357765    0.000000
 ---------------------------------------------------------------------

 SCF Done:  E(RHF) =  -3.88622309376     A.U. after    8 cycles
 E2 =    -0.3636989439D+00 EUMP2 =    -0.42499220376829D+01

 The electronic state is 1-AG.
 Alpha  occ. eigenvalues --   -0.76027  -0.67473  -0.55441  -0.18287
 Alpha virt. eigenvalues --   -0.08157   0.25920   0.40945   0.59538

 Mulliken charges:
               1
     1  H   -0.073383
     2  H    0.026718
     3  H    0.031076
     4  H    0.015588
     5  H    0.015588
     6  H    0.031076
     7  H    0.026718
     8  H   -0.073383
 Sum of Mulliken charges =   0.00000

 Dipole moment (field-independent basis, Debye):
    X=              0.0000    Y=             -0.0000    Z=             -0.0000  Tot=              0.0000
 Quadrupole moment (field-independent basis, Debye-Ang):
   XX=            -19.9360   YY=             -9.3201   ZZ=            -10.4825
   XY=             -1.0705   XZ=             -0.0000   YZ=              0.0000

 Normal termination of Gaussian 09 at Thu Feb  9 15:55:29 2017.
