 Gaussian 09, Revision E.01,
 Gaussian 09:  ES64L-G09RevE.01 30-Nov-2015

 ----------------------------------------------------------------------
 #rhf/gen scf(symm,tight,novaracc,noincfock,fulldiag) stable(crhf) geom
 =nocrowd test
 ----------------------------------------------------------------------

 hf stability analysis of h10 triangular lattice, y= 0.8451282617594019
 2
 ----------------------------------------------------------------------
 Symbolic Z-matrix:
 Charge =  0 Multiplicity = 1

                         Standard orientation:
 ---------------------------------------------------------------------
 Center     Atomic      Atomic             Coordinates (Angstroms)
 Number     Number       Type             X           Y           Z
 ---------------------------------------------------------------------
      1          1           0        1.690256    0.683151    0.000000
      2          1           0        0.845128    1.366302    0.000000
      3          1           0        0.845128    0.000000    0.000000
      4          1           0       -0.000000    0.683151    0.000000
      5          1           0       -0.000000   -0.683151    0.000000
      6          1           0       -0.845128    0.000000    0.000000
      7          1           0       -0.845128   -1.366302    0.000000
      8          1           0       -1.690256   -0.683151    0.000000
 ---------------------------------------------------------------------

 SCF Done:  E(RHF) =  -3.97748444606     A.U. after   10 cycles
 E2 =    -0.8128857932D-01 EUMP2 =    -0.40587730253799D+01

 The electronic state is 1-AG.
 Alpha  occ. eigenvalues --   -0.84873  -0.66578  -0.39992  -0.39903
 Alpha virt. eigenvalues --    0.04630   0.23344   0.39570   0.77709

 Mulliken charges:
               1
     1  H   -0.031315
     2  H    0.080016
     3  H    0.071802
     4  H   -0.120503
     5  H   -0.120503
     6  H    0.071802
     7  H    0.080016
     8  H   -0.031315
 Sum of Mulliken charges =   0.00000

 Dipole moment (field-independent basis, Debye):
    X=             -0.0000    Y=             -0.0000    Z=              0.0000  Tot=              0.0000
 Quadrupole moment (field-independent basis, Debye-Ang):
   XX=            -11.8610   YY=            -11.1612   ZZ=            -10.4593
   XY=              0.3710   XZ=              0.0000   YZ=             -0.0000

 Normal termination of Gaussian 09 at Thu Feb  9 15:33:16 2017.
