 Gaussian 09, Revision E.01,
 Gaussian 09:  ES64L-G09RevE.01 30-Nov-2015

 ----------------------------------------------------------------------
 #rhf/gen scf(symm,tight,novaracc,noincfock,fulldiag) stable(crhf) geom
 =nocrowd test
 ----------------------------------------------------------------------

 ----------------------------------------------------------------------
 hf stability analysis of h10 triangular lattice, y= 2.3636635337217689
 ----------------------------------------------------------------------
 Symbolic Z-matrix:
 Charge =  0 Multiplicity = 1

                         Standard orientation:
 ---------------------------------------------------------------------
 Center     Atomic      Atomic             Coordinates (Angstroms)
 Number     Number       Type             X           Y           Z
 ---------------------------------------------------------------------
      1          1           0        4.727327    0.244261   -0.000000
      2          1           0        2.363664    0.488522   -0.000000
      3          1           0        2.363664    0.000000   -0.000000
      4          1           0        0.000000    0.244261    0.000000
      5          1           0       -0.000000   -0.244261    0.000000
      6          1           0       -2.363664    0.000000    0.000000
      7          1           0       -2.363664   -0.488522    0.000000
      8          1           0       -4.727327   -0.244261    0.000000
 ---------------------------------------------------------------------

 SCF Done:  E(RHF) =  -3.53717537063     A.U. after    5 cycles
 E2 =    -0.7523893383D+00 EUMP2 =    -0.42895647089743D+01

 The electronic state is 1-AG.
 Alpha  occ. eigenvalues --   -0.73519  -0.71707  -0.69639  -0.21074
 Alpha virt. eigenvalues --   -0.15463   0.55222   0.62293   0.70432

 Mulliken charges:
               1
     1  H    0.001051
     2  H    0.000063
     3  H   -0.001153
     4  H    0.000039
     5  H    0.000039
     6  H   -0.001153
     7  H    0.000063
     8  H    0.001051
 Sum of Mulliken charges =  -0.00000

 Dipole moment (field-independent basis, Debye):
    X=              0.0000    Y=             -0.0000    Z=              0.0000  Tot=              0.0000
 Quadrupole moment (field-independent basis, Debye-Ang):
   XX=            -12.0032   YY=            -10.1414   ZZ=            -10.7759
   XY=             -0.0720   XZ=              0.0000   YZ=             -0.0000

 Normal termination of Gaussian 09 at Thu Feb  9 16:00:54 2017.
