 Gaussian 09, Revision E.01,
 Gaussian 09:  ES64L-G09RevE.01 30-Nov-2015

 ----------------------------------------------------------------------
 #rhf/gen scf(symm,tight,novaracc,noincfock,fulldiag) stable(crhf) geom
 =nocrowd test
 ----------------------------------------------------------------------

 hf stability analysis of h10 triangular lattice, y= 0.8938933231831239
 8
 ----------------------------------------------------------------------
 Symbolic Z-matrix:
 Charge =  0 Multiplicity = 1

                         Standard orientation:
 ---------------------------------------------------------------------
 Center     Atomic      Atomic             Coordinates (Angstroms)
 Number     Number       Type             X           Y           Z
 ---------------------------------------------------------------------
      1          1           0        1.787787    0.645883    0.000000
      2          1           0        0.893893    1.291766    0.000000
      3          1           0        0.893893    0.000000    0.000000
      4          1           0        0.000000    0.645883    0.000000
      5          1           0       -0.000000   -0.645883    0.000000
      6          1           0       -0.893893    0.000000    0.000000
      7          1           0       -0.893893   -1.291766    0.000000
      8          1           0       -1.787787   -0.645883    0.000000
 ---------------------------------------------------------------------

 SCF Done:  E(RHF) =  -3.97497180084     A.U. after   10 cycles
 E2 =    -0.8013346104D-01 EUMP2 =    -0.40551052618737D+01

 The electronic state is 1-AG.
 Alpha  occ. eigenvalues --   -0.84366  -0.66682  -0.40190  -0.38531
 Alpha virt. eigenvalues --    0.05618   0.20405   0.41957   0.70685

 Mulliken charges:
               1
     1  H   -0.042602
     2  H    0.099229
     3  H    0.105376
     4  H   -0.162003
     5  H   -0.162003
     6  H    0.105376
     7  H    0.099229
     8  H   -0.042602
 Sum of Mulliken charges =   0.00000

 Dipole moment (field-independent basis, Debye):
    X=             -0.0000    Y=              0.0000    Z=              0.0000  Tot=              0.0000
 Quadrupole moment (field-independent basis, Debye-Ang):
   XX=            -11.7324   YY=            -11.1395   ZZ=            -10.4836
   XY=              0.6302   XZ=              0.0000   YZ=             -0.0000

 Normal termination of Gaussian 09 at Thu Feb  9 15:35:45 2017.
