 Gaussian 09, Revision E.01,
 Gaussian 09:  ES64L-G09RevE.01 30-Nov-2015

 ----------------------------------------------------------------------
 #rhf/gen scf(symm,tight,novaracc,noincfock,fulldiag) stable(crhf) geom
 =nocrowd test
 ----------------------------------------------------------------------

 hf stability analysis of h10 triangular lattice, y= 0.9446944967191449
 6
 ----------------------------------------------------------------------
 Symbolic Z-matrix:
 Charge =  0 Multiplicity = 1

                         Standard orientation:
 ---------------------------------------------------------------------
 Center     Atomic      Atomic             Coordinates (Angstroms)
 Number     Number       Type             X           Y           Z
 ---------------------------------------------------------------------
      1          1           0        1.889389    0.611150    0.000000
      2          1           0        0.944694    1.222301    0.000000
      3          1           0        0.944694    0.000000    0.000000
      4          1           0        0.000000    0.611150    0.000000
      5          1           0       -0.000000   -0.611150    0.000000
      6          1           0       -0.944694    0.000000    0.000000
      7          1           0       -0.944694   -1.222301    0.000000
      8          1           0       -1.889389   -0.611150    0.000000
 ---------------------------------------------------------------------

 SCF Done:  E(RHF) =  -3.96755624061     A.U. after   10 cycles
 E2 =    -0.7982740934D-01 EUMP2 =    -0.40473836499469D+01

 The electronic state is 1-AG.
 Alpha  occ. eigenvalues --   -0.83642  -0.66742  -0.40535  -0.36517
 Alpha virt. eigenvalues --    0.06965   0.17270   0.44426   0.62491

 Mulliken charges:
               1
     1  H   -0.041221
     2  H    0.105722
     3  H    0.127367
     4  H   -0.191868
     5  H   -0.191868
     6  H    0.127367
     7  H    0.105722
     8  H   -0.041221
 Sum of Mulliken charges =  -0.00000

 Dipole moment (field-independent basis, Debye):
    X=              0.0000    Y=              0.0000    Z=             -0.0000  Tot=              0.0000
 Quadrupole moment (field-independent basis, Debye-Ang):
   XX=            -11.3026   YY=            -11.2622   ZZ=            -10.5129
   XY=              0.9090   XZ=             -0.0000   YZ=              0.0000

 Normal termination of Gaussian 09 at Thu Feb  9 15:38:14 2017.
