 Gaussian 09, Revision E.01,
 Gaussian 09:  ES64L-G09RevE.01 30-Nov-2015

 ----------------------------------------------------------------------
 #rhf/gen scf(symm,tight,novaracc,noincfock,fulldiag) stable(crhf) geom
 =nocrowd test
 ----------------------------------------------------------------------

 ----------------------------------------------------------------------
 hf stability analysis of h10 triangular lattice, y= 1.1203792294527217
 ----------------------------------------------------------------------
 Symbolic Z-matrix:
 Charge =  0 Multiplicity = 1

                         Standard orientation:
 ---------------------------------------------------------------------
 Center     Atomic      Atomic             Coordinates (Angstroms)
 Number     Number       Type             X           Y           Z
 ---------------------------------------------------------------------
      1          1           0        2.240758    0.515317   -0.000000
      2          1           0        1.120379    1.030634    0.000000
      3          1           0        1.120379    0.000000   -0.000000
      4          1           0        0.000000    0.515317    0.000000
      5          1           0       -0.000000   -0.515317    0.000000
      6          1           0       -1.120379    0.000000   -0.000000
      7          1           0       -1.120379   -1.030634   -0.000000
      8          1           0       -2.240758   -0.515317   -0.000000
 ---------------------------------------------------------------------

 SCF Done:  E(RHF) =  -3.89084200770     A.U. after   10 cycles
 E2 =    -0.8799168074D-01 EUMP2 =    -0.39788336884362D+01

 The electronic state is 1-AG.
 Alpha  occ. eigenvalues --   -0.80468  -0.66526  -0.41728  -0.27388
 Alpha virt. eigenvalues --    0.08319   0.12123   0.37175   0.51361

 Mulliken charges:
               1
     1  H   -0.006848
     2  H    0.060311
     3  H    0.170792
     4  H   -0.224254
     5  H   -0.224254
     6  H    0.170792
     7  H    0.060311
     8  H   -0.006848
 Sum of Mulliken charges =  -0.00000

 Dipole moment (field-independent basis, Debye):
    X=              0.0000    Y=              0.0000    Z=             -0.0000  Tot=              0.0000
 Quadrupole moment (field-independent basis, Debye-Ang):
   XX=             -9.0146   YY=            -12.0148   ZZ=            -10.5967
   XY=              1.2452   XZ=              0.0000   YZ=              0.0000

 Normal termination of Gaussian 09 at Thu Feb  9 15:45:09 2017.
