 Gaussian 09, Revision E.01,
 Gaussian 09:  ES64L-G09RevE.01 30-Nov-2015

 ----------------------------------------------------------------------
 #rhf/gen scf(symm,tight,novaracc,noincfock,fulldiag) stable(crhf) geom
 =nocrowd test
 ----------------------------------------------------------------------

 ----------------------------------------------------------------------
 hf stability analysis of h10 triangular lattice, y= 2.0664404105935832
 ----------------------------------------------------------------------
 Symbolic Z-matrix:
 Charge =  0 Multiplicity = 1

                         Standard orientation:
 ---------------------------------------------------------------------
 Center     Atomic      Atomic             Coordinates (Angstroms)
 Number     Number       Type             X           Y           Z
 ---------------------------------------------------------------------
      1          1           0        4.132881    0.279394   -0.000000
      2          1           0        2.066440    0.558787   -0.000000
      3          1           0        2.066440    0.000000   -0.000000
      4          1           0        0.000000    0.279394    0.000000
      5          1           0       -0.000000   -0.279394    0.000000
      6          1           0       -2.066440    0.000000   -0.000000
      7          1           0       -2.066440   -0.558787   -0.000000
      8          1           0       -4.132881   -0.279394   -0.000000
 ---------------------------------------------------------------------

 SCF Done:  E(RHF) =  -3.74568321697     A.U. after    6 cycles
 E2 =    -0.6361885311D+00 EUMP2 =    -0.43818717480965D+01

 The electronic state is 1-AG.
 Alpha  occ. eigenvalues --   -0.73076  -0.69544  -0.65062  -0.20797
 Alpha virt. eigenvalues --   -0.14276   0.45517   0.55246   0.67006

 Mulliken charges:
               1
     1  H   -0.003105
     2  H    0.002077
     3  H    0.000439
     4  H    0.000589
     5  H    0.000589
     6  H    0.000439
     7  H    0.002077
     8  H   -0.003105
 Sum of Mulliken charges =   0.00000

 Dipole moment (field-independent basis, Debye):
    X=              0.0000    Y=              0.0000    Z=              0.0000  Tot=              0.0000
 Quadrupole moment (field-independent basis, Debye-Ang):
   XX=            -13.2631   YY=             -9.8759   ZZ=            -10.6774
   XY=             -0.1931   XZ=              0.0000   YZ=             -0.0000

 Normal termination of Gaussian 09 at Thu Feb  9 15:59:30 2017.
