 Gaussian 09, Revision E.01,
 Gaussian 09:  ES64L-G09RevE.01 30-Nov-2015

 ----------------------------------------------------------------------
 #rhf/gen scf(symm,tight,novaracc,noincfock,fulldiag) stable(crhf) geom
 =nocrowd test
 ----------------------------------------------------------------------

 ----------------------------------------------------------------------
 hf stability analysis of h10 triangular lattice, y= 2.1378024815543255
 ----------------------------------------------------------------------
 Symbolic Z-matrix:
 Charge =  0 Multiplicity = 1

                         Standard orientation:
 ---------------------------------------------------------------------
 Center     Atomic      Atomic             Coordinates (Angstroms)
 Number     Number       Type             X           Y           Z
 ---------------------------------------------------------------------
      1          1           0        4.275605    0.270067    0.000000
      2          1           0        2.137802    0.540135    0.000000
      3          1           0        2.137802    0.000000    0.000000
      4          1           0        0.000000    0.270067   -0.000000
      5          1           0       -0.000000   -0.270067    0.000000
      6          1           0       -2.137802    0.000000    0.000000
      7          1           0       -2.137802   -0.540135    0.000000
      8          1           0       -4.275605   -0.270067    0.000000
 ---------------------------------------------------------------------

 SCF Done:  E(RHF) =  -3.70172404689     A.U. after    6 cycles
 E2 =    -0.6661908433D+00 EUMP2 =    -0.43679148902229D+01

 The electronic state is 1-AG.
 Alpha  occ. eigenvalues --   -0.73098  -0.70060  -0.66303  -0.20915
 Alpha virt. eigenvalues --   -0.14652   0.48006   0.57046   0.67843

 Mulliken charges:
               1
     1  H   -0.001208
     2  H    0.001252
     3  H   -0.000368
     4  H    0.000324
     5  H    0.000324
     6  H   -0.000368
     7  H    0.001252
     8  H   -0.001208
 Sum of Mulliken charges =   0.00000

 Dipole moment (field-independent basis, Debye):
    X=             -0.0000    Y=             -0.0000    Z=             -0.0000  Tot=              0.0000
 Quadrupole moment (field-independent basis, Debye-Ang):
   XX=            -12.8505   YY=             -9.9482   ZZ=            -10.7049
   XY=             -0.1509   XZ=              0.0000   YZ=             -0.0000

 Normal termination of Gaussian 09 at Thu Feb  9 15:59:55 2017.
