 Gaussian 09, Revision E.01,
 Gaussian 09:  ES64L-G09RevE.01 30-Nov-2015

 ----------------------------------------------------------------------
 #rhf/gen scf(symm,tight,novaracc,noincfock,fulldiag) stable(crhf) geom
 =nocrowd test
 ----------------------------------------------------------------------

 hf stability analysis of h10 triangular lattice, y= 0.9989933810987597
 9
 ----------------------------------------------------------------------
 Symbolic Z-matrix:
 Charge =  0 Multiplicity = 1

                         Standard orientation:
 ---------------------------------------------------------------------
 Center     Atomic      Atomic             Coordinates (Angstroms)
 Number     Number       Type             X           Y           Z
 ---------------------------------------------------------------------
      1          1           0        1.997987    0.577932   -0.000000
      2          1           0        0.998993    1.155864   -0.000000
      3          1           0        0.998993    0.000000   -0.000000
      4          1           0        0.000000    0.577932    0.000000
      5          1           0       -0.000000   -0.577932    0.000000
      6          1           0       -0.998993    0.000000   -0.000000
      7          1           0       -0.998993   -1.155864   -0.000000
      8          1           0       -1.997987   -0.577932   -0.000000
 ---------------------------------------------------------------------

 SCF Done:  E(RHF) =  -3.95235472628     A.U. after    9 cycles
 E2 =    -0.8080423689D-01 EUMP2 =    -0.40331589631698D+01

 The electronic state is 1-AG.
 Alpha  occ. eigenvalues --   -0.82697  -0.66725  -0.40905  -0.33942
 Alpha virt. eigenvalues --    0.08625   0.14078   0.46904   0.53814

 Mulliken charges:
               1
     1  H   -0.030041
     2  H    0.100094
     3  H    0.141761
     4  H   -0.211814
     5  H   -0.211814
     6  H    0.141761
     7  H    0.100094
     8  H   -0.030041
 Sum of Mulliken charges =  -0.00000

 Dipole moment (field-independent basis, Debye):
    X=             -0.0000    Y=              0.0000    Z=             -0.0000  Tot=              0.0000
 Quadrupole moment (field-independent basis, Debye-Ang):
   XX=            -10.5627   YY=            -11.4966   ZZ=            -10.5446
   XY=              1.1595   XZ=             -0.0000   YZ=              0.0000

 Normal termination of Gaussian 09 at Thu Feb  9 15:40:37 2017.
