 Gaussian 09, Revision E.01,
 Gaussian 09:  ES64L-G09RevE.01 30-Nov-2015

 ----------------------------------------------------------------------
 #rhf/gen scf(symm,tight,novaracc,noincfock,fulldiag) stable(crhf) geom
 =nocrowd test
 ----------------------------------------------------------------------

 hf stability analysis of h10 triangular lattice, y= 0.8113826706734035
 3
 ----------------------------------------------------------------------
 Symbolic Z-matrix:
 Charge =  0 Multiplicity = 1

                         Standard orientation:
 ---------------------------------------------------------------------
 Center     Atomic      Atomic             Coordinates (Angstroms)
 Number     Number       Type             X           Y           Z
 ---------------------------------------------------------------------
      1          1           0        1.622765    0.711563   -0.000000
      2          1           0        0.811383    1.423127   -0.000000
      3          1           0        0.811383   -0.000000   -0.000000
      4          1           0        0.000000    0.711563   -0.000000
      5          1           0       -0.000000   -0.711563   -0.000000
      6          1           0       -0.811383    0.000000   -0.000000
      7          1           0       -0.811383   -1.423127   -0.000000
      8          1           0       -1.622765   -0.711563   -0.000000
 ---------------------------------------------------------------------

 SCF Done:  E(RHF) =  -3.97772733844     A.U. after   10 cycles
 E2 =    -0.8221244258D-01 EUMP2 =    -0.40599397810210D+01

 The electronic state is 1-AG.
 Alpha  occ. eigenvalues --   -0.85102  -0.66508  -0.40675  -0.39758
 Alpha virt. eigenvalues --    0.04170   0.25105   0.38089   0.81387

 Mulliken charges:
               1
     1  H   -0.015216
     2  H    0.059461
     3  H    0.040048
     4  H   -0.084293
     5  H   -0.084293
     6  H    0.040048
     7  H    0.059461
     8  H   -0.015216
 Sum of Mulliken charges =   0.00000

 Dipole moment (field-independent basis, Debye):
    X=              0.0000    Y=              0.0000    Z=             -0.0000  Tot=              0.0000
 Quadrupole moment (field-independent basis, Debye-Ang):
   XX=            -11.7983   YY=            -11.2678   ZZ=            -10.4469
   XY=              0.2302   XZ=             -0.0000   YZ=              0.0000

 Normal termination of Gaussian 09 at Thu Feb  9 15:31:33 2017.
