 Gaussian 09, Revision E.01,
 Gaussian 09:  ES64L-G09RevE.01 30-Nov-2015

 ----------------------------------------------------------------------
 #rhf/gen scf(symm,tight,novaracc,noincfock,fulldiag) stable(crhf) geom
 =nocrowd test
 ----------------------------------------------------------------------

 ----------------------------------------------------------------------
 hf stability analysis of h10 triangular lattice, y= 1.0855959745595780
 ----------------------------------------------------------------------
 Symbolic Z-matrix:
 Charge =  0 Multiplicity = 1

                         Standard orientation:
 ---------------------------------------------------------------------
 Center     Atomic      Atomic             Coordinates (Angstroms)
 Number     Number       Type             X           Y           Z
 ---------------------------------------------------------------------
      1          1           0        2.171192    0.531828    0.000000
      2          1           0        1.085596    1.063656    0.000000
      3          1           0        1.085596    0.000000    0.000000
      4          1           0        0.000000    0.531828    0.000000
      5          1           0       -0.000000   -0.531828    0.000000
      6          1           0       -1.085596    0.000000    0.000000
      7          1           0       -1.085596   -1.063656    0.000000
      8          1           0       -2.171192   -0.531828    0.000000
 ---------------------------------------------------------------------

 SCF Done:  E(RHF) =  -3.91164709456     A.U. after   10 cycles
 E2 =    -0.8514162284D-01 EUMP2 =    -0.39967887174013D+01

 The electronic state is 1-AG.
 Alpha  occ. eigenvalues --   -0.81048  -0.66571  -0.41465  -0.29302
 Alpha virt. eigenvalues --    0.09688   0.11279   0.41452   0.50306

 Mulliken charges:
               1
     1  H   -0.008795
     2  H    0.073691
     3  H    0.160640
     4  H   -0.225536
     5  H   -0.225536
     6  H    0.160640
     7  H    0.073691
     8  H   -0.008795
 Sum of Mulliken charges =   0.00000

 Dipole moment (field-independent basis, Debye):
    X=             -0.0000    Y=              0.0000    Z=              0.0000  Tot=              0.0000
 Quadrupole moment (field-independent basis, Debye-Ang):
   XX=             -9.2387   YY=            -11.9113   ZZ=            -10.5871
   XY=              1.3272   XZ=              0.0000   YZ=              0.0000

 Normal termination of Gaussian 09 at Thu Feb  9 15:43:58 2017.
