 Gaussian 09, Revision E.01,
 Gaussian 09:  ES64L-G09RevE.01 30-Nov-2015

 ----------------------------------------------------------------------
 #rhf/gen scf(symm,tight,novaracc,noincfock,fulldiag) stable(crhf) geom
 =nocrowd test
 ----------------------------------------------------------------------

 ----------------------------------------------------------------------
 hf stability analysis of h10 triangular lattice, y= 1.9256298803302931
 ----------------------------------------------------------------------
 Symbolic Z-matrix:
 Charge =  0 Multiplicity = 1

                         Standard orientation:
 ---------------------------------------------------------------------
 Center     Atomic      Atomic             Coordinates (Angstroms)
 Number     Number       Type             X           Y           Z
 ---------------------------------------------------------------------
      1          1           0        3.851260    0.299824    0.000000
      2          1           0        1.925630    0.599648    0.000000
      3          1           0        1.925630    0.000000    0.000000
      4          1           0        0.000000    0.299824    0.000000
      5          1           0       -0.000000   -0.299824    0.000000
      6          1           0       -1.925630    0.000000    0.000000
      7          1           0       -1.925630   -0.599648    0.000000
      8          1           0       -3.851260   -0.299824    0.000000
 ---------------------------------------------------------------------

 SCF Done:  E(RHF) =  -3.81785521993     A.U. after    6 cycles
 E2 =    -0.5695491478D+00 EUMP2 =    -0.43874043677085D+01

 The electronic state is 1-AG.
 Alpha  occ. eigenvalues --   -0.73286  -0.68593  -0.62344  -0.20404
 Alpha virt. eigenvalues --   -0.13245   0.40239   0.51422   0.65235

 Mulliken charges:
               1
     1  H   -0.010587
     2  H    0.005026
     3  H    0.003752
     4  H    0.001809
     5  H    0.001809
     6  H    0.003752
     7  H    0.005026
     8  H   -0.010587
 Sum of Mulliken charges =  -0.00000

 Dipole moment (field-independent basis, Debye):
    X=              0.0000    Y=              0.0000    Z=             -0.0000  Tot=              0.0000
 Quadrupole moment (field-independent basis, Debye-Ang):
   XX=            -14.4253   YY=             -9.7177   ZZ=            -10.6175
   XY=             -0.3211   XZ=              0.0000   YZ=             -0.0000

 Normal termination of Gaussian 09 at Thu Feb  9 15:58:33 2017.
