 Gaussian 09, Revision E.01,
 Gaussian 09:  ES64L-G09RevE.01 30-Nov-2015

 ----------------------------------------------------------------------
 #rhf/gen scf(symm,tight,novaracc,noincfock,fulldiag) stable(crhf) geom
 =nocrowd test
 ----------------------------------------------------------------------

 ----------------------------------------------------------------------
 hf stability analysis of h10 triangular lattice, y= 1.6375832695042820
 ----------------------------------------------------------------------
 Symbolic Z-matrix:
 Charge =  0 Multiplicity = 1

                         Standard orientation:
 ---------------------------------------------------------------------
 Center     Atomic      Atomic             Coordinates (Angstroms)
 Number     Number       Type             X           Y           Z
 ---------------------------------------------------------------------
      1          1           0        3.275167    0.352562    0.000000
      2          1           0        1.637583    0.705125    0.000000
      3          1           0        1.637583    0.000000    0.000000
      4          1           0        0.000000    0.352562   -0.000000
      5          1           0       -0.000000   -0.352562    0.000000
      6          1           0       -1.637583    0.000000    0.000000
      7          1           0       -1.637583   -0.705125    0.000000
      8          1           0       -3.275167   -0.352562    0.000000
 ---------------------------------------------------------------------

 SCF Done:  E(RHF) =  -3.88633737063     A.U. after    8 cycles
 E2 =    -0.3823320845D+00 EUMP2 =    -0.42686694551503D+01

 The electronic state is 1-AG.
 Alpha  occ. eigenvalues --   -0.75654  -0.67479  -0.55983  -0.18524
 Alpha virt. eigenvalues --   -0.08765   0.27185   0.41874   0.60123

 Mulliken charges:
               1
     1  H   -0.064763
     2  H    0.023855
     3  H    0.027313
     4  H    0.013594
     5  H    0.013594
     6  H    0.027313
     7  H    0.023855
     8  H   -0.064763
 Sum of Mulliken charges =   0.00000

 Dipole moment (field-independent basis, Debye):
    X=              0.0000    Y=              0.0000    Z=             -0.0000  Tot=              0.0000
 Quadrupole moment (field-independent basis, Debye-Ang):
   XX=            -19.3384   YY=             -9.3505   ZZ=            -10.4918
   XY=             -0.9772   XZ=             -0.0000   YZ=             -0.0000

 Normal termination of Gaussian 09 at Thu Feb  9 15:55:46 2017.
