 Gaussian 09, Revision E.01,
 Gaussian 09:  ES64L-G09RevE.01 30-Nov-2015

 ----------------------------------------------------------------------
 #rhf/gen scf(symm,tight,novaracc,noincfock,fulldiag) stable(crhf) geom
 =nocrowd test
 ----------------------------------------------------------------------

 ----------------------------------------------------------------------
 hf stability analysis of h10 triangular lattice, y= 1.0237328119822167
 ----------------------------------------------------------------------
 Symbolic Z-matrix:
 Charge =  0 Multiplicity = 1

                         Standard orientation:
 ---------------------------------------------------------------------
 Center     Atomic      Atomic             Coordinates (Angstroms)
 Number     Number       Type             X           Y           Z
 ---------------------------------------------------------------------
      1          1           0        2.047466    0.563966    0.000000
      2          1           0        1.023733    1.127932    0.000000
      3          1           0        1.023733    0.000000    0.000000
      4          1           0        0.000000    0.563966    0.000000
      5          1           0       -0.000000   -0.563966    0.000000
      6          1           0       -1.023733    0.000000   -0.000000
      7          1           0       -1.023733   -1.127932   -0.000000
      8          1           0       -2.047466   -0.563966   -0.000000
 ---------------------------------------------------------------------

 SCF Done:  E(RHF) =  -3.94271214688     A.U. after   10 cycles
 E2 =    -0.8169261647D-01 EUMP2 =    -0.40244047633417D+01

 The electronic state is 1-AG.
 Alpha  occ. eigenvalues --   -0.82228  -0.66690  -0.41066  -0.32663
 Alpha virt. eigenvalues --    0.09410   0.12718   0.47957   0.50059

 Mulliken charges:
               1
     1  H   -0.023386
     2  H    0.094263
     3  H    0.146909
     4  H   -0.217786
     5  H   -0.217786
     6  H    0.146909
     7  H    0.094263
     8  H   -0.023386
 Sum of Mulliken charges =  -0.00000

 Dipole moment (field-independent basis, Debye):
    X=             -0.0000    Y=             -0.0000    Z=             -0.0000  Tot=              0.0000
 Quadrupole moment (field-independent basis, Debye-Ang):
   XX=            -10.1662   YY=            -11.6197   ZZ=            -10.5583
   XY=              1.2443   XZ=              0.0000   YZ=              0.0000

 Normal termination of Gaussian 09 at Thu Feb  9 15:41:39 2017.
