 Gaussian 09, Revision E.01,
 Gaussian 09:  ES64L-G09RevE.01 30-Nov-2015

 ----------------------------------------------------------------------
 #rhf/gen scf(symm,tight,novaracc,noincfock,fulldiag) stable(crhf) geom
 =nocrowd test
 ----------------------------------------------------------------------

 hf stability analysis of h10 triangular lattice, y= 0.9357337738212570
 0
 ----------------------------------------------------------------------
 Symbolic Z-matrix:
 Charge =  0 Multiplicity = 1

                         Standard orientation:
 ---------------------------------------------------------------------
 Center     Atomic      Atomic             Coordinates (Angstroms)
 Number     Number       Type             X           Y           Z
 ---------------------------------------------------------------------
      1          1           0        1.871468    0.617003   -0.000000
      2          1           0        0.935734    1.234005   -0.000000
      3          1           0        0.935734   -0.000000    0.000000
      4          1           0        0.000000    0.617003   -0.000000
      5          1           0       -0.000000   -0.617003   -0.000000
      6          1           0       -0.935734    0.000000    0.000000
      7          1           0       -0.935734   -1.234005   -0.000000
      8          1           0       -1.871468   -0.617003   -0.000000
 ---------------------------------------------------------------------

 SCF Done:  E(RHF) =  -3.96930602501     A.U. after   10 cycles
 E2 =    -0.7979767037D-01 EUMP2 =    -0.40491036953824D+01

 The electronic state is 1-AG.
 Alpha  occ. eigenvalues --   -0.83783  -0.66737  -0.40473  -0.36903
 Alpha virt. eigenvalues --    0.06709   0.17817   0.43999   0.63952

 Mulliken charges:
               1
     1  H   -0.042259
     2  H    0.105497
     3  H    0.124248
     4  H   -0.187486
     5  H   -0.187486
     6  H    0.124248
     7  H    0.105497
     8  H   -0.042259
 Sum of Mulliken charges =  -0.00000

 Dipole moment (field-independent basis, Debye):
    X=             -0.0000    Y=             -0.0000    Z=              0.0000  Tot=              0.0000
 Quadrupole moment (field-independent basis, Debye-Ang):
   XX=            -11.3992   YY=            -11.2319   ZZ=            -10.5076
   XY=              0.8617   XZ=             -0.0000   YZ=              0.0000

 Normal termination of Gaussian 09 at Thu Feb  9 15:37:49 2017.
