 Gaussian 09, Revision E.01,
 Gaussian 09:  ES64L-G09RevE.01 30-Nov-2015

 ----------------------------------------------------------------------
 #rhf/gen scf(symm,tight,novaracc,noincfock,fulldiag) stable(crhf) geom
 =nocrowd test
 ----------------------------------------------------------------------

 ----------------------------------------------------------------------
 hf stability analysis of h10 triangular lattice, y= 1.4143115637001062
 ----------------------------------------------------------------------
 Symbolic Z-matrix:
 Charge =  0 Multiplicity = 1

                         Standard orientation:
 ---------------------------------------------------------------------
 Center     Atomic      Atomic             Coordinates (Angstroms)
 Number     Number       Type             X           Y           Z
 ---------------------------------------------------------------------
      1          1           0        2.828623    0.408220    0.000000
      2          1           0        1.414312    0.816440    0.000000
      3          1           0        1.414312    0.000000    0.000000
      4          1           0       -0.000000    0.408220    0.000000
      5          1           0       -0.000000   -0.408220    0.000000
      6          1           0       -1.414312    0.000000    0.000000
      7          1           0       -1.414312   -0.816440    0.000000
      8          1           0       -2.828623   -0.408220    0.000000
 ---------------------------------------------------------------------

 SCF Done:  E(RHF) =  -3.84818651721     A.U. after   11 cycles
 E2 =    -0.2011250544D+00 EUMP2 =    -0.40493115715858D+01

 The electronic state is 1-AG.
 Alpha  occ. eigenvalues --   -0.80033  -0.67941  -0.50677  -0.16367
 Alpha virt. eigenvalues --   -0.00823   0.14405   0.32437   0.53667

 Mulliken charges:
               1
     1  H   -0.169196
     2  H    0.057588
     3  H    0.087752
     4  H    0.023856
     5  H    0.023856
     6  H    0.087752
     7  H    0.057588
     8  H   -0.169196
 Sum of Mulliken charges =  -0.00000

 Dipole moment (field-independent basis, Debye):
    X=             -0.0000    Y=             -0.0000    Z=             -0.0000  Tot=              0.0000
 Quadrupole moment (field-independent basis, Debye-Ang):
   XX=            -24.4951   YY=             -9.2283   ZZ=            -10.4250
   XY=             -1.9892   XZ=              0.0000   YZ=             -0.0000

 Normal termination of Gaussian 09 at Thu Feb  9 15:52:26 2017.
