 Gaussian 09, Revision E.01,
 Gaussian 09:  ES64L-G09RevE.01 30-Nov-2015

 ----------------------------------------------------------------------
 #rhf/gen scf(symm,tight,novaracc,noincfock,fulldiag) stable(crhf) geom
 =nocrowd test
 ----------------------------------------------------------------------

 ----------------------------------------------------------------------
 hf stability analysis of h10 triangular lattice, y= 1.1592321887657087
 ----------------------------------------------------------------------
 Symbolic Z-matrix:
 Charge =  0 Multiplicity = 1

                         Standard orientation:
 ---------------------------------------------------------------------
 Center     Atomic      Atomic             Coordinates (Angstroms)
 Number     Number       Type             X           Y           Z
 ---------------------------------------------------------------------
      1          1           0        2.318464    0.498045    0.000000
      2          1           0        1.159232    0.996091   -0.000000
      3          1           0        1.159232    0.000000    0.000000
      4          1           0        0.000000    0.498045   -0.000000
      5          1           0       -0.000000   -0.498045   -0.000000
      6          1           0       -1.159232    0.000000    0.000000
      7          1           0       -1.159232   -0.996091   -0.000000
      8          1           0       -2.318464   -0.498045   -0.000000
 ---------------------------------------------------------------------

 SCF Done:  E(RHF) =  -3.86677275125     A.U. after   10 cycles
 E2 =    -0.9222552780D-01 EUMP2 =    -0.39589982790576D+01

 The electronic state is 1-AG.
 Alpha  occ. eigenvalues --   -0.80016  -0.66559  -0.42142  -0.25309
 Alpha virt. eigenvalues --    0.07245   0.12627   0.33007   0.52170

 Mulliken charges:
               1
     1  H   -0.016795
     2  H    0.047303
     3  H    0.183493
     4  H   -0.214001
     5  H   -0.214001
     6  H    0.183493
     7  H    0.047303
     8  H   -0.016795
 Sum of Mulliken charges =  -0.00000

 Dipole moment (field-independent basis, Debye):
    X=             -0.0000    Y=              0.0000    Z=              0.0000  Tot=              0.0000
 Quadrupole moment (field-independent basis, Debye-Ang):
   XX=             -9.4655   YY=            -11.9928   ZZ=            -10.5966
   XY=              0.9756   XZ=              0.0000   YZ=             -0.0000

 Normal termination of Gaussian 09 at Thu Feb  9 15:46:23 2017.
