 Gaussian 09, Revision E.01,
 Gaussian 09:  ES64L-G09RevE.01 30-Nov-2015

 ----------------------------------------------------------------------
 #rhf/gen scf(symm,tight,novaracc,noincfock,fulldiag) stable(crhf) geom
 =nocrowd test
 ----------------------------------------------------------------------

 ----------------------------------------------------------------------
 hf stability analysis of h10 triangular lattice, y= 2.2510753219802888
 ----------------------------------------------------------------------
 Symbolic Z-matrix:
 Charge =  0 Multiplicity = 1

                         Standard orientation:
 ---------------------------------------------------------------------
 Center     Atomic      Atomic             Coordinates (Angstroms)
 Number     Number       Type             X           Y           Z
 ---------------------------------------------------------------------
      1          1           0        4.502151    0.256478   -0.000000
      2          1           0        2.251075    0.512955   -0.000000
      3          1           0        2.251075    0.000000   -0.000000
      4          1           0        0.000000    0.256478    0.000000
      5          1           0       -0.000000   -0.256478    0.000000
      6          1           0       -2.251075    0.000000   -0.000000
      7          1           0       -2.251075   -0.512955   -0.000000
      8          1           0       -4.502151   -0.256478   -0.000000
 ---------------------------------------------------------------------

 SCF Done:  E(RHF) =  -3.62352371906     A.U. after    5 cycles
 E2 =    -0.7106181240D+00 EUMP2 =    -0.43341418430584D+01

 The electronic state is 1-AG.
 Alpha  occ. eigenvalues --   -0.73256  -0.70891  -0.68083  -0.21027
 Alpha virt. eigenvalues --   -0.15116   0.51742   0.59754   0.69143

 Mulliken charges:
               1
     1  H    0.000406
     2  H    0.000464
     3  H   -0.000989
     4  H    0.000119
     5  H    0.000119
     6  H   -0.000989
     7  H    0.000464
     8  H    0.000406
 Sum of Mulliken charges =  -0.00000

 Dipole moment (field-independent basis, Debye):
    X=              0.0000    Y=             -0.0000    Z=             -0.0000  Tot=              0.0000
 Quadrupole moment (field-independent basis, Debye-Ang):
   XX=            -12.3569   YY=            -10.0517   ZZ=            -10.7436
   XY=             -0.1034   XZ=              0.0000   YZ=              0.0000

 Normal termination of Gaussian 09 at Thu Feb  9 16:00:26 2017.
