 Gaussian 09, Revision E.01,
 Gaussian 09:  ES64L-G09RevE.01 30-Nov-2015

 ----------------------------------------------------------------------
 #rhf/gen scf(symm,tight,novaracc,noincfock,fulldiag) stable(crhf) geom
 =nocrowd test
 ----------------------------------------------------------------------

 ----------------------------------------------------------------------
 hf stability analysis of h10 triangular lattice, y= 1.2577599974754754
 ----------------------------------------------------------------------
 Symbolic Z-matrix:
 Charge =  0 Multiplicity = 1

                         Standard orientation:
 ---------------------------------------------------------------------
 Center     Atomic      Atomic             Coordinates (Angstroms)
 Number     Number       Type             X           Y           Z
 ---------------------------------------------------------------------
      1          1           0        2.515520    0.459031    0.000000
      2          1           0        1.257760    0.918061    0.000000
      3          1           0        1.257760    0.000000    0.000000
      4          1           0       -0.000000    0.459031   -0.000000
      5          1           0       -0.000000   -0.459031   -0.000000
      6          1           0       -1.257760   -0.000000    0.000000
      7          1           0       -1.257760   -0.918061    0.000000
      8          1           0       -2.515520   -0.459031    0.000000
 ---------------------------------------------------------------------

 SCF Done:  E(RHF) =  -3.82311610712     A.U. after   11 cycles
 E2 =    -0.1067212169D+00 EUMP2 =    -0.39298373240218D+01

 The electronic state is 1-AG.
 Alpha  occ. eigenvalues --   -0.80196  -0.67260  -0.44546  -0.20374
 Alpha virt. eigenvalues --    0.07581   0.09233   0.27905   0.52246

 Mulliken charges:
               1
     1  H   -0.107827
     2  H    0.047904
     3  H    0.183148
     4  H   -0.123226
     5  H   -0.123226
     6  H    0.183148
     7  H    0.047904
     8  H   -0.107827
 Sum of Mulliken charges =  -0.00000

 Dipole moment (field-independent basis, Debye):
    X=              0.0000    Y=              0.0000    Z=              0.0000  Tot=              0.0000
 Quadrupole moment (field-independent basis, Debye-Ang):
   XX=            -15.7462   YY=            -10.9095   ZZ=            -10.5273
   XY=             -0.5581   XZ=             -0.0000   YZ=             -0.0000

 Normal termination of Gaussian 09 at Thu Feb  9 15:49:06 2017.
