 Gaussian 09, Revision E.01,
 Gaussian 09:  ES64L-G09RevE.01 30-Nov-2015

 ----------------------------------------------------------------------
 #rhf/gen scf(symm,tight,novaracc,noincfock,fulldiag) stable(crhf) geom
 =nocrowd test
 ----------------------------------------------------------------------

 ----------------------------------------------------------------------
 hf stability analysis of h10 triangular lattice, y= 1.0290458576996018
 ----------------------------------------------------------------------
 Symbolic Z-matrix:
 Charge =  0 Multiplicity = 1

                         Standard orientation:
 ---------------------------------------------------------------------
 Center     Atomic      Atomic             Coordinates (Angstroms)
 Number     Number       Type             X           Y           Z
 ---------------------------------------------------------------------
      1          1           0        2.058092    0.561054   -0.000000
      2          1           0        1.029046    1.122108   -0.000000
      3          1           0        1.029046    0.000000   -0.000000
      4          1           0        0.000000    0.561054   -0.000000
      5          1           0       -0.000000   -0.561054   -0.000000
      6          1           0       -1.029046    0.000000   -0.000000
      7          1           0       -1.029046   -1.122108   -0.000000
      8          1           0       -2.058092   -0.561054   -0.000000
 ---------------------------------------------------------------------

 SCF Done:  E(RHF) =  -3.94042146052     A.U. after   10 cycles
 E2 =    -0.8191890899D-01 EUMP2 =    -0.40223403695092D+01

 The electronic state is 1-AG.
 Alpha  occ. eigenvalues --   -0.82125  -0.66681  -0.41100  -0.32382
 Alpha virt. eigenvalues --    0.09579   0.12435   0.48176   0.49274

 Mulliken charges:
               1
     1  H   -0.021932
     2  H    0.092797
     3  H    0.147987
     4  H   -0.218852
     5  H   -0.218852
     6  H    0.147987
     7  H    0.092797
     8  H   -0.021932
 Sum of Mulliken charges =  -0.00000

 Dipole moment (field-independent basis, Debye):
    X=             -0.0000    Y=             -0.0000    Z=             -0.0000  Tot=              0.0000
 Quadrupole moment (field-independent basis, Debye-Ang):
   XX=            -10.0792   YY=            -11.6465   ZZ=            -10.5611
   XY=              1.2594   XZ=             -0.0000   YZ=              0.0000

 Normal termination of Gaussian 09 at Thu Feb  9 15:41:51 2017.
