 Gaussian 09, Revision E.01,
 Gaussian 09:  ES64L-G09RevE.01 30-Nov-2015

 ----------------------------------------------------------------------
 #rhf/gen scf(symm,tight,novaracc,noincfock,fulldiag) stable(crhf) geom
 =nocrowd test
 ----------------------------------------------------------------------

 ----------------------------------------------------------------------
 hf stability analysis of h10 triangular lattice, y= 1.4005956553347587
 ----------------------------------------------------------------------
 Symbolic Z-matrix:
 Charge =  0 Multiplicity = 1

                         Standard orientation:
 ---------------------------------------------------------------------
 Center     Atomic      Atomic             Coordinates (Angstroms)
 Number     Number       Type             X           Y           Z
 ---------------------------------------------------------------------
      1          1           0        2.801191    0.412218   -0.000000
      2          1           0        1.400596    0.824435   -0.000000
      3          1           0        1.400596    0.000000   -0.000000
      4          1           0        0.000000    0.412218   -0.000000
      5          1           0       -0.000000   -0.412218   -0.000000
      6          1           0       -1.400596    0.000000   -0.000000
      7          1           0       -1.400596   -0.824435   -0.000000
      8          1           0       -2.801191   -0.412218   -0.000000
 ---------------------------------------------------------------------

 SCF Done:  E(RHF) =  -3.84369663654     A.U. after   11 cycles
 E2 =    -0.1891839121D+00 EUMP2 =    -0.40328805486561D+01

 The electronic state is 1-AG.
 Alpha  occ. eigenvalues --   -0.80271  -0.67976  -0.50270  -0.16356
 Alpha virt. eigenvalues --   -0.00139   0.13625   0.31845   0.53285

 Mulliken charges:
               1
     1  H   -0.174437
     2  H    0.059350
     3  H    0.094823
     4  H    0.020265
     5  H    0.020265
     6  H    0.094823
     7  H    0.059350
     8  H   -0.174437
 Sum of Mulliken charges =   0.00000

 Dipole moment (field-independent basis, Debye):
    X=              0.0000    Y=              0.0000    Z=              0.0000  Tot=              0.0000
 Quadrupole moment (field-independent basis, Debye-Ang):
   XX=            -24.4968   YY=             -9.2655   ZZ=            -10.4251
   XY=             -2.0158   XZ=             -0.0000   YZ=             -0.0000

 Normal termination of Gaussian 09 at Thu Feb  9 15:52:11 2017.
