 Gaussian 09, Revision E.01,
 Gaussian 09:  ES64L-G09RevE.01 30-Nov-2015

 ----------------------------------------------------------------------
 #rhf/gen scf(symm,tight,novaracc,noincfock,fulldiag) stable(crhf) geom
 =nocrowd test
 ----------------------------------------------------------------------

 ----------------------------------------------------------------------
 hf stability analysis of h10 triangular lattice, y= 1.9092530122354845
 ----------------------------------------------------------------------
 Symbolic Z-matrix:
 Charge =  0 Multiplicity = 1

                         Standard orientation:
 ---------------------------------------------------------------------
 Center     Atomic      Atomic             Coordinates (Angstroms)
 Number     Number       Type             X           Y           Z
 ---------------------------------------------------------------------
      1          1           0        3.818506    0.302396    0.000000
      2          1           0        1.909253    0.604792   -0.000000
      3          1           0        1.909253    0.000000    0.000000
      4          1           0        0.000000    0.302396   -0.000000
      5          1           0       -0.000000   -0.302396   -0.000000
      6          1           0       -1.909253    0.000000    0.000000
      7          1           0       -1.909253   -0.604792    0.000000
      8          1           0       -3.818506   -0.302396    0.000000
 ---------------------------------------------------------------------

 SCF Done:  E(RHF) =  -3.82482090593     A.U. after    7 cycles
 E2 =    -0.5609403696D+00 EUMP2 =    -0.43857612755142D+01

 The electronic state is 1-AG.
 Alpha  occ. eigenvalues --   -0.73339  -0.68492  -0.62006  -0.20341
 Alpha virt. eigenvalues --   -0.13091   0.39588   0.50949   0.65012

 Mulliken charges:
               1
     1  H   -0.011942
     2  H    0.005535
     3  H    0.004354
     4  H    0.002052
     5  H    0.002052
     6  H    0.004354
     7  H    0.005535
     8  H   -0.011942
 Sum of Mulliken charges =  -0.00000

 Dipole moment (field-independent basis, Debye):
    X=             -0.0000    Y=              0.0000    Z=             -0.0000  Tot=              0.0000
 Quadrupole moment (field-independent basis, Debye-Ang):
   XX=            -14.6001   YY=             -9.6981   ZZ=            -10.6102
   XY=             -0.3413   XZ=              0.0000   YZ=             -0.0000

 Normal termination of Gaussian 09 at Thu Feb  9 15:58:26 2017.
