 Gaussian 09, Revision E.01,
 Gaussian 09:  ES64L-G09RevE.01 30-Nov-2015

 ----------------------------------------------------------------------
 #rhf/gen scf(symm,tight,novaracc,noincfock,fulldiag) stable(crhf) geom
 =nocrowd test
 ----------------------------------------------------------------------

 ----------------------------------------------------------------------
 hf stability analysis of h10 triangular lattice, y= 1.0010087169869311
 ----------------------------------------------------------------------
 Symbolic Z-matrix:
 Charge =  0 Multiplicity = 1

                         Standard orientation:
 ---------------------------------------------------------------------
 Center     Atomic      Atomic             Coordinates (Angstroms)
 Number     Number       Type             X           Y           Z
 ---------------------------------------------------------------------
      1          1           0        2.002017    0.576769    0.000000
      2          1           0        1.001009    1.153537    0.000000
      3          1           0        1.001009    0.000000    0.000000
      4          1           0        0.000000    0.576769   -0.000000
      5          1           0       -0.000000   -0.576769   -0.000000
      6          1           0       -1.001009    0.000000    0.000000
      7          1           0       -1.001009   -1.153537    0.000000
      8          1           0       -2.002017   -0.576769    0.000000
 ---------------------------------------------------------------------

 SCF Done:  E(RHF) =  -3.95163304143     A.U. after    9 cycles
 E2 =    -0.8086639935D-01 EUMP2 =    -0.40324994407824D+01

 The electronic state is 1-AG.
 Alpha  occ. eigenvalues --   -0.82659  -0.66722  -0.40918  -0.33840
 Alpha virt. eigenvalues --    0.08689   0.13965   0.46992   0.53502

 Mulliken charges:
               1
     1  H   -0.029516
     2  H    0.099685
     3  H    0.142196
     4  H   -0.212365
     5  H   -0.212365
     6  H    0.142196
     7  H    0.099685
     8  H   -0.029516
 Sum of Mulliken charges =   0.00000

 Dipole moment (field-independent basis, Debye):
    X=              0.0000    Y=              0.0000    Z=              0.0000  Tot=              0.0000
 Quadrupole moment (field-independent basis, Debye-Ang):
   XX=            -10.5313   YY=            -11.5064   ZZ=            -10.5458
   XY=              1.1672   XZ=              0.0000   YZ=              0.0000

 Normal termination of Gaussian 09 at Thu Feb  9 15:40:42 2017.
