 Gaussian 09, Revision E.01,
 Gaussian 09:  ES64L-G09RevE.01 30-Nov-2015

 ----------------------------------------------------------------------
 #rhf/gen scf(symm,tight,novaracc,noincfock,fulldiag) stable(crhf) geom
 =nocrowd test
 ----------------------------------------------------------------------

 hf stability analysis of h10 triangular lattice, y= 0.8368882343931486
 3
 ----------------------------------------------------------------------
 Symbolic Z-matrix:
 Charge =  0 Multiplicity = 1

                         Standard orientation:
 ---------------------------------------------------------------------
 Center     Atomic      Atomic             Coordinates (Angstroms)
 Number     Number       Type             X           Y           Z
 ---------------------------------------------------------------------
      1          1           0        1.673776    0.689877    0.000000
      2          1           0        0.836888    1.379755    0.000000
      3          1           0        0.836888    0.000000    0.000000
      4          1           0        0.000000    0.689877    0.000000
      5          1           0       -0.000000   -0.689877    0.000000
      6          1           0       -0.836888    0.000000    0.000000
      7          1           0       -0.836888   -1.379755    0.000000
      8          1           0       -1.673776   -0.689877    0.000000
 ---------------------------------------------------------------------

 SCF Done:  E(RHF) =  -3.97761651756     A.U. after   10 cycles
 E2 =    -0.8152168117D-01 EUMP2 =    -0.40591381987287D+01

 The electronic state is 1-AG.
 Alpha  occ. eigenvalues --   -0.84938  -0.66560  -0.40186  -0.39862
 Alpha virt. eigenvalues --    0.04499   0.23807   0.39185   0.78723

 Mulliken charges:
               1
     1  H   -0.028009
     2  H    0.075499
     3  H    0.064702
     4  H   -0.112193
     5  H   -0.112193
     6  H    0.064702
     7  H    0.075499
     8  H   -0.028009
 Sum of Mulliken charges =   0.00000

 Dipole moment (field-independent basis, Debye):
    X=              0.0000    Y=              0.0000    Z=              0.0000  Tot=              0.0000
 Quadrupole moment (field-independent basis, Debye-Ang):
   XX=            -11.8561   YY=            -11.1804   ZZ=            -10.4559
   XY=              0.3325   XZ=             -0.0000   YZ=              0.0000

 Normal termination of Gaussian 09 at Thu Feb  9 15:32:51 2017.
