 Gaussian 09, Revision E.01,
 Gaussian 09:  ES64L-G09RevE.01 30-Nov-2015

 ----------------------------------------------------------------------
 #rhf/gen scf(symm,tight,novaracc,noincfock,fulldiag) stable(crhf) geom
 =nocrowd test
 ----------------------------------------------------------------------

 hf stability analysis of h10 triangular lattice, y= 0.7930727965047464
 9
 ----------------------------------------------------------------------
 Symbolic Z-matrix:
 Charge =  0 Multiplicity = 1

                         Standard orientation:
 ---------------------------------------------------------------------
 Center     Atomic      Atomic             Coordinates (Angstroms)
 Number     Number       Type             X           Y           Z
 ---------------------------------------------------------------------
      1          1           0        1.586146    0.727992    0.000000
      2          1           0        0.793073    1.455983    0.000000
      3          1           0        0.793073    0.000000    0.000000
      4          1           0        0.000000    0.727992    0.000000
      5          1           0       -0.000000   -0.727992    0.000000
      6          1           0       -0.793073    0.000000    0.000000
      7          1           0       -0.793073   -1.455983    0.000000
      8          1           0       -1.586146   -0.727992    0.000000
 ---------------------------------------------------------------------

 SCF Done:  E(RHF) =  -3.97766072665     A.U. after    9 cycles
 E2 =    -0.8261188403D-01 EUMP2 =    -0.40602726106848D+01

 The electronic state is 1-AG.
 Alpha  occ. eigenvalues --   -0.85182  -0.66479  -0.40916  -0.39705
 Alpha virt. eigenvalues --    0.04008   0.25839   0.37458   0.82759

 Mulliken charges:
               1
     1  H   -0.003812
     2  H    0.046352
     3  H    0.019978
     4  H   -0.062519
     5  H   -0.062519
     6  H    0.019978
     7  H    0.046352
     8  H   -0.003812
 Sum of Mulliken charges =   0.00000

 Dipole moment (field-independent basis, Debye):
    X=             -0.0000    Y=              0.0000    Z=              0.0000  Tot=              0.0000
 Quadrupole moment (field-independent basis, Debye-Ang):
   XX=            -11.7235   YY=            -11.3537   ZZ=            -10.4424
   XY=              0.1771   XZ=              0.0000   YZ=              0.0000

 Normal termination of Gaussian 09 at Thu Feb  9 15:30:34 2017.
