 Gaussian 09, Revision E.01,
 Gaussian 09:  ES64L-G09RevE.01 30-Nov-2015

 ----------------------------------------------------------------------
 #rhf/gen scf(symm,tight,novaracc,noincfock,fulldiag) stable(crhf) geom
 =nocrowd test
 ----------------------------------------------------------------------

 ----------------------------------------------------------------------
 hf stability analysis of h10 triangular lattice, y= 2.4375523412504077
 ----------------------------------------------------------------------
 Symbolic Z-matrix:
 Charge =  0 Multiplicity = 1

                         Standard orientation:
 ---------------------------------------------------------------------
 Center     Atomic      Atomic             Coordinates (Angstroms)
 Number     Number       Type             X           Y           Z
 ---------------------------------------------------------------------
      1          1           0        4.875105    0.236857    0.000000
      2          1           0        2.437552    0.473713    0.000000
      3          1           0        2.437552    0.000000    0.000000
      4          1           0        0.000000    0.236857    0.000000
      5          1           0       -0.000000   -0.236857   -0.000000
      6          1           0       -2.437552    0.000000    0.000000
      7          1           0       -2.437552   -0.473713    0.000000
      8          1           0       -4.875105   -0.236857    0.000000
 ---------------------------------------------------------------------

 SCF Done:  E(RHF) =  -3.47657130835     A.U. after    5 cycles
 E2 =    -0.7790615595D+00 EUMP2 =    -0.42556328678479D+01

 The electronic state is 1-AG.
 Alpha  occ. eigenvalues --   -0.73735  -0.72230  -0.70554  -0.21080
 Alpha virt. eigenvalues --   -0.15646   0.57391   0.63889   0.71285

 Mulliken charges:
               1
     1  H    0.001197
     2  H   -0.000080
     3  H   -0.001134
     4  H    0.000017
     5  H    0.000017
     6  H   -0.001134
     7  H   -0.000080
     8  H    0.001197
 Sum of Mulliken charges =  -0.00000

 Dipole moment (field-independent basis, Debye):
    X=              0.0000    Y=              0.0000    Z=              0.0000  Tot=              0.0000
 Quadrupole moment (field-independent basis, Debye-Ang):
   XX=            -11.8233   YY=            -10.1935   ZZ=            -10.7938
   XY=             -0.0571   XZ=             -0.0000   YZ=              0.0000

 Normal termination of Gaussian 09 at Thu Feb  9 16:01:09 2017.
