 Gaussian 09, Revision E.01,
 Gaussian 09:  ES64L-G09RevE.01 30-Nov-2015

 ----------------------------------------------------------------------
 #rhf/gen scf(symm,tight,novaracc,noincfock,fulldiag) stable(crhf) geom
 =nocrowd test
 ----------------------------------------------------------------------

 ----------------------------------------------------------------------
 hf stability analysis of h10 triangular lattice, y= 1.4782365797854315
 ----------------------------------------------------------------------
 Symbolic Z-matrix:
 Charge =  0 Multiplicity = 1

                         Standard orientation:
 ---------------------------------------------------------------------
 Center     Atomic      Atomic             Coordinates (Angstroms)
 Number     Number       Type             X           Y           Z
 ---------------------------------------------------------------------
      1          1           0        2.956473    0.390567    0.000000
      2          1           0        1.478237    0.781134   -0.000000
      3          1           0        1.478237    0.000000    0.000000
      4          1           0        0.000000    0.390567   -0.000000
      5          1           0       -0.000000   -0.390567   -0.000000
      6          1           0       -1.478237    0.000000    0.000000
      7          1           0       -1.478237   -0.781134   -0.000000
      8          1           0       -2.956473   -0.390567    0.000000
 ---------------------------------------------------------------------

 SCF Done:  E(RHF) =  -3.86704245945     A.U. after   10 cycles
 E2 =    -0.2545178512D+00 EUMP2 =    -0.41215603106004D+01

 The electronic state is 1-AG.
 Alpha  occ. eigenvalues --   -0.78690  -0.67725  -0.52324  -0.16827
 Alpha virt. eigenvalues --   -0.03664   0.18181   0.35252   0.55642

 Mulliken charges:
               1
     1  H   -0.136955
     2  H    0.047288
     3  H    0.062408
     4  H    0.027259
     5  H    0.027259
     6  H    0.062408
     7  H    0.047288
     8  H   -0.136955
 Sum of Mulliken charges =  -0.00000

 Dipole moment (field-independent basis, Debye):
    X=              0.0000    Y=              0.0000    Z=             -0.0000  Tot=              0.0000
 Quadrupole moment (field-independent basis, Debye-Ang):
   XX=            -23.4831   YY=             -9.1870   ZZ=            -10.4365
   XY=             -1.7184   XZ=              0.0000   YZ=             -0.0000

 Normal termination of Gaussian 09 at Thu Feb  9 15:53:32 2017.
