 Gaussian 09, Revision E.01,
 Gaussian 09:  ES64L-G09RevE.01 30-Nov-2015

 ----------------------------------------------------------------------
 #rhf/gen scf(symm,tight,novaracc,noincfock,fulldiag) stable(crhf) geom
 =nocrowd test
 ----------------------------------------------------------------------

 ----------------------------------------------------------------------
 hf stability analysis of h10 triangular lattice, y= 1.9893700857464571
 ----------------------------------------------------------------------
 Symbolic Z-matrix:
 Charge =  0 Multiplicity = 1

                         Standard orientation:
 ---------------------------------------------------------------------
 Center     Atomic      Atomic             Coordinates (Angstroms)
 Number     Number       Type             X           Y           Z
 ---------------------------------------------------------------------
      1          1           0        3.978740    0.290218   -0.000000
      2          1           0        1.989370    0.580435   -0.000000
      3          1           0        1.989370    0.000000   -0.000000
      4          1           0        0.000000    0.290218    0.000000
      5          1           0       -0.000000   -0.290218   -0.000000
      6          1           0       -1.989370    0.000000   -0.000000
      7          1           0       -1.989370   -0.580435   -0.000000
      8          1           0       -3.978740   -0.290218   -0.000000
 ---------------------------------------------------------------------

 SCF Done:  E(RHF) =  -3.78779009342     A.U. after    6 cycles
 E2 =    -0.6011975008D+00 EUMP2 =    -0.43889875941900D+01

 The electronic state is 1-AG.
 Alpha  occ. eigenvalues --   -0.73141  -0.69007  -0.63618  -0.20613
 Alpha virt. eigenvalues --   -0.13769   0.42695   0.53203   0.66064

 Mulliken charges:
               1
     1  H   -0.006405
     2  H    0.003416
     3  H    0.001891
     4  H    0.001098
     5  H    0.001098
     6  H    0.001891
     7  H    0.003416
     8  H   -0.006405
 Sum of Mulliken charges =   0.00000

 Dipole moment (field-independent basis, Debye):
    X=              0.0000    Y=              0.0000    Z=              0.0000  Tot=              0.0000
 Quadrupole moment (field-independent basis, Debye-Ang):
   XX=            -13.8308   YY=             -9.7917   ZZ=            -10.6454
   XY=             -0.2541   XZ=             -0.0000   YZ=              0.0000

 Normal termination of Gaussian 09 at Thu Feb  9 15:59:00 2017.
