 Gaussian 09, Revision E.01,
 Gaussian 09:  ES64L-G09RevE.01 30-Nov-2015

 ----------------------------------------------------------------------
 #rhf/gen scf(symm,tight,novaracc,noincfock,fulldiag) stable(crhf) geom
 =nocrowd test
 ----------------------------------------------------------------------

 ----------------------------------------------------------------------
 hf stability analysis of h10 triangular lattice, y= 1.0040470443412663
 ----------------------------------------------------------------------
 Symbolic Z-matrix:
 Charge =  0 Multiplicity = 1

                         Standard orientation:
 ---------------------------------------------------------------------
 Center     Atomic      Atomic             Coordinates (Angstroms)
 Number     Number       Type             X           Y           Z
 ---------------------------------------------------------------------
      1          1           0        2.008094    0.575023    0.000000
      2          1           0        1.004047    1.150046    0.000000
      3          1           0        1.004047    0.000000    0.000000
      4          1           0        0.000000    0.575023   -0.000000
      5          1           0       -0.000000   -0.575023   -0.000000
      6          1           0       -1.004047    0.000000    0.000000
      7          1           0       -1.004047   -1.150046    0.000000
      8          1           0       -2.008094   -0.575023    0.000000
 ---------------------------------------------------------------------

 SCF Done:  E(RHF) =  -3.95052351053     A.U. after    9 cycles
 E2 =    -0.8096355132D-01 EUMP2 =    -0.40314870618451D+01

 The electronic state is 1-AG.
 Alpha  occ. eigenvalues --   -0.82602  -0.66719  -0.40938  -0.33685
 Alpha virt. eigenvalues --    0.08785   0.13795   0.47123   0.53034

 Mulliken charges:
               1
     1  H   -0.028717
     2  H    0.099045
     3  H    0.142846
     4  H   -0.213174
     5  H   -0.213174
     6  H    0.142846
     7  H    0.099045
     8  H   -0.028717
 Sum of Mulliken charges =   0.00000

 Dipole moment (field-independent basis, Debye):
    X=              0.0000    Y=             -0.0000    Z=              0.0000  Tot=              0.0000
 Quadrupole moment (field-independent basis, Debye-Ang):
   XX=            -10.4835   YY=            -11.5214   ZZ=            -10.5475
   XY=              1.1786   XZ=              0.0000   YZ=             -0.0000

 Normal termination of Gaussian 09 at Thu Feb  9 15:40:50 2017.
