 Gaussian 09, Revision E.01,
 Gaussian 09:  ES64L-G09RevE.01 30-Nov-2015

 ----------------------------------------------------------------------
 #rhf/gen scf(symm,tight,novaracc,noincfock,fulldiag) stable(crhf) geom
 =nocrowd test
 ----------------------------------------------------------------------

 ----------------------------------------------------------------------
 hf stability analysis of h10 triangular lattice, y= 1.4283952101213191
 ----------------------------------------------------------------------
 Symbolic Z-matrix:
 Charge =  0 Multiplicity = 1

                         Standard orientation:
 ---------------------------------------------------------------------
 Center     Atomic      Atomic             Coordinates (Angstroms)
 Number     Number       Type             X           Y           Z
 ---------------------------------------------------------------------
      1          1           0        2.856790    0.404195   -0.000000
      2          1           0        1.428395    0.808390   -0.000000
      3          1           0        1.428395    0.000000   -0.000000
      4          1           0       -0.000000    0.404195    0.000000
      5          1           0       -0.000000   -0.404195    0.000000
      6          1           0       -1.428395    0.000000   -0.000000
      7          1           0       -1.428395   -0.808390   -0.000000
      8          1           0       -2.856790   -0.404195   -0.000000
 ---------------------------------------------------------------------

 SCF Done:  E(RHF) =  -3.85270595061     A.U. after   11 cycles
 E2 =    -0.2131813894D+00 EUMP2 =    -0.40658873400131D+01

 The electronic state is 1-AG.
 Alpha  occ. eigenvalues --   -0.79760  -0.67897  -0.51069  -0.16423
 Alpha virt. eigenvalues --   -0.01496   0.15224   0.33053   0.54084

 Mulliken charges:
               1
     1  H   -0.162845
     2  H    0.055525
     3  H    0.081180
     4  H    0.026140
     5  H    0.026140
     6  H    0.081180
     7  H    0.055525
     8  H   -0.162845
 Sum of Mulliken charges =   0.00000

 Dipole moment (field-independent basis, Debye):
    X=              0.0000    Y=              0.0000    Z=              0.0000  Tot=              0.0000
 Quadrupole moment (field-independent basis, Debye-Ang):
   XX=            -24.3874   YY=             -9.2040   ZZ=            -10.4262
   XY=             -1.9450   XZ=             -0.0000   YZ=             -0.0000

 Normal termination of Gaussian 09 at Thu Feb  9 15:52:41 2017.
