 Gaussian 09, Revision E.01,
 Gaussian 09:  ES64L-G09RevE.01 30-Nov-2015

 ----------------------------------------------------------------------
 #rhf/gen scf(symm,tight,novaracc,noincfock,fulldiag) stable(crhf) geom
 =nocrowd test
 ----------------------------------------------------------------------

 hf stability analysis of h10 triangular lattice, y= 0.7624926854841530
 5
 ----------------------------------------------------------------------
 Symbolic Z-matrix:
 Charge =  0 Multiplicity = 1

                         Standard orientation:
 ---------------------------------------------------------------------
 Center     Atomic      Atomic             Coordinates (Angstroms)
 Number     Number       Type             X           Y           Z
 ---------------------------------------------------------------------
      1          1           0        1.524985    0.757188   -0.000000
      2          1           0        0.762493    1.514376    0.000000
      3          1           0        0.762493    0.000000   -0.000000
      4          1           0        0.000000    0.757188    0.000000
      5          1           0       -0.000000   -0.757188    0.000000
      6          1           0       -0.762493    0.000000   -0.000000
      7          1           0       -0.762493   -1.514376    0.000000
      8          1           0       -1.524985   -0.757188   -0.000000
 ---------------------------------------------------------------------

 SCF Done:  E(RHF) =  -3.97755897133     A.U. after    9 cycles
 E2 =    -0.8293276724D-01 EUMP2 =    -0.40604917385697D+01

 The electronic state is 1-AG.
 Alpha  occ. eigenvalues --   -0.85240  -0.66457  -0.41094  -0.39665
 Alpha virt. eigenvalues --    0.03890   0.26437   0.36937   0.83794

 Mulliken charges:
               1
     1  H    0.018530
     2  H    0.022710
     3  H   -0.017214
     4  H   -0.024026
     5  H   -0.024026
     6  H   -0.017214
     7  H    0.022710
     8  H    0.018530
 Sum of Mulliken charges =  -0.00000

 Dipole moment (field-independent basis, Debye):
    X=              0.0000    Y=             -0.0000    Z=             -0.0000  Tot=              0.0000
 Quadrupole moment (field-independent basis, Debye-Ang):
   XX=            -11.5577   YY=            -11.5261   ZZ=            -10.4390
   XY=              0.1367   XZ=             -0.0000   YZ=             -0.0000

 Normal termination of Gaussian 09 at Thu Feb  9 15:28:52 2017.
