 Gaussian 09, Revision E.01,
 Gaussian 09:  ES64L-G09RevE.01 30-Nov-2015

 ----------------------------------------------------------------------
 #rhf/gen scf(symm,tight,novaracc,noincfock,fulldiag) stable(crhf) geom
 =nocrowd test
 ----------------------------------------------------------------------

 ----------------------------------------------------------------------
 hf stability analysis of h10 triangular lattice, y= 1.5217180473945009
 ----------------------------------------------------------------------
 Symbolic Z-matrix:
 Charge =  0 Multiplicity = 1

                         Standard orientation:
 ---------------------------------------------------------------------
 Center     Atomic      Atomic             Coordinates (Angstroms)
 Number     Number       Type             X           Y           Z
 ---------------------------------------------------------------------
      1          1           0        3.043436    0.379407    0.000000
      2          1           0        1.521718    0.758814    0.000000
      3          1           0        1.521718    0.000000    0.000000
      4          1           0        0.000000    0.379407    0.000000
      5          1           0       -0.000000   -0.379407   -0.000000
      6          1           0       -1.521718    0.000000   -0.000000
      7          1           0       -1.521718   -0.758814   -0.000000
      8          1           0       -3.043436   -0.379407   -0.000000
 ---------------------------------------------------------------------

 SCF Done:  E(RHF) =  -3.87659127691     A.U. after    9 cycles
 E2 =    -0.2898430739D+00 EUMP2 =    -0.41664343508509D+01

 The electronic state is 1-AG.
 Alpha  occ. eigenvalues --   -0.77752  -0.67596  -0.53341  -0.17291
 Alpha virt. eigenvalues --   -0.05314   0.20748   0.37144   0.56984

 Mulliken charges:
               1
     1  H   -0.114230
     2  H    0.040029
     3  H    0.050033
     4  H    0.024168
     5  H    0.024168
     6  H    0.050033
     7  H    0.040029
     8  H   -0.114230
 Sum of Mulliken charges =   0.00000

 Dipole moment (field-independent basis, Debye):
    X=             -0.0000    Y=              0.0000    Z=             -0.0000  Tot=              0.0000
 Quadrupole moment (field-independent basis, Debye-Ang):
   XX=            -22.3863   YY=             -9.2160   ZZ=            -10.4495
   XY=             -1.4955   XZ=             -0.0000   YZ=              0.0000

 Normal termination of Gaussian 09 at Thu Feb  9 15:54:14 2017.
