 Gaussian 09, Revision E.01,
 Gaussian 09:  ES64L-G09RevE.01 30-Nov-2015

 ----------------------------------------------------------------------
 #rhf/gen scf(symm,tight,novaracc,noincfock,fulldiag) stable(crhf) geom
 =nocrowd test
 ----------------------------------------------------------------------

 ----------------------------------------------------------------------
 hf stability analysis of h10 triangular lattice, y= 1.2628985236429111
 ----------------------------------------------------------------------
 Symbolic Z-matrix:
 Charge =  0 Multiplicity = 1

                         Standard orientation:
 ---------------------------------------------------------------------
 Center     Atomic      Atomic             Coordinates (Angstroms)
 Number     Number       Type             X           Y           Z
 ---------------------------------------------------------------------
      1          1           0        2.525797    0.457163   -0.000000
      2          1           0        1.262899    0.914326   -0.000000
      3          1           0        1.262899    0.000000   -0.000000
      4          1           0        0.000000    0.457163    0.000000
      5          1           0       -0.000000   -0.457163    0.000000
      6          1           0       -1.262899    0.000000   -0.000000
      7          1           0       -1.262899   -0.914326   -0.000000
      8          1           0       -2.525797   -0.457163   -0.000000
 ---------------------------------------------------------------------

 SCF Done:  E(RHF) =  -3.82215859313     A.U. after   11 cycles
 E2 =    -0.1076231400D+00 EUMP2 =    -0.39297817331426D+01

 The electronic state is 1-AG.
 Alpha  occ. eigenvalues --   -0.80241  -0.67312  -0.44738  -0.20128
 Alpha virt. eigenvalues --    0.07710   0.08871   0.27896   0.52212

 Mulliken charges:
               1
     1  H   -0.113522
     2  H    0.048981
     3  H    0.181070
     4  H   -0.116528
     5  H   -0.116528
     6  H    0.181070
     7  H    0.048981
     8  H   -0.113522
 Sum of Mulliken charges =  -0.00000

 Dipole moment (field-independent basis, Debye):
    X=             -0.0000    Y=              0.0000    Z=             -0.0000  Tot=              0.0000
 Quadrupole moment (field-independent basis, Debye-Ang):
   XX=            -16.2156   YY=            -10.8256   ZZ=            -10.5218
   XY=             -0.6518   XZ=             -0.0000   YZ=              0.0000

 Normal termination of Gaussian 09 at Thu Feb  9 15:49:13 2017.
