 Gaussian 09, Revision E.01,
 Gaussian 09:  ES64L-G09RevE.01 30-Nov-2015

 ----------------------------------------------------------------------
 #rhf/gen scf(symm,tight,novaracc,noincfock,fulldiag) stable(crhf) geom
 =nocrowd test
 ----------------------------------------------------------------------

 ----------------------------------------------------------------------
 hf stability analysis of h10 triangular lattice, y= 1.2137645536362878
 ----------------------------------------------------------------------
 Symbolic Z-matrix:
 Charge =  0 Multiplicity = 1

                         Standard orientation:
 ---------------------------------------------------------------------
 Center     Atomic      Atomic             Coordinates (Angstroms)
 Number     Number       Type             X           Y           Z
 ---------------------------------------------------------------------
      1          1           0        2.427529    0.475669    0.000000
      2          1           0        1.213765    0.951338    0.000000
      3          1           0        1.213765    0.000000    0.000000
      4          1           0        0.000000    0.475669    0.000000
      5          1           0       -0.000000   -0.475669    0.000000
      6          1           0       -1.213765    0.000000   -0.000000
      7          1           0       -1.213765   -0.951338    0.000000
      8          1           0       -2.427529   -0.475669   -0.000000
 ---------------------------------------------------------------------

 SCF Done:  E(RHF) =  -3.83742069112     A.U. after   10 cycles
 E2 =    -0.9991985656D-01 EUMP2 =    -0.39373405476778D+01

 The electronic state is 1-AG.
 Alpha  occ. eigenvalues --   -0.79906  -0.66851  -0.43176  -0.22535
 Alpha virt. eigenvalues --    0.06884   0.11722   0.28970   0.52474

 Mulliken charges:
               1
     1  H   -0.059243
     2  H    0.041404
     3  H    0.192500
     4  H   -0.174661
     5  H   -0.174661
     6  H    0.192500
     7  H    0.041404
     8  H   -0.059243
 Sum of Mulliken charges =  -0.00000

 Dipole moment (field-independent basis, Debye):
    X=             -0.0000    Y=             -0.0000    Z=             -0.0000  Tot=              0.0000
 Quadrupole moment (field-independent basis, Debye-Ang):
   XX=            -12.1145   YY=            -11.5576   ZZ=            -10.5688
   XY=              0.2295   XZ=             -0.0000   YZ=              0.0000

 Normal termination of Gaussian 09 at Thu Feb  9 15:47:57 2017.
