 Gaussian 09, Revision E.01,
 Gaussian 09:  ES64L-G09RevE.01 30-Nov-2015

 ----------------------------------------------------------------------
 #rhf/gen scf(symm,tight,novaracc,noincfock,fulldiag) stable(crhf) geom
 =nocrowd test
 ----------------------------------------------------------------------

 ----------------------------------------------------------------------
 hf stability analysis of h10 triangular lattice, y= 2.2086216254199424
 ----------------------------------------------------------------------
 Symbolic Z-matrix:
 Charge =  0 Multiplicity = 1

                         Standard orientation:
 ---------------------------------------------------------------------
 Center     Atomic      Atomic             Coordinates (Angstroms)
 Number     Number       Type             X           Y           Z
 ---------------------------------------------------------------------
      1          1           0        4.417243    0.261408    0.000000
      2          1           0        2.208622    0.522815    0.000000
      3          1           0        2.208622    0.000000    0.000000
      4          1           0        0.000000    0.261408   -0.000000
      5          1           0       -0.000000   -0.261408   -0.000000
      6          1           0       -2.208622    0.000000    0.000000
      7          1           0       -2.208622   -0.522815    0.000000
      8          1           0       -4.417243   -0.261408    0.000000
 ---------------------------------------------------------------------

 SCF Done:  E(RHF) =  -3.65394492568     A.U. after    6 cycles
 E2 =    -0.6943285157D+00 EUMP2 =    -0.43482734413909D+01

 The electronic state is 1-AG.
 Alpha  occ. eigenvalues --   -0.73182  -0.70579  -0.67442  -0.20994
 Alpha virt. eigenvalues --   -0.14958   0.50371   0.58758   0.68658

 Mulliken charges:
               1
     1  H   -0.000049
     2  H    0.000701
     3  H   -0.000827
     4  H    0.000175
     5  H    0.000175
     6  H   -0.000827
     7  H    0.000701
     8  H   -0.000049
 Sum of Mulliken charges =   0.00000

 Dipole moment (field-independent basis, Debye):
    X=              0.0000    Y=              0.0000    Z=             -0.0000  Tot=              0.0000
 Quadrupole moment (field-independent basis, Debye-Ang):
   XX=            -12.5226   YY=            -10.0145   ZZ=            -10.7298
   XY=             -0.1189   XZ=              0.0000   YZ=             -0.0000

 Normal termination of Gaussian 09 at Thu Feb  9 16:00:15 2017.
