 Gaussian 09, Revision E.01,
 Gaussian 09:  ES64L-G09RevE.01 30-Nov-2015

 ----------------------------------------------------------------------
 #rhf/gen scf(symm,tight,novaracc,noincfock,fulldiag) stable(crhf) geom
 =nocrowd test
 ----------------------------------------------------------------------

 ----------------------------------------------------------------------
 hf stability analysis of h10 triangular lattice, y= 1.5658605742718710
 ----------------------------------------------------------------------
 Symbolic Z-matrix:
 Charge =  0 Multiplicity = 1

                         Standard orientation:
 ---------------------------------------------------------------------
 Center     Atomic      Atomic             Coordinates (Angstroms)
 Number     Number       Type             X           Y           Z
 ---------------------------------------------------------------------
      1          1           0        3.131721    0.368711    0.000000
      2          1           0        1.565861    0.737422    0.000000
      3          1           0        1.565861    0.000000    0.000000
      4          1           0        0.000000    0.368711    0.000000
      5          1           0       -0.000000   -0.368711   -0.000000
      6          1           0       -1.565861    0.000000    0.000000
      7          1           0       -1.565861   -0.737422    0.000000
      8          1           0       -3.131721   -0.368711    0.000000
 ---------------------------------------------------------------------

 SCF Done:  E(RHF) =  -3.88303852058     A.U. after    8 cycles
 E2 =    -0.3254888569D+00 EUMP2 =    -0.42085273774405D+01

 The electronic state is 1-AG.
 Alpha  occ. eigenvalues --   -0.76871  -0.67509  -0.54350  -0.17779
 Alpha virt. eigenvalues --   -0.06781   0.23281   0.39006   0.58265

 Mulliken charges:
               1
     1  H   -0.093188
     2  H    0.033220
     3  H    0.039954
     4  H    0.020014
     5  H    0.020014
     6  H    0.039954
     7  H    0.033220
     8  H   -0.093188
 Sum of Mulliken charges =  -0.00000

 Dipole moment (field-independent basis, Debye):
    X=              0.0000    Y=             -0.0000    Z=             -0.0000  Tot=              0.0000
 Quadrupole moment (field-independent basis, Debye-Ang):
   XX=            -21.1987   YY=             -9.2621   ZZ=            -10.4647
   XY=             -1.2799   XZ=              0.0000   YZ=              0.0000

 Normal termination of Gaussian 09 at Thu Feb  9 15:54:51 2017.
