 Gaussian 09, Revision E.01,
 Gaussian 09:  ES64L-G09RevE.01 30-Nov-2015

 ----------------------------------------------------------------------
 #rhf/gen scf(symm,tight,novaracc,noincfock,fulldiag) stable(crhf) geom
 =nocrowd test
 ----------------------------------------------------------------------

 ----------------------------------------------------------------------
 hf stability analysis of h10 triangular lattice, y= 1.1014370258989608
 ----------------------------------------------------------------------
 Symbolic Z-matrix:
 Charge =  0 Multiplicity = 1

                         Standard orientation:
 ---------------------------------------------------------------------
 Center     Atomic      Atomic             Coordinates (Angstroms)
 Number     Number       Type             X           Y           Z
 ---------------------------------------------------------------------
      1          1           0        2.202874    0.524179   -0.000000
      2          1           0        1.101437    1.048358   -0.000000
      3          1           0        1.101437    0.000000   -0.000000
      4          1           0        0.000000    0.524179    0.000000
      5          1           0       -0.000000   -0.524179    0.000000
      6          1           0       -1.101437    0.000000   -0.000000
      7          1           0       -1.101437   -1.048358    0.000000
      8          1           0       -2.202874   -0.524179   -0.000000
 ---------------------------------------------------------------------

 SCF Done:  E(RHF) =  -3.90237685591     A.U. after   10 cycles
 E2 =    -0.8634356620D-01 EUMP2 =    -0.39887204221114D+01

 The electronic state is 1-AG.
 Alpha  occ. eigenvalues --   -0.80770  -0.66545  -0.41577  -0.28427
 Alpha virt. eigenvalues --    0.09026   0.11694   0.39449   0.50818

 Mulliken charges:
               1
     1  H   -0.006980
     2  H    0.067604
     3  H    0.164997
     4  H   -0.225621
     5  H   -0.225621
     6  H    0.164997
     7  H    0.067604
     8  H   -0.006980
 Sum of Mulliken charges =  -0.00000

 Dipole moment (field-independent basis, Debye):
    X=             -0.0000    Y=             -0.0000    Z=             -0.0000  Tot=              0.0000
 Quadrupole moment (field-independent basis, Debye-Ang):
   XX=             -9.0880   YY=            -11.9680   ZZ=            -10.5923
   XY=              1.3051   XZ=             -0.0000   YZ=              0.0000

 Normal termination of Gaussian 09 at Thu Feb  9 15:44:31 2017.
