 Gaussian 09, Revision E.01,
 Gaussian 09:  ES64L-G09RevE.01 30-Nov-2015

 ----------------------------------------------------------------------
 #rhf/gen scf(symm,tight,novaracc,noincfock,fulldiag) stable(crhf) geom
 =nocrowd test
 ----------------------------------------------------------------------

 hf stability analysis of h10 triangular lattice, y= 0.8573215722897890
 0
 ----------------------------------------------------------------------
 Symbolic Z-matrix:
 Charge =  0 Multiplicity = 1

                         Standard orientation:
 ---------------------------------------------------------------------
 Center     Atomic      Atomic             Coordinates (Angstroms)
 Number     Number       Type             X           Y           Z
 ---------------------------------------------------------------------
      1          1           0        1.714643    0.673435   -0.000000
      2          1           0        0.857322    1.346870   -0.000000
      3          1           0        0.857322    0.000000    0.000000
      4          1           0        0.000000    0.673435   -0.000000
      5          1           0       -0.000000   -0.673435   -0.000000
      6          1           0       -0.857322    0.000000    0.000000
      7          1           0       -0.857322   -1.346870   -0.000000
      8          1           0       -1.714643   -0.673435   -0.000000
 ---------------------------------------------------------------------

 SCF Done:  E(RHF) =  -3.97716427724     A.U. after   10 cycles
 E2 =    -0.8095228899D-01 EUMP2 =    -0.40581165662317D+01

 The electronic state is 1-AG.
 Alpha  occ. eigenvalues --   -0.84765  -0.66606  -0.39967  -0.39676
 Alpha virt. eigenvalues --    0.04843   0.22634   0.40155   0.76098

 Mulliken charges:
               1
     1  H   -0.035452
     2  H    0.086045
     3  H    0.081530
     4  H   -0.132123
     5  H   -0.132123
     6  H    0.081530
     7  H    0.086045
     8  H   -0.035452
 Sum of Mulliken charges =  -0.00000

 Dipole moment (field-independent basis, Debye):
    X=              0.0000    Y=              0.0000    Z=             -0.0000  Tot=              0.0000
 Quadrupole moment (field-independent basis, Debye-Ang):
   XX=            -11.8547   YY=            -11.1411   ZZ=            -10.4648
   XY=              0.4317   XZ=             -0.0000   YZ=              0.0000

 Normal termination of Gaussian 09 at Thu Feb  9 15:33:53 2017.
