 Gaussian 09, Revision E.01,
 Gaussian 09:  ES64L-G09RevE.01 30-Nov-2015

 ----------------------------------------------------------------------
 #rhf/gen scf(symm,tight,novaracc,noincfock,fulldiag) stable(crhf) geom
 =nocrowd test
 ----------------------------------------------------------------------

 ----------------------------------------------------------------------
 hf stability analysis of h10 triangular lattice, y= 1.2611797784096244
 ----------------------------------------------------------------------
 Symbolic Z-matrix:
 Charge =  0 Multiplicity = 1

                         Standard orientation:
 ---------------------------------------------------------------------
 Center     Atomic      Atomic             Coordinates (Angstroms)
 Number     Number       Type             X           Y           Z
 ---------------------------------------------------------------------
      1          1           0        2.522360    0.457786   -0.000000
      2          1           0        1.261180    0.915572   -0.000000
      3          1           0        1.261180    0.000000   -0.000000
      4          1           0        0.000000    0.457786    0.000000
      5          1           0       -0.000000   -0.457786    0.000000
      6          1           0       -1.261180    0.000000   -0.000000
      7          1           0       -1.261180   -0.915572   -0.000000
      8          1           0       -2.522360   -0.457786   -0.000000
 ---------------------------------------------------------------------

 SCF Done:  E(RHF) =  -3.82246140306     A.U. after   11 cycles
 E2 =    -0.1073155845D+00 EUMP2 =    -0.39297769875293D+01

 The electronic state is 1-AG.
 Alpha  occ. eigenvalues --   -0.80226  -0.67294  -0.44673  -0.20210
 Alpha virt. eigenvalues --    0.07666   0.08993   0.27897   0.52224

 Mulliken charges:
               1
     1  H   -0.111625
     2  H    0.048618
     3  H    0.181786
     4  H   -0.118778
     5  H   -0.118778
     6  H    0.181786
     7  H    0.048618
     8  H   -0.111625
 Sum of Mulliken charges =  -0.00000

 Dipole moment (field-independent basis, Debye):
    X=              0.0000    Y=             -0.0000    Z=             -0.0000  Tot=              0.0000
 Quadrupole moment (field-independent basis, Debye-Ang):
   XX=            -16.0581   YY=            -10.8537   ZZ=            -10.5237
   XY=             -0.6205   XZ=             -0.0000   YZ=             -0.0000

 Normal termination of Gaussian 09 at Thu Feb  9 15:49:11 2017.
