 Gaussian 09, Revision E.01,
 Gaussian 09:  ES64L-G09RevE.01 30-Nov-2015

 ----------------------------------------------------------------------
 #rhf/gen scf(symm,tight,novaracc,noincfock,fulldiag) stable(crhf) geom
 =nocrowd test
 ----------------------------------------------------------------------

 ----------------------------------------------------------------------
 hf stability analysis of h10 triangular lattice, y= 1.1894342271849665
 ----------------------------------------------------------------------
 Symbolic Z-matrix:
 Charge =  0 Multiplicity = 1

                         Standard orientation:
 ---------------------------------------------------------------------
 Center     Atomic      Atomic             Coordinates (Angstroms)
 Number     Number       Type             X           Y           Z
 ---------------------------------------------------------------------
      1          1           0        2.378868    0.485399   -0.000000
      2          1           0        1.189434    0.970798   -0.000000
      3          1           0        1.189434    0.000000   -0.000000
      4          1           0        0.000000    0.485399    0.000000
      5          1           0       -0.000000   -0.485399    0.000000
      6          1           0       -1.189434    0.000000   -0.000000
      7          1           0       -1.189434   -0.970798   -0.000000
      8          1           0       -2.378868   -0.485399   -0.000000
 ---------------------------------------------------------------------

 SCF Done:  E(RHF) =  -3.84935419929     A.U. after   10 cycles
 E2 =    -0.9631944672D-01 EUMP2 =    -0.39456736460052D+01

 The electronic state is 1-AG.
 Alpha  occ. eigenvalues --   -0.79876  -0.66683  -0.42631  -0.23756
 Alpha virt. eigenvalues --    0.06866   0.12428   0.30430   0.52452

 Mulliken charges:
               1
     1  H   -0.036481
     2  H    0.041773
     3  H    0.190854
     4  H   -0.196146
     5  H   -0.196146
     6  H    0.190854
     7  H    0.041773
     8  H   -0.036481
 Sum of Mulliken charges =   0.00000

 Dipole moment (field-independent basis, Debye):
    X=             -0.0000    Y=              0.0000    Z=             -0.0000  Tot=              0.0000
 Quadrupole moment (field-independent basis, Debye-Ang):
   XX=            -10.6219   YY=            -11.8146   ZZ=            -10.5852
   XY=              0.6099   XZ=              0.0000   YZ=             -0.0000

 Normal termination of Gaussian 09 at Thu Feb  9 15:47:16 2017.
