 Gaussian 09, Revision E.01,
 Gaussian 09:  ES64L-G09RevE.01 30-Nov-2015

 ----------------------------------------------------------------------
 #rhf/gen scf(symm,tight,novaracc,noincfock,fulldiag) stable(crhf) geom
 =nocrowd test
 ----------------------------------------------------------------------

 hf stability analysis of h10 triangular lattice, y= 0.8737241767333666
 6
 ----------------------------------------------------------------------
 Symbolic Z-matrix:
 Charge =  0 Multiplicity = 1

                         Standard orientation:
 ---------------------------------------------------------------------
 Center     Atomic      Atomic             Coordinates (Angstroms)
 Number     Number       Type             X           Y           Z
 ---------------------------------------------------------------------
      1          1           0        1.747448    0.660792    0.000000
      2          1           0        0.873724    1.321585    0.000000
      3          1           0        0.873724    0.000000    0.000000
      4          1           0        0.000000    0.660792    0.000000
      5          1           0       -0.000000   -0.660792    0.000000
      6          1           0       -0.873724    0.000000   -0.000000
      7          1           0       -0.873724   -1.321585    0.000000
      8          1           0       -1.747448   -0.660792   -0.000000
 ---------------------------------------------------------------------

 SCF Done:  E(RHF) =  -3.97644034338     A.U. after   10 cycles
 E2 =    -0.8053934015D-01 EUMP2 =    -0.40569796835289D+01

 The electronic state is 1-AG.
 Alpha  occ. eigenvalues --   -0.84600  -0.66642  -0.40063  -0.39198
 Alpha virt. eigenvalues --    0.05167   0.21647   0.40959   0.73759

 Mulliken charges:
               1
     1  H   -0.039610
     2  H    0.092876
     3  H    0.093181
     4  H   -0.146446
     5  H   -0.146446
     6  H    0.093181
     7  H    0.092876
     8  H   -0.039610
 Sum of Mulliken charges =   0.00000

 Dipole moment (field-independent basis, Debye):
    X=              0.0000    Y=              0.0000    Z=             -0.0000  Tot=              0.0000
 Quadrupole moment (field-independent basis, Debye-Ang):
   XX=            -11.8195   YY=            -11.1298   ZZ=            -10.4729
   XY=              0.5186   XZ=             -0.0000   YZ=              0.0000

 Normal termination of Gaussian 09 at Thu Feb  9 15:34:40 2017.
