 Gaussian 09, Revision E.01,
 Gaussian 09:  ES64L-G09RevE.01 30-Nov-2015

 ----------------------------------------------------------------------
 #rhf/gen scf(symm,tight,novaracc,noincfock,fulldiag) stable(crhf) geom
 =nocrowd test
 ----------------------------------------------------------------------

 ----------------------------------------------------------------------
 hf stability analysis of h10 triangular lattice, y= 1.2075679961521408
 ----------------------------------------------------------------------
 Symbolic Z-matrix:
 Charge =  0 Multiplicity = 1

                         Standard orientation:
 ---------------------------------------------------------------------
 Center     Atomic      Atomic             Coordinates (Angstroms)
 Number     Number       Type             X           Y           Z
 ---------------------------------------------------------------------
      1          1           0        2.415136    0.478110   -0.000000
      2          1           0        1.207568    0.956220   -0.000000
      3          1           0        1.207568    0.000000   -0.000000
      4          1           0        0.000000    0.478110   -0.000000
      5          1           0       -0.000000   -0.478110   -0.000000
      6          1           0       -1.207568    0.000000    0.000000
      7          1           0       -1.207568   -0.956220   -0.000000
      8          1           0       -2.415136   -0.478110   -0.000000
 ---------------------------------------------------------------------

 SCF Done:  E(RHF) =  -3.84022915782     A.U. after   10 cycles
 E2 =    -0.9899219698D-01 EUMP2 =    -0.39392213547968D+01

 The electronic state is 1-AG.
 Alpha  occ. eigenvalues --   -0.79888  -0.66803  -0.43023  -0.22845
 Alpha virt. eigenvalues --    0.06853   0.11953   0.29283   0.52483

 Mulliken charges:
               1
     1  H   -0.052987
     2  H    0.041159
     3  H    0.192528
     4  H   -0.180700
     5  H   -0.180700
     6  H    0.192528
     7  H    0.041159
     8  H   -0.052987
 Sum of Mulliken charges =  -0.00000

 Dipole moment (field-independent basis, Debye):
    X=              0.0000    Y=             -0.0000    Z=             -0.0000  Tot=              0.0000
 Quadrupole moment (field-independent basis, Debye-Ang):
   XX=            -11.6907   YY=            -11.6318   ZZ=            -10.5735
   XY=              0.3321   XZ=              0.0000   YZ=              0.0000

 Normal termination of Gaussian 09 at Thu Feb  9 15:47:47 2017.
