 Gaussian 09, Revision E.01,
 Gaussian 09:  ES64L-G09RevE.01 30-Nov-2015

 ----------------------------------------------------------------------
 #rhf/gen scf(symm,tight,novaracc,noincfock,fulldiag) stable(crhf) geom
 =nocrowd test
 ----------------------------------------------------------------------

 hf stability analysis of h10 triangular lattice, y= 0.7972534768479298
 0
 ----------------------------------------------------------------------
 Symbolic Z-matrix:
 Charge =  0 Multiplicity = 1

                         Standard orientation:
 ---------------------------------------------------------------------
 Center     Atomic      Atomic             Coordinates (Angstroms)
 Number     Number       Type             X           Y           Z
 ---------------------------------------------------------------------
      1          1           0        1.594507    0.724174    0.000000
      2          1           0        0.797253    1.448348    0.000000
      3          1           0        0.797253    0.000000    0.000000
      4          1           0        0.000000    0.724174    0.000000
      5          1           0       -0.000000   -0.724174    0.000000
      6          1           0       -0.797253    0.000000    0.000000
      7          1           0       -0.797253   -1.448348    0.000000
      8          1           0       -1.594507   -0.724174    0.000000
 ---------------------------------------------------------------------

 SCF Done:  E(RHF) =  -3.97767997240     A.U. after    9 cycles
 E2 =    -0.8253154477D-01 EUMP2 =    -0.40602115171716D+01

 The electronic state is 1-AG.
 Alpha  occ. eigenvalues --   -0.85166  -0.66485  -0.40870  -0.39715
 Alpha virt. eigenvalues --    0.04040   0.25691   0.37586   0.82491

 Mulliken charges:
               1
     1  H   -0.006565
     2  H    0.049440
     3  H    0.024723
     4  H   -0.067598
     5  H   -0.067598
     6  H    0.024723
     7  H    0.049440
     8  H   -0.006565
 Sum of Mulliken charges =   0.00000

 Dipole moment (field-independent basis, Debye):
    X=             -0.0000    Y=             -0.0000    Z=              0.0000  Tot=              0.0000
 Quadrupole moment (field-independent basis, Debye-Ang):
   XX=            -11.7426   YY=            -11.3327   ZZ=            -10.4433
   XY=              0.1875   XZ=             -0.0000   YZ=              0.0000

 Normal termination of Gaussian 09 at Thu Feb  9 15:30:47 2017.
