 Gaussian 09, Revision E.01,
 Gaussian 09:  ES64L-G09RevE.01 30-Nov-2015

 ----------------------------------------------------------------------
 #rhf/gen scf(symm,tight,novaracc,noincfock,fulldiag) stable(crhf) geom
 =nocrowd test
 ----------------------------------------------------------------------

 ----------------------------------------------------------------------
 hf stability analysis of h10 triangular lattice, y= 1.2526740377218175
 ----------------------------------------------------------------------
 Symbolic Z-matrix:
 Charge =  0 Multiplicity = 1

                         Standard orientation:
 ---------------------------------------------------------------------
 Center     Atomic      Atomic             Coordinates (Angstroms)
 Number     Number       Type             X           Y           Z
 ---------------------------------------------------------------------
      1          1           0        2.505348    0.460894   -0.000000
      2          1           0        1.252674    0.921789   -0.000000
      3          1           0        1.252674    0.000000   -0.000000
      4          1           0       -0.000000    0.460894    0.000000
      5          1           0        0.000000   -0.460894    0.000000
      6          1           0       -1.252674   -0.000000   -0.000000
      7          1           0       -1.252674   -0.921789   -0.000000
      8          1           0       -2.505348   -0.460894   -0.000000
 ---------------------------------------------------------------------

 SCF Done:  E(RHF) =  -3.82421757000     A.U. after   11 cycles
 E2 =    -0.1058729347D+00 EUMP2 =    -0.39300905047274D+01

 The electronic state is 1-AG.
 Alpha  occ. eigenvalues --   -0.80152  -0.67209  -0.44363  -0.20619
 Alpha virt. eigenvalues --    0.07462   0.09581   0.27934   0.52280

 Mulliken charges:
               1
     1  H   -0.102130
     2  H    0.046870
     3  H    0.185017
     4  H   -0.129757
     5  H   -0.129757
     6  H    0.185017
     7  H    0.046870
     8  H   -0.102130
 Sum of Mulliken charges =   0.00000

 Dipole moment (field-independent basis, Debye):
    X=              0.0000    Y=              0.0000    Z=             -0.0000  Tot=              0.0000
 Quadrupole moment (field-independent basis, Debye-Ang):
   XX=            -15.2869   YY=            -10.9917   ZZ=            -10.5326
   XY=             -0.4649   XZ=             -0.0000   YZ=             -0.0000

 Normal termination of Gaussian 09 at Thu Feb  9 15:48:58 2017.
