 Gaussian 09, Revision E.01,
 Gaussian 09:  ES64L-G09RevE.01 30-Nov-2015

 ----------------------------------------------------------------------
 #rhf/gen scf(symm,tight,novaracc,noincfock,fulldiag) stable(crhf) geom
 =nocrowd test
 ----------------------------------------------------------------------

 ----------------------------------------------------------------------
 hf stability analysis of h10 triangular lattice, y= 2.3840951758941467
 ----------------------------------------------------------------------
 Symbolic Z-matrix:
 Charge =  0 Multiplicity = 1

                         Standard orientation:
 ---------------------------------------------------------------------
 Center     Atomic      Atomic             Coordinates (Angstroms)
 Number     Number       Type             X           Y           Z
 ---------------------------------------------------------------------
      1          1           0        4.768190    0.242168   -0.000000
      2          1           0        2.384095    0.484335   -0.000000
      3          1           0        2.384095    0.000000   -0.000000
      4          1           0        0.000000    0.242168    0.000000
      5          1           0       -0.000000   -0.242168    0.000000
      6          1           0       -2.384095    0.000000   -0.000000
      7          1           0       -2.384095   -0.484335   -0.000000
      8          1           0       -4.768190   -0.242168   -0.000000
 ---------------------------------------------------------------------

 SCF Done:  E(RHF) =  -3.52070657379     A.U. after    5 cycles
 E2 =    -0.7598089320D+00 EUMP2 =    -0.42805155057957D+01

 The electronic state is 1-AG.
 Alpha  occ. eigenvalues --   -0.73576  -0.71853  -0.69900  -0.21077
 Alpha virt. eigenvalues --   -0.15516   0.55831   0.62740   0.70667

 Mulliken charges:
               1
     1  H    0.001108
     2  H    0.000016
     3  H   -0.001155
     4  H    0.000032
     5  H    0.000032
     6  H   -0.001155
     7  H    0.000016
     8  H    0.001108
 Sum of Mulliken charges =  -0.00000

 Dipole moment (field-independent basis, Debye):
    X=              0.0000    Y=             -0.0000    Z=             -0.0000  Tot=              0.0000
 Quadrupole moment (field-independent basis, Debye-Ang):
   XX=            -11.9499   YY=            -10.1563   ZZ=            -10.7811
   XY=             -0.0675   XZ=             -0.0000   YZ=              0.0000

 Normal termination of Gaussian 09 at Thu Feb  9 16:00:58 2017.
