 Gaussian 09, Revision E.01,
 Gaussian 09:  ES64L-G09RevE.01 30-Nov-2015

 ----------------------------------------------------------------------
 #rhf/gen scf(symm,tight,novaracc,noincfock,fulldiag) stable(crhf) geom
 =nocrowd test
 ----------------------------------------------------------------------

 hf stability analysis of h10 triangular lattice, y= 0.8106688916475531
 8
 ----------------------------------------------------------------------
 Symbolic Z-matrix:
 Charge =  0 Multiplicity = 1

                         Standard orientation:
 ---------------------------------------------------------------------
 Center     Atomic      Atomic             Coordinates (Angstroms)
 Number     Number       Type             X           Y           Z
 ---------------------------------------------------------------------
      1          1           0        1.621338    0.712190    0.000000
      2          1           0        0.810669    1.424380    0.000000
      3          1           0        0.810669    0.000000    0.000000
      4          1           0        0.000000    0.712190    0.000000
      5          1           0       -0.000000   -0.712190    0.000000
      6          1           0       -0.810669    0.000000    0.000000
      7          1           0       -0.810669   -1.424380    0.000000
      8          1           0       -1.621338   -0.712190    0.000000
 ---------------------------------------------------------------------

 SCF Done:  E(RHF) =  -3.97772605148     A.U. after   10 cycles
 E2 =    -0.8223005973D-01 EUMP2 =    -0.40599561112063D+01

 The electronic state is 1-AG.
 Alpha  occ. eigenvalues --   -0.85106  -0.66507  -0.40686  -0.39755
 Alpha virt. eigenvalues --    0.04163   0.25138   0.38061   0.81450

 Mulliken charges:
               1
     1  H   -0.014805
     2  H    0.058972
     3  H    0.039301
     4  H   -0.083469
     5  H   -0.083469
     6  H    0.039301
     7  H    0.058972
     8  H   -0.014805
 Sum of Mulliken charges =   0.00000

 Dipole moment (field-independent basis, Debye):
    X=              0.0000    Y=             -0.0000    Z=              0.0000  Tot=              0.0000
 Quadrupole moment (field-independent basis, Debye-Ang):
   XX=            -11.7959   YY=            -11.2708   ZZ=            -10.4467
   XY=              0.2278   XZ=              0.0000   YZ=              0.0000

 Normal termination of Gaussian 09 at Thu Feb  9 15:31:30 2017.
