 Gaussian 09, Revision E.01,
 Gaussian 09:  ES64L-G09RevE.01 30-Nov-2015

 ----------------------------------------------------------------------
 #rhf/gen scf(symm,tight,novaracc,noincfock,fulldiag) stable(crhf) geom
 =nocrowd test
 ----------------------------------------------------------------------

 ----------------------------------------------------------------------
 hf stability analysis of h10 triangular lattice, y= 1.4213063252040461
 ----------------------------------------------------------------------
 Symbolic Z-matrix:
 Charge =  0 Multiplicity = 1

                         Standard orientation:
 ---------------------------------------------------------------------
 Center     Atomic      Atomic             Coordinates (Angstroms)
 Number     Number       Type             X           Y           Z
 ---------------------------------------------------------------------
      1          1           0        2.842613    0.406211   -0.000000
      2          1           0        1.421306    0.812422   -0.000000
      3          1           0        1.421306    0.000000   -0.000000
      4          1           0       -0.000000    0.406211   -0.000000
      5          1           0       -0.000000   -0.406211   -0.000000
      6          1           0       -1.421306    0.000000   -0.000000
      7          1           0       -1.421306   -0.812422   -0.000000
      8          1           0       -2.842613   -0.406211   -0.000000
 ---------------------------------------------------------------------

 SCF Done:  E(RHF) =  -3.85044766997     A.U. after   11 cycles
 E2 =    -0.2071395974D+00 EUMP2 =    -0.40575872674060D+01

 The electronic state is 1-AG.
 Alpha  occ. eigenvalues --   -0.79900  -0.67920  -0.50875  -0.16390
 Alpha virt. eigenvalues --   -0.01161   0.14810   0.32742   0.53872

 Mulliken charges:
               1
     1  H   -0.166141
     2  H    0.056590
     3  H    0.084405
     4  H    0.025146
     5  H    0.025146
     6  H    0.084405
     7  H    0.056590
     8  H   -0.166141
 Sum of Mulliken charges =  -0.00000

 Dipole moment (field-independent basis, Debye):
    X=              0.0000    Y=              0.0000    Z=              0.0000  Tot=              0.0000
 Quadrupole moment (field-independent basis, Debye-Ang):
   XX=            -24.4534   YY=             -9.2147   ZZ=            -10.4255
   XY=             -1.9690   XZ=             -0.0000   YZ=              0.0000

 Normal termination of Gaussian 09 at Thu Feb  9 15:52:34 2017.
