 Gaussian 09, Revision E.01,
 Gaussian 09:  ES64L-G09RevE.01 30-Nov-2015

 ----------------------------------------------------------------------
 #rhf/gen scf(symm,tight,novaracc,noincfock,fulldiag) stable(crhf) geom
 =nocrowd test
 ----------------------------------------------------------------------

 ----------------------------------------------------------------------
 hf stability analysis of h10 triangular lattice, y= 1.1676724918407646
 ----------------------------------------------------------------------
 Symbolic Z-matrix:
 Charge =  0 Multiplicity = 1

                         Standard orientation:
 ---------------------------------------------------------------------
 Center     Atomic      Atomic             Coordinates (Angstroms)
 Number     Number       Type             X           Y           Z
 ---------------------------------------------------------------------
      1          1           0        2.335345    0.494445   -0.000000
      2          1           0        1.167672    0.988891   -0.000000
      3          1           0        1.167672    0.000000   -0.000000
      4          1           0        0.000000    0.494445   -0.000000
      5          1           0       -0.000000   -0.494445   -0.000000
      6          1           0       -1.167672    0.000000   -0.000000
      7          1           0       -1.167672   -0.988891   -0.000000
      8          1           0       -2.335345   -0.494445   -0.000000
 ---------------------------------------------------------------------

 SCF Done:  E(RHF) =  -3.86170205039     A.U. after   10 cycles
 E2 =    -0.9330669679D-01 EUMP2 =    -0.39550087471718D+01

 The electronic state is 1-AG.
 Alpha  occ. eigenvalues --   -0.79956  -0.66584  -0.42260  -0.24870
 Alpha virt. eigenvalues --    0.07095   0.12637   0.32215   0.52280

 Mulliken charges:
               1
     1  H   -0.021208
     2  H    0.045231
     3  H    0.185971
     4  H   -0.209994
     5  H   -0.209994
     6  H    0.185971
     7  H    0.045231
     8  H   -0.021208
 Sum of Mulliken charges =   0.00000

 Dipole moment (field-independent basis, Debye):
    X=              0.0000    Y=              0.0000    Z=             -0.0000  Tot=              0.0000
 Quadrupole moment (field-independent basis, Debye-Ang):
   XX=             -9.7094   YY=            -11.9590   ZZ=            -10.5945
   XY=              0.8870   XZ=              0.0000   YZ=             -0.0000

 Normal termination of Gaussian 09 at Thu Feb  9 15:46:38 2017.
