 Gaussian 09, Revision E.01,
 Gaussian 09:  ES64L-G09RevE.01 30-Nov-2015

 ----------------------------------------------------------------------
 #rhf/gen scf(symm,tight,novaracc,noincfock,fulldiag) stable(crhf) geom
 =nocrowd test
 ----------------------------------------------------------------------

 ----------------------------------------------------------------------
 hf stability analysis of h10 triangular lattice, y= 1.3154982119869003
 ----------------------------------------------------------------------
 Symbolic Z-matrix:
 Charge =  0 Multiplicity = 1

                         Standard orientation:
 ---------------------------------------------------------------------
 Center     Atomic      Atomic             Coordinates (Angstroms)
 Number     Number       Type             X           Y           Z
 ---------------------------------------------------------------------
      1          1           0        2.630996    0.438883   -0.000000
      2          1           0        1.315498    0.877767   -0.000000
      3          1           0        1.315498    0.000000   -0.000000
      4          1           0        0.000000    0.438883   -0.000000
      5          1           0       -0.000000   -0.438883   -0.000000
      6          1           0       -1.315498    0.000000   -0.000000
      7          1           0       -1.315498   -0.877767   -0.000000
      8          1           0       -2.630996   -0.438883   -0.000000
 ---------------------------------------------------------------------

 SCF Done:  E(RHF) =  -3.82123729876     A.U. after   12 cycles
 E2 =    -0.1236484037D+00 EUMP2 =    -0.39448857024482D+01

 The electronic state is 1-AG.
 Alpha  occ. eigenvalues --   -0.80688  -0.67791  -0.46963  -0.17872
 Alpha virt. eigenvalues --    0.05007   0.09472   0.28715   0.52024

 Mulliken charges:
               1
     1  H   -0.162724
     2  H    0.059125
     3  H    0.150945
     4  H   -0.047346
     5  H   -0.047346
     6  H    0.150945
     7  H    0.059125
     8  H   -0.162724
 Sum of Mulliken charges =  -0.00000

 Dipole moment (field-independent basis, Debye):
    X=              0.0000    Y=              0.0000    Z=              0.0000  Tot=              0.0000
 Quadrupole moment (field-independent basis, Debye-Ang):
   XX=            -20.9026   YY=             -9.9939   ZZ=            -10.4671
   XY=             -1.5168   XZ=             -0.0000   YZ=             -0.0000

 Normal termination of Gaussian 09 at Thu Feb  9 15:50:26 2017.
