 Gaussian 09, Revision E.01,
 Gaussian 09:  ES64L-G09RevE.01 30-Nov-2015

 ----------------------------------------------------------------------
 #rhf/gen scf(symm,tight,novaracc,noincfock,fulldiag) stable(crhf) geom
 =nocrowd test
 ----------------------------------------------------------------------

 ----------------------------------------------------------------------
 hf stability analysis of h10 triangular lattice, y= 1.1076695698895584
 ----------------------------------------------------------------------
 Symbolic Z-matrix:
 Charge =  0 Multiplicity = 1

                         Standard orientation:
 ---------------------------------------------------------------------
 Center     Atomic      Atomic             Coordinates (Angstroms)
 Number     Number       Type             X           Y           Z
 ---------------------------------------------------------------------
      1          1           0        2.215339    0.521230   -0.000000
      2          1           0        1.107670    1.042459   -0.000000
      3          1           0        1.107670    0.000000   -0.000000
      4          1           0        0.000000    0.521230   -0.000000
      5          1           0       -0.000000   -0.521230   -0.000000
      6          1           0       -1.107670    0.000000   -0.000000
      7          1           0       -1.107670   -1.042459   -0.000000
      8          1           0       -2.215339   -0.521230   -0.000000
 ---------------------------------------------------------------------

 SCF Done:  E(RHF) =  -3.89862589965     A.U. after   10 cycles
 E2 =    -0.8685897874D-01 EUMP2 =    -0.39854848783914D+01

 The electronic state is 1-AG.
 Alpha  occ. eigenvalues --   -0.80666  -0.66537  -0.41624  -0.28084
 Alpha virt. eigenvalues --    0.08783   0.11844   0.38686   0.51006

 Mulliken charges:
               1
     1  H   -0.006657
     2  H    0.065190
     3  H    0.166837
     4  H   -0.225369
     5  H   -0.225369
     6  H    0.166837
     7  H    0.065190
     8  H   -0.006657
 Sum of Mulliken charges =  -0.00000

 Dipole moment (field-independent basis, Debye):
    X=             -0.0000    Y=              0.0000    Z=             -0.0000  Tot=              0.0000
 Quadrupole moment (field-independent basis, Debye-Ang):
   XX=             -9.0488   YY=            -11.9863   ZZ=            -10.5940
   XY=              1.2898   XZ=              0.0000   YZ=             -0.0000

 Normal termination of Gaussian 09 at Thu Feb  9 15:44:43 2017.
