 Gaussian 09, Revision E.01,
 Gaussian 09:  ES64L-G09RevE.01 30-Nov-2015

 ----------------------------------------------------------------------
 #rhf/gen scf(symm,tight,novaracc,noincfock,fulldiag) stable(crhf) geom
 =nocrowd test
 ----------------------------------------------------------------------

 ----------------------------------------------------------------------
 hf stability analysis of h10 triangular lattice, y= 1.0195230727433033
 ----------------------------------------------------------------------
 Symbolic Z-matrix:
 Charge =  0 Multiplicity = 1

                         Standard orientation:
 ---------------------------------------------------------------------
 Center     Atomic      Atomic             Coordinates (Angstroms)
 Number     Number       Type             X           Y           Z
 ---------------------------------------------------------------------
      1          1           0        2.039046    0.566294   -0.000000
      2          1           0        1.019523    1.132589   -0.000000
      3          1           0        1.019523    0.000000   -0.000000
      4          1           0        0.000000    0.566294    0.000000
      5          1           0       -0.000000   -0.566294   -0.000000
      6          1           0       -1.019523    0.000000   -0.000000
      7          1           0       -1.019523   -1.132589   -0.000000
      8          1           0       -2.039046   -0.566294   -0.000000
 ---------------------------------------------------------------------

 SCF Done:  E(RHF) =  -3.94447257531     A.U. after   10 cycles
 E2 =    -0.8152223183D-01 EUMP2 =    -0.40259948071354D+01

 The electronic state is 1-AG.
 Alpha  occ. eigenvalues --   -0.82308  -0.66697  -0.41039  -0.32884
 Alpha virt. eigenvalues --    0.09277   0.12944   0.47782   0.50687

 Mulliken charges:
               1
     1  H   -0.024539
     2  H    0.095374
     3  H    0.146054
     4  H   -0.216889
     5  H   -0.216889
     6  H    0.146054
     7  H    0.095374
     8  H   -0.024539
 Sum of Mulliken charges =   0.00000

 Dipole moment (field-independent basis, Debye):
    X=              0.0000    Y=              0.0000    Z=             -0.0000  Tot=              0.0000
 Quadrupole moment (field-independent basis, Debye-Ang):
   XX=            -10.2348   YY=            -11.5985   ZZ=            -10.5560
   XY=              1.2315   XZ=              0.0000   YZ=             -0.0000

 Normal termination of Gaussian 09 at Thu Feb  9 15:41:29 2017.
