 Gaussian 09, Revision E.01,
 Gaussian 09:  ES64L-G09RevE.01 30-Nov-2015

 ----------------------------------------------------------------------
 #rhf/gen scf(symm,tight,novaracc,noincfock,fulldiag) stable(crhf) geom
 =nocrowd test
 ----------------------------------------------------------------------

 hf stability analysis of h10 triangular lattice, y= 0.9575054703582485
 1
 ----------------------------------------------------------------------
 Symbolic Z-matrix:
 Charge =  0 Multiplicity = 1

                         Standard orientation:
 ---------------------------------------------------------------------
 Center     Atomic      Atomic             Coordinates (Angstroms)
 Number     Number       Type             X           Y           Z
 ---------------------------------------------------------------------
      1          1           0        1.915011    0.602973    0.000000
      2          1           0        0.957505    1.205947    0.000000
      3          1           0        0.957505    0.000000    0.000000
      4          1           0        0.000000    0.602973    0.000000
      5          1           0       -0.000000   -0.602973   -0.000000
      6          1           0       -0.957505    0.000000    0.000000
      7          1           0       -0.957505   -1.205947    0.000000
      8          1           0       -1.915011   -0.602973    0.000000
 ---------------------------------------------------------------------

 SCF Done:  E(RHF) =  -3.96469360208     A.U. after    9 cycles
 E2 =    -0.7993491120D-01 EUMP2 =    -0.40446285132809D+01

 The electronic state is 1-AG.
 Alpha  occ. eigenvalues --   -0.83433  -0.66746  -0.40624  -0.35944
 Alpha virt. eigenvalues --    0.07342   0.16496   0.45029   0.60407

 Mulliken charges:
               1
     1  H   -0.039261
     2  H    0.105427
     3  H    0.131381
     4  H   -0.197547
     5  H   -0.197547
     6  H    0.131381
     7  H    0.105427
     8  H   -0.039261
 Sum of Mulliken charges =  -0.00000

 Dipole moment (field-independent basis, Debye):
    X=              0.0000    Y=             -0.0000    Z=              0.0000  Tot=              0.0000
 Quadrupole moment (field-independent basis, Debye-Ang):
   XX=            -11.1504   YY=            -11.3104   ZZ=            -10.5205
   XY=              0.9743   XZ=              0.0000   YZ=             -0.0000

 Normal termination of Gaussian 09 at Thu Feb  9 15:38:50 2017.
