 Gaussian 09, Revision E.01,
 Gaussian 09:  ES64L-G09RevE.01 30-Nov-2015

 ----------------------------------------------------------------------
 #rhf/gen scf(symm,tight,novaracc,noincfock,fulldiag) stable(crhf) geom
 =nocrowd test
 ----------------------------------------------------------------------

 hf stability analysis of h10 triangular lattice, y= 0.9870686609978258
 6
 ----------------------------------------------------------------------
 Symbolic Z-matrix:
 Charge =  0 Multiplicity = 1

                         Standard orientation:
 ---------------------------------------------------------------------
 Center     Atomic      Atomic             Coordinates (Angstroms)
 Number     Number       Type             X           Y           Z
 ---------------------------------------------------------------------
      1          1           0        1.974137    0.584914    0.000000
      2          1           0        0.987069    1.169828    0.000000
      3          1           0        0.987069    0.000000    0.000000
      4          1           0        0.000000    0.584914   -0.000000
      5          1           0       -0.000000   -0.584914    0.000000
      6          1           0       -0.987069    0.000000    0.000000
      7          1           0       -0.987069   -1.169828    0.000000
      8          1           0       -1.974137   -0.584914    0.000000
 ---------------------------------------------------------------------

 SCF Done:  E(RHF) =  -3.95639172546     A.U. after    9 cycles
 E2 =    -0.8047381694D-01 EUMP2 =    -0.40368655424050D+01

 The electronic state is 1-AG.
 Alpha  occ. eigenvalues --   -0.82916  -0.66736  -0.40825  -0.34538
 Alpha virt. eigenvalues --    0.08249   0.14757   0.46378   0.55676

 Mulliken charges:
               1
     1  H   -0.033035
     2  H    0.102249
     3  H    0.139086
     4  H   -0.208300
     5  H   -0.208300
     6  H    0.139086
     7  H    0.102249
     8  H   -0.033035
 Sum of Mulliken charges =  -0.00000

 Dipole moment (field-independent basis, Debye):
    X=             -0.0000    Y=              0.0000    Z=              0.0000  Tot=              0.0000
 Quadrupole moment (field-independent basis, Debye-Ang):
   XX=            -10.7442   YY=            -11.4395   ZZ=            -10.5378
   XY=              1.1111   XZ=             -0.0000   YZ=              0.0000

 Normal termination of Gaussian 09 at Thu Feb  9 15:40:06 2017.
