 Gaussian 09, Revision E.01,
 Gaussian 09:  ES64L-G09RevE.01 30-Nov-2015

 ----------------------------------------------------------------------
 #rhf/gen scf(symm,tight,novaracc,noincfock,fulldiag) stable(crhf) geom
 =nocrowd test
 ----------------------------------------------------------------------

 ----------------------------------------------------------------------
 hf stability analysis of h10 triangular lattice, y= 1.0576368648316092
 ----------------------------------------------------------------------
 Symbolic Z-matrix:
 Charge =  0 Multiplicity = 1

                         Standard orientation:
 ---------------------------------------------------------------------
 Center     Atomic      Atomic             Coordinates (Angstroms)
 Number     Number       Type             X           Y           Z
 ---------------------------------------------------------------------
      1          1           0        2.115274    0.545887    0.000000
      2          1           0        1.057637    1.091774    0.000000
      3          1           0        1.057637    0.000000    0.000000
      4          1           0        0.000000    0.545887   -0.000000
      5          1           0       -0.000000   -0.545887   -0.000000
      6          1           0       -1.057637    0.000000    0.000000
      7          1           0       -1.057637   -1.091774    0.000000
      8          1           0       -2.115274   -0.545887    0.000000
 ---------------------------------------------------------------------

 SCF Done:  E(RHF) =  -3.92682287311     A.U. after    9 cycles
 E2 =    -0.8335571842D-01 EUMP2 =    -0.40101785915282D+01

 The electronic state is 1-AG.
 Alpha  occ. eigenvalues --   -0.81573  -0.66626  -0.41282  -0.30840
 Alpha virt. eigenvalues --    0.10468   0.10981   0.45194   0.49304

 Mulliken charges:
               1
     1  H   -0.014462
     2  H    0.083827
     3  H    0.153966
     4  H   -0.223331
     5  H   -0.223331
     6  H    0.153966
     7  H    0.083827
     8  H   -0.014462
 Sum of Mulliken charges =  -0.00000

 Dipole moment (field-independent basis, Debye):
    X=             -0.0000    Y=              0.0000    Z=              0.0000  Tot=              0.0000
 Quadrupole moment (field-independent basis, Debye-Ang):
   XX=             -9.6209   YY=            -11.7878   ZZ=            -10.5754
   XY=              1.3177   XZ=             -0.0000   YZ=              0.0000

 Normal termination of Gaussian 09 at Thu Feb  9 15:42:58 2017.
