 Gaussian 09, Revision E.01,
 Gaussian 09:  ES64L-G09RevE.01 30-Nov-2015

 ----------------------------------------------------------------------
 #rhf/gen scf(symm,tight,novaracc,noincfock,fulldiag) stable(crhf) geom
 =nocrowd test
 ----------------------------------------------------------------------

 ----------------------------------------------------------------------
 hf stability analysis of h10 triangular lattice, y= 1.7736219748641979
 ----------------------------------------------------------------------
 Symbolic Z-matrix:
 Charge =  0 Multiplicity = 1

                         Standard orientation:
 ---------------------------------------------------------------------
 Center     Atomic      Atomic             Coordinates (Angstroms)
 Number     Number       Type             X           Y           Z
 ---------------------------------------------------------------------
      1          1           0        3.547244    0.325521    0.000000
      2          1           0        1.773622    0.651041   -0.000000
      3          1           0        1.773622    0.000000    0.000000
      4          1           0        0.000000    0.325521   -0.000000
      5          1           0       -0.000000   -0.325521   -0.000000
      6          1           0       -1.773622    0.000000    0.000000
      7          1           0       -1.773622   -0.651041    0.000000
      8          1           0       -3.547244   -0.325521    0.000000
 ---------------------------------------------------------------------

 SCF Done:  E(RHF) =  -3.86915299608     A.U. after    7 cycles
 E2 =    -0.4805154876D+00 EUMP2 =    -0.43496684836401D+01

 The electronic state is 1-AG.
 Alpha  occ. eigenvalues --   -0.74102  -0.67799  -0.59067  -0.19633
 Alpha virt. eigenvalues --   -0.11432   0.33820   0.46741   0.62915

 Mulliken charges:
               1
     1  H   -0.029554
     2  H    0.011870
     3  H    0.012099
     4  H    0.005585
     5  H    0.005585
     6  H    0.012099
     7  H    0.011870
     8  H   -0.029554
 Sum of Mulliken charges =   0.00000

 Dipole moment (field-independent basis, Debye):
    X=              0.0000    Y=              0.0000    Z=             -0.0000  Tot=              0.0000
 Quadrupole moment (field-independent basis, Debye-Ang):
   XX=            -16.4871   YY=             -9.5279   ZZ=            -10.5493
   XY=             -0.5743   XZ=              0.0000   YZ=              0.0000

 Normal termination of Gaussian 09 at Thu Feb  9 15:57:16 2017.
