 Gaussian 09, Revision E.01,
 Gaussian 09:  ES64L-G09RevE.01 30-Nov-2015

 ----------------------------------------------------------------------
 #rhf/gen scf(symm,tight,novaracc,noincfock,fulldiag) stable(crhf) geom
 =nocrowd test
 ----------------------------------------------------------------------

 hf stability analysis of h10 triangular lattice, y= 0.7806821130012239
 2
 ----------------------------------------------------------------------
 Symbolic Z-matrix:
 Charge =  0 Multiplicity = 1

                         Standard orientation:
 ---------------------------------------------------------------------
 Center     Atomic      Atomic             Coordinates (Angstroms)
 Number     Number       Type             X           Y           Z
 ---------------------------------------------------------------------
      1          1           0        1.561364    0.739546   -0.000000
      2          1           0        0.780682    1.479092   -0.000000
      3          1           0        0.780682    0.000000   -0.000000
      4          1           0        0.000000    0.739546   -0.000000
      5          1           0       -0.000000   -0.739546   -0.000000
      6          1           0       -0.780682    0.000000   -0.000000
      7          1           0       -0.780682   -1.479092   -0.000000
      8          1           0       -1.561364   -0.739546   -0.000000
 ---------------------------------------------------------------------

 SCF Done:  E(RHF) =  -3.97760464258     A.U. after    9 cycles
 E2 =    -0.8280297466D-01 EUMP2 =    -0.40604076172345D+01

 The electronic state is 1-AG.
 Alpha  occ. eigenvalues --   -0.85217  -0.66466  -0.41024  -0.39681
 Alpha virt. eigenvalues --    0.03937   0.26194   0.37150   0.83381

 Mulliken charges:
               1
     1  H    0.004815
     2  H    0.036945
     3  H    0.005398
     4  H   -0.047157
     5  H   -0.047157
     6  H    0.005398
     7  H    0.036945
     8  H    0.004815
 Sum of Mulliken charges =   0.00000

 Dipole moment (field-independent basis, Debye):
    X=             -0.0000    Y=             -0.0000    Z=             -0.0000  Tot=              0.0000
 Quadrupole moment (field-independent basis, Debye-Ang):
   XX=            -11.6610   YY=            -11.4204   ZZ=            -10.4403
   XY=              0.1528   XZ=             -0.0000   YZ=              0.0000

 Normal termination of Gaussian 09 at Thu Feb  9 15:29:53 2017.
