 Gaussian 09, Revision E.01,
 Gaussian 09:  ES64L-G09RevE.01 30-Nov-2015

 ----------------------------------------------------------------------
 #rhf/gen scf(symm,tight,novaracc,noincfock,fulldiag) stable(crhf) geom
 =nocrowd test
 ----------------------------------------------------------------------

 hf stability analysis of h10 triangular lattice, y= 0.9410916948249209
 4
 ----------------------------------------------------------------------
 Symbolic Z-matrix:
 Charge =  0 Multiplicity = 1

                         Standard orientation:
 ---------------------------------------------------------------------
 Center     Atomic      Atomic             Coordinates (Angstroms)
 Number     Number       Type             X           Y           Z
 ---------------------------------------------------------------------
      1          1           0        1.882183    0.613490   -0.000000
      2          1           0        0.941092    1.226980   -0.000000
      3          1           0        0.941092    0.000000   -0.000000
      4          1           0        0.000000    0.613490    0.000000
      5          1           0       -0.000000   -0.613490    0.000000
      6          1           0       -0.941092    0.000000   -0.000000
      7          1           0       -0.941092   -1.226980   -0.000000
      8          1           0       -1.882183   -0.613490   -0.000000
 ---------------------------------------------------------------------

 SCF Done:  E(RHF) =  -3.96828428102     A.U. after   10 cycles
 E2 =    -0.7981096911D-01 EUMP2 =    -0.40480952501253D+01

 The electronic state is 1-AG.
 Alpha  occ. eigenvalues --   -0.83699  -0.66741  -0.40510  -0.36674
 Alpha virt. eigenvalues --    0.06861   0.17490   0.44255   0.63078

 Mulliken charges:
               1
     1  H   -0.041673
     2  H    0.105675
     3  H    0.126146
     4  H   -0.190148
     5  H   -0.190148
     6  H    0.126146
     7  H    0.105675
     8  H   -0.041673
 Sum of Mulliken charges =   0.00000

 Dipole moment (field-independent basis, Debye):
    X=             -0.0000    Y=              0.0000    Z=             -0.0000  Tot=              0.0000
 Quadrupole moment (field-independent basis, Debye-Ang):
   XX=            -11.3424   YY=            -11.2496   ZZ=            -10.5108
   XY=              0.8901   XZ=             -0.0000   YZ=              0.0000

 Normal termination of Gaussian 09 at Thu Feb  9 15:38:04 2017.
