 Gaussian 09, Revision E.01,
 Gaussian 09:  ES64L-G09RevE.01 30-Nov-2015

 ----------------------------------------------------------------------
 #rhf/gen scf(symm,tight,novaracc,noincfock,fulldiag) stable(crhf) geom
 =nocrowd test
 ----------------------------------------------------------------------

 ----------------------------------------------------------------------
 hf stability analysis of h10 triangular lattice, y= 1.6959631686847902
 ----------------------------------------------------------------------
 Symbolic Z-matrix:
 Charge =  0 Multiplicity = 1

                         Standard orientation:
 ---------------------------------------------------------------------
 Center     Atomic      Atomic             Coordinates (Angstroms)
 Number     Number       Type             X           Y           Z
 ---------------------------------------------------------------------
      1          1           0        3.391926    0.340426   -0.000000
      2          1           0        1.695963    0.680852   -0.000000
      3          1           0        1.695963    0.000000   -0.000000
      4          1           0        0.000000    0.340426    0.000000
      5          1           0       -0.000000   -0.340426   -0.000000
      6          1           0       -1.695963    0.000000   -0.000000
      7          1           0       -1.695963   -0.680852   -0.000000
      8          1           0       -3.391926   -0.340426   -0.000000
 ---------------------------------------------------------------------

 SCF Done:  E(RHF) =  -3.88259289977     A.U. after    8 cycles
 E2 =    -0.4264387353D+00 EUMP2 =    -0.43090316351023D+01

 The electronic state is 1-AG.
 Alpha  occ. eigenvalues --   -0.74873  -0.67560  -0.57312  -0.19052
 Alpha virt. eigenvalues --   -0.10064   0.30152   0.44052   0.61429

 Mulliken charges:
               1
     1  H   -0.046916
     2  H    0.017851
     3  H    0.019605
     4  H    0.009461
     5  H    0.009461
     6  H    0.019605
     7  H    0.017851
     8  H   -0.046916
 Sum of Mulliken charges =   0.00000

 Dipole moment (field-independent basis, Debye):
    X=              0.0000    Y=             -0.0000    Z=              0.0000  Tot=              0.0000
 Quadrupole moment (field-independent basis, Debye-Ang):
   XX=            -17.9906   YY=             -9.4265   ZZ=            -10.5156
   XY=             -0.7786   XZ=             -0.0000   YZ=              0.0000

 Normal termination of Gaussian 09 at Thu Feb  9 15:56:27 2017.
