 Gaussian 09, Revision E.01,
 Gaussian 09:  ES64L-G09RevE.01 30-Nov-2015

 ----------------------------------------------------------------------
 #rhf/gen scf(symm,tight,novaracc,noincfock,fulldiag) stable(crhf) geom
 =nocrowd test
 ----------------------------------------------------------------------

 hf stability analysis of h10 triangular lattice, y= 0.7847877396887753
 5
 ----------------------------------------------------------------------
 Symbolic Z-matrix:
 Charge =  0 Multiplicity = 1

                         Standard orientation:
 ---------------------------------------------------------------------
 Center     Atomic      Atomic             Coordinates (Angstroms)
 Number     Number       Type             X           Y           Z
 ---------------------------------------------------------------------
      1          1           0        1.569575    0.735677    0.000000
      2          1           0        0.784788    1.471354   -0.000000
      3          1           0        0.784788    0.000000    0.000000
      4          1           0        0.000000    0.735677   -0.000000
      5          1           0       -0.000000   -0.735677    0.000000
      6          1           0       -0.784788    0.000000    0.000000
      7          1           0       -0.784788   -1.471354    0.000000
      8          1           0       -1.569575   -0.735677    0.000000
 ---------------------------------------------------------------------

 SCF Done:  E(RHF) =  -3.97762218805     A.U. after    9 cycles
 E2 =    -0.8274801845D-01 EUMP2 =    -0.40603702065020D+01

 The electronic state is 1-AG.
 Alpha  occ. eigenvalues --   -0.85207  -0.66470  -0.40993  -0.39687
 Alpha virt. eigenvalues --    0.03957   0.26092   0.37239   0.83204

 Mulliken charges:
               1
     1  H    0.001883
     2  H    0.040099
     3  H    0.010311
     4  H   -0.052292
     5  H   -0.052292
     6  H    0.010311
     7  H    0.040099
     8  H    0.001883
 Sum of Mulliken charges =  -0.00000

 Dipole moment (field-independent basis, Debye):
    X=             -0.0000    Y=              0.0000    Z=              0.0000  Tot=              0.0000
 Quadrupole moment (field-independent basis, Debye-Ang):
   XX=            -11.6826   YY=            -11.3977   ZZ=            -10.4409
   XY=              0.1597   XZ=             -0.0000   YZ=              0.0000

 Normal termination of Gaussian 09 at Thu Feb  9 15:30:06 2017.
