 Gaussian 09, Revision E.01,
 Gaussian 09:  ES64L-G09RevE.01 30-Nov-2015

 ----------------------------------------------------------------------
 #rhf/gen scf(symm,tight,novaracc,noincfock,fulldiag) stable(crhf) geom
 =nocrowd test
 ----------------------------------------------------------------------

 ----------------------------------------------------------------------
 hf stability analysis of h10 triangular lattice, y= 1.4968340853525235
 ----------------------------------------------------------------------
 Symbolic Z-matrix:
 Charge =  0 Multiplicity = 1

                         Standard orientation:
 ---------------------------------------------------------------------
 Center     Atomic      Atomic             Coordinates (Angstroms)
 Number     Number       Type             X           Y           Z
 ---------------------------------------------------------------------
      1          1           0        2.993668    0.385714    0.000000
      2          1           0        1.496834    0.771429    0.000000
      3          1           0        1.496834    0.000000    0.000000
      4          1           0        0.000000    0.385714    0.000000
      5          1           0       -0.000000   -0.385714    0.000000
      6          1           0       -1.496834    0.000000    0.000000
      7          1           0       -1.496834   -0.771429    0.000000
      8          1           0       -2.993668   -0.385714    0.000000
 ---------------------------------------------------------------------

 SCF Done:  E(RHF) =  -3.87150040534     A.U. after   10 cycles
 E2 =    -0.2696612363D+00 EUMP2 =    -0.41411616416523D+01

 The electronic state is 1-AG.
 Alpha  occ. eigenvalues --   -0.78283  -0.67666  -0.52763  -0.17020
 Alpha virt. eigenvalues --   -0.04396   0.19285   0.36067   0.56224

 Mulliken charges:
               1
     1  H   -0.127070
     2  H    0.044140
     3  H    0.056758
     4  H    0.026172
     5  H    0.026172
     6  H    0.056758
     7  H    0.044140
     8  H   -0.127070
 Sum of Mulliken charges =   0.00000

 Dipole moment (field-independent basis, Debye):
    X=              0.0000    Y=             -0.0000    Z=             -0.0000  Tot=              0.0000
 Quadrupole moment (field-independent basis, Debye-Ang):
   XX=            -23.0319   YY=             -9.1965   ZZ=            -10.4418
   XY=             -1.6231   XZ=             -0.0000   YZ=             -0.0000

 Normal termination of Gaussian 09 at Thu Feb  9 15:53:51 2017.
