 Gaussian 09, Revision E.01,
 Gaussian 09:  ES64L-G09RevE.01 30-Nov-2015

 ----------------------------------------------------------------------
 #rhf/gen scf(symm,tight,novaracc,noincfock,fulldiag) stable(crhf) geom
 =nocrowd test
 ----------------------------------------------------------------------

 ----------------------------------------------------------------------
 hf stability analysis of h10 triangular lattice, y= 1.0030322130183893
 ----------------------------------------------------------------------
 Symbolic Z-matrix:
 Charge =  0 Multiplicity = 1

                         Standard orientation:
 ---------------------------------------------------------------------
 Center     Atomic      Atomic             Coordinates (Angstroms)
 Number     Number       Type             X           Y           Z
 ---------------------------------------------------------------------
      1          1           0        2.006064    0.575605   -0.000000
      2          1           0        1.003032    1.151210   -0.000000
      3          1           0        1.003032    0.000000    0.000000
      4          1           0        0.000000    0.575605   -0.000000
      5          1           0       -0.000000   -0.575605   -0.000000
      6          1           0       -1.003032    0.000000   -0.000000
      7          1           0       -1.003032   -1.151210   -0.000000
      8          1           0       -2.006064   -0.575605   -0.000000
 ---------------------------------------------------------------------

 SCF Done:  E(RHF) =  -3.95089698053     A.U. after    9 cycles
 E2 =    -0.8093064264D-01 EUMP2 =    -0.40318276231687D+01

 The electronic state is 1-AG.
 Alpha  occ. eigenvalues --   -0.82621  -0.66720  -0.40931  -0.33737
 Alpha virt. eigenvalues --    0.08753   0.13851   0.47079   0.53190

 Mulliken charges:
               1
     1  H   -0.028985
     2  H    0.099262
     3  H    0.142630
     4  H   -0.212906
     5  H   -0.212906
     6  H    0.142630
     7  H    0.099262
     8  H   -0.028985
 Sum of Mulliken charges =   0.00000

 Dipole moment (field-independent basis, Debye):
    X=             -0.0000    Y=             -0.0000    Z=              0.0000  Tot=              0.0000
 Quadrupole moment (field-independent basis, Debye-Ang):
   XX=            -10.4995   YY=            -11.5164   ZZ=            -10.5469
   XY=              1.1748   XZ=              0.0000   YZ=             -0.0000

 Normal termination of Gaussian 09 at Thu Feb  9 15:40:48 2017.
