 Gaussian 09, Revision E.01,
 Gaussian 09:  ES64L-G09RevE.01 30-Nov-2015

 ----------------------------------------------------------------------
 #rhf/gen scf(symm,tight,novaracc,noincfock,fulldiag) stable(crhf) geom
 =nocrowd test
 ----------------------------------------------------------------------

 ----------------------------------------------------------------------
 hf stability analysis of h10 triangular lattice, y= 1.1835357532360211
 ----------------------------------------------------------------------
 Symbolic Z-matrix:
 Charge =  0 Multiplicity = 1

                         Standard orientation:
 ---------------------------------------------------------------------
 Center     Atomic      Atomic             Coordinates (Angstroms)
 Number     Number       Type             X           Y           Z
 ---------------------------------------------------------------------
      1          1           0        2.367071    0.487818    0.000000
      2          1           0        1.183536    0.975636    0.000000
      3          1           0        1.183536    0.000000    0.000000
      4          1           0        0.000000    0.487818   -0.000000
      5          1           0       -0.000000   -0.487818   -0.000000
      6          1           0       -1.183536    0.000000    0.000000
      7          1           0       -1.183536   -0.975636    0.000000
      8          1           0       -2.367071   -0.487818    0.000000
 ---------------------------------------------------------------------

 SCF Done:  E(RHF) =  -3.85257344063     A.U. after   10 cycles
 E2 =    -0.9547560185D-01 EUMP2 =    -0.39480490424840D+01

 The electronic state is 1-AG.
 Alpha  occ. eigenvalues --   -0.79888  -0.66651  -0.42521  -0.24056
 Alpha virt. eigenvalues --    0.06905   0.12521   0.30873   0.52421

 Mulliken charges:
               1
     1  H   -0.031808
     2  H    0.042422
     3  H    0.189799
     4  H   -0.200412
     5  H   -0.200412
     6  H    0.189799
     7  H    0.042422
     8  H   -0.031808
 Sum of Mulliken charges =  -0.00000

 Dipole moment (field-independent basis, Debye):
    X=              0.0000    Y=              0.0000    Z=              0.0000  Tot=              0.0000
 Quadrupole moment (field-independent basis, Debye-Ang):
   XX=            -10.3337   YY=            -11.8621   ZZ=            -10.5883
   XY=              0.6916   XZ=              0.0000   YZ=              0.0000

 Normal termination of Gaussian 09 at Thu Feb  9 15:47:06 2017.
