 Gaussian 09, Revision E.01,
 Gaussian 09:  ES64L-G09RevE.01 30-Nov-2015

 ----------------------------------------------------------------------
 #rhf/gen scf(symm,tight,novaracc,noincfock,fulldiag) stable(crhf) geom
 =nocrowd test
 ----------------------------------------------------------------------

 ----------------------------------------------------------------------
 hf stability analysis of h10 triangular lattice, y= 1.5360456330340897
 ----------------------------------------------------------------------
 Symbolic Z-matrix:
 Charge =  0 Multiplicity = 1

                         Standard orientation:
 ---------------------------------------------------------------------
 Center     Atomic      Atomic             Coordinates (Angstroms)
 Number     Number       Type             X           Y           Z
 ---------------------------------------------------------------------
      1          1           0        3.072091    0.375868   -0.000000
      2          1           0        1.536046    0.751736   -0.000000
      3          1           0        1.536046    0.000000    0.000000
      4          1           0        0.000000    0.375868   -0.000000
      5          1           0       -0.000000   -0.375868   -0.000000
      6          1           0       -1.536046    0.000000    0.000000
      7          1           0       -1.536046   -0.751736    0.000000
      8          1           0       -3.072091   -0.375868    0.000000
 ---------------------------------------------------------------------

 SCF Done:  E(RHF) =  -3.87905085218     A.U. after    9 cycles
 E2 =    -0.3014372286D+00 EUMP2 =    -0.41804880807817D+01

 The electronic state is 1-AG.
 Alpha  occ. eigenvalues --   -0.77456  -0.67563  -0.53670  -0.17450
 Alpha virt. eigenvalues --   -0.05812   0.21579   0.37755   0.57411

 Mulliken charges:
               1
     1  H   -0.107130
     2  H    0.037742
     3  H    0.046528
     4  H    0.022860
     5  H    0.022860
     6  H    0.046528
     7  H    0.037742
     8  H   -0.107130
 Sum of Mulliken charges =  -0.00000

 Dipole moment (field-independent basis, Debye):
    X=             -0.0000    Y=             -0.0000    Z=             -0.0000  Tot=              0.0000
 Quadrupole moment (field-independent basis, Debye-Ang):
   XX=            -22.0030   YY=             -9.2298   ZZ=            -10.4543
   XY=             -1.4236   XZ=              0.0000   YZ=              0.0000

 Normal termination of Gaussian 09 at Thu Feb  9 15:54:26 2017.
