 Gaussian 09, Revision E.01,
 Gaussian 09:  ES64L-G09RevE.01 30-Nov-2015

 ----------------------------------------------------------------------
 #rhf/gen scf(symm,tight,novaracc,noincfock,fulldiag) stable(crhf) geom
 =nocrowd test
 ----------------------------------------------------------------------

 ----------------------------------------------------------------------
 hf stability analysis of h10 triangular lattice, y= 1.0820123021402799
 ----------------------------------------------------------------------
 Symbolic Z-matrix:
 Charge =  0 Multiplicity = 1

                         Standard orientation:
 ---------------------------------------------------------------------
 Center     Atomic      Atomic             Coordinates (Angstroms)
 Number     Number       Type             X           Y           Z
 ---------------------------------------------------------------------
      1          1           0        2.164025    0.533589   -0.000000
      2          1           0        1.082012    1.067179   -0.000000
      3          1           0        1.082012    0.000000   -0.000000
      4          1           0        0.000000    0.533589    0.000000
      5          1           0       -0.000000   -0.533589    0.000000
      6          1           0       -1.082012    0.000000   -0.000000
      7          1           0       -1.082012   -1.067179   -0.000000
      8          1           0       -2.164025   -0.533589   -0.000000
 ---------------------------------------------------------------------

 SCF Done:  E(RHF) =  -3.91368334861     A.U. after   10 cycles
 E2 =    -0.8488983631D-01 EUMP2 =    -0.39985731849175D+01

 The electronic state is 1-AG.
 Alpha  occ. eigenvalues --   -0.81113  -0.66577  -0.41441  -0.29499
 Alpha virt. eigenvalues --    0.09846   0.11180   0.41917   0.50184

 Mulliken charges:
               1
     1  H   -0.009372
     2  H    0.075044
     3  H    0.159717
     4  H   -0.225389
     5  H   -0.225389
     6  H    0.159717
     7  H    0.075044
     8  H   -0.009372
 Sum of Mulliken charges =  -0.00000

 Dipole moment (field-independent basis, Debye):
    X=              0.0000    Y=             -0.0000    Z=             -0.0000  Tot=              0.0000
 Quadrupole moment (field-independent basis, Debye-Ang):
   XX=             -9.2809   YY=            -11.8969   ZZ=            -10.5857
   XY=              1.3292   XZ=              0.0000   YZ=             -0.0000

 Normal termination of Gaussian 09 at Thu Feb  9 15:43:51 2017.
