 Gaussian 09, Revision E.01,
 Gaussian 09:  ES64L-G09RevE.01 30-Nov-2015

 ----------------------------------------------------------------------
 #rhf/gen scf(symm,tight,novaracc,noincfock,fulldiag) stable(crhf) geom
 =nocrowd test
 ----------------------------------------------------------------------

 hf stability analysis of h10 triangular lattice, y= 0.8519558688473642
 9
 ----------------------------------------------------------------------
 Symbolic Z-matrix:
 Charge =  0 Multiplicity = 1

                         Standard orientation:
 ---------------------------------------------------------------------
 Center     Atomic      Atomic             Coordinates (Angstroms)
 Number     Number       Type             X           Y           Z
 ---------------------------------------------------------------------
      1          1           0        1.703912    0.677676   -0.000000
      2          1           0        0.851956    1.355353   -0.000000
      3          1           0        0.851956    0.000000    0.000000
      4          1           0        0.000000    0.677676   -0.000000
      5          1           0       -0.000000   -0.677676   -0.000000
      6          1           0       -0.851956    0.000000   -0.000000
      7          1           0       -0.851956   -1.355353   -0.000000
      8          1           0       -1.703912   -0.677676   -0.000000
 ---------------------------------------------------------------------

 SCF Done:  E(RHF) =  -3.97732538783     A.U. after   10 cycles
 E2 =    -0.8109821865D-01 EUMP2 =    -0.40584236064775D+01

 The electronic state is 1-AG.
 Alpha  occ. eigenvalues --   -0.84814  -0.66594  -0.39938  -0.39820
 Alpha virt. eigenvalues --    0.04746   0.22950   0.39896   0.76822

 Mulliken charges:
               1
     1  H   -0.033743
     2  H    0.083490
     3  H    0.077363
     4  H   -0.127110
     5  H   -0.127110
     6  H    0.077363
     7  H    0.083490
     8  H   -0.033743
 Sum of Mulliken charges =  -0.00000

 Dipole moment (field-independent basis, Debye):
    X=             -0.0000    Y=              0.0000    Z=             -0.0000  Tot=              0.0000
 Quadrupole moment (field-independent basis, Debye-Ang):
   XX=            -11.8595   YY=            -11.1487   ZZ=            -10.4624
   XY=              0.4045   XZ=             -0.0000   YZ=              0.0000

 Normal termination of Gaussian 09 at Thu Feb  9 15:33:37 2017.
