 Gaussian 09, Revision E.01,
 Gaussian 09:  ES64L-G09RevE.01 30-Nov-2015

 ----------------------------------------------------------------------
 #rhf/gen scf(symm,tight,novaracc,noincfock,fulldiag) stable(crhf) geom
 =nocrowd test
 ----------------------------------------------------------------------

 hf stability analysis of h10 triangular lattice, y= 0.8258291078557595
 8
 ----------------------------------------------------------------------
 Symbolic Z-matrix:
 Charge =  0 Multiplicity = 1

                         Standard orientation:
 ---------------------------------------------------------------------
 Center     Atomic      Atomic             Coordinates (Angstroms)
 Number     Number       Type             X           Y           Z
 ---------------------------------------------------------------------
      1          1           0        1.651658    0.699116   -0.000000
      2          1           0        0.825829    1.398232   -0.000000
      3          1           0        0.825829    0.000000   -0.000000
      4          1           0        0.000000    0.699116   -0.000000
      5          1           0       -0.000000   -0.699116    0.000000
      6          1           0       -0.825829    0.000000   -0.000000
      7          1           0       -0.825829   -1.398232   -0.000000
      8          1           0       -1.651658   -0.699116   -0.000000
 ---------------------------------------------------------------------

 SCF Done:  E(RHF) =  -3.97770970743     A.U. after   10 cycles
 E2 =    -0.8183184842D-01 EUMP2 =    -0.40595415558479D+01

 The electronic state is 1-AG.
 Alpha  occ. eigenvalues --   -0.85017  -0.66536  -0.40419  -0.39813
 Alpha virt. eigenvalues --    0.04342   0.24400   0.38688   0.79974

 Mulliken charges:
               1
     1  H   -0.022929
     2  H    0.068908
     3  H    0.054504
     4  H   -0.100483
     5  H   -0.100483
     6  H    0.054504
     7  H    0.068908
     8  H   -0.022929
 Sum of Mulliken charges =   0.00000

 Dipole moment (field-independent basis, Debye):
    X=              0.0000    Y=              0.0000    Z=             -0.0000  Tot=              0.0000
 Quadrupole moment (field-independent basis, Debye-Ang):
   XX=            -11.8385   YY=            -11.2133   ZZ=            -10.4517
   XY=              0.2847   XZ=             -0.0000   YZ=              0.0000

 Normal termination of Gaussian 09 at Thu Feb  9 15:32:17 2017.
