 Gaussian 09, Revision E.01,
 Gaussian 09:  ES64L-G09RevE.01 30-Nov-2015

 ----------------------------------------------------------------------
 #rhf/gen scf(symm,tight,novaracc,noincfock,fulldiag) stable(crhf) geom
 =nocrowd test
 ----------------------------------------------------------------------

 hf stability analysis of h10 triangular lattice, y= 0.8930723147927892
 6
 ----------------------------------------------------------------------
 Symbolic Z-matrix:
 Charge =  0 Multiplicity = 1

                         Standard orientation:
 ---------------------------------------------------------------------
 Center     Atomic      Atomic             Coordinates (Angstroms)
 Number     Number       Type             X           Y           Z
 ---------------------------------------------------------------------
      1          1           0        1.786145    0.646477    0.000000
      2          1           0        0.893072    1.292953    0.000000
      3          1           0        0.893072   -0.000000    0.000000
      4          1           0        0.000000    0.646477   -0.000000
      5          1           0       -0.000000   -0.646477   -0.000000
      6          1           0       -0.893072    0.000000    0.000000
      7          1           0       -0.893072   -1.292953   -0.000000
      8          1           0       -1.786145   -0.646477    0.000000
 ---------------------------------------------------------------------

 SCF Done:  E(RHF) =  -3.97504579092     A.U. after   10 cycles
 E2 =    -0.8014727621D-01 EUMP2 =    -0.40551930671217D+01

 The electronic state is 1-AG.
 Alpha  occ. eigenvalues --   -0.84376  -0.66681  -0.40184  -0.38560
 Alpha virt. eigenvalues --    0.05598   0.20456   0.41916   0.70814

 Mulliken charges:
               1
     1  H   -0.042524
     2  H    0.099014
     3  H    0.104922
     4  H   -0.161413
     5  H   -0.161413
     6  H    0.104922
     7  H    0.099014
     8  H   -0.042524
 Sum of Mulliken charges =  -0.00000

 Dipole moment (field-independent basis, Debye):
    X=             -0.0000    Y=             -0.0000    Z=              0.0000  Tot=              0.0000
 Quadrupole moment (field-independent basis, Debye-Ang):
   XX=            -11.7369   YY=            -11.1387   ZZ=            -10.4832
   XY=              0.6256   XZ=              0.0000   YZ=             -0.0000

 Normal termination of Gaussian 09 at Thu Feb  9 15:35:42 2017.
