 Gaussian 09, Revision E.01,
 Gaussian 09:  ES64L-G09RevE.01 30-Nov-2015

 ----------------------------------------------------------------------
 #rhf/gen scf(symm,tight,novaracc,noincfock,fulldiag) stable(crhf) geom
 =nocrowd test
 ----------------------------------------------------------------------

 hf stability analysis of h10 triangular lattice, y= 0.7958570277676497
 7
 ----------------------------------------------------------------------
 Symbolic Z-matrix:
 Charge =  0 Multiplicity = 1

                         Standard orientation:
 ---------------------------------------------------------------------
 Center     Atomic      Atomic             Coordinates (Angstroms)
 Number     Number       Type             X           Y           Z
 ---------------------------------------------------------------------
      1          1           0        1.591714    0.725445   -0.000000
      2          1           0        0.795857    1.450889   -0.000000
      3          1           0        0.795857    0.000000   -0.000000
      4          1           0        0.000000    0.725445   -0.000000
      5          1           0       -0.000000   -0.725445   -0.000000
      6          1           0       -0.795857    0.000000   -0.000000
      7          1           0       -0.795857   -1.450889   -0.000000
      8          1           0       -1.591714   -0.725445   -0.000000
 ---------------------------------------------------------------------

 SCF Done:  E(RHF) =  -3.97767365608     A.U. after    9 cycles
 E2 =    -0.8255918746D-01 EUMP2 =    -0.40602328435475D+01

 The electronic state is 1-AG.
 Alpha  occ. eigenvalues --   -0.85172  -0.66483  -0.40886  -0.39711
 Alpha virt. eigenvalues --    0.04029   0.25742   0.37542   0.82583

 Mulliken charges:
               1
     1  H   -0.005655
     2  H    0.048414
     3  H    0.023149
     4  H   -0.065908
     5  H   -0.065908
     6  H    0.023149
     7  H    0.048414
     8  H   -0.005655
 Sum of Mulliken charges =  -0.00000

 Dipole moment (field-independent basis, Debye):
    X=              0.0000    Y=             -0.0000    Z=             -0.0000  Tot=              0.0000
 Quadrupole moment (field-independent basis, Debye-Ang):
   XX=            -11.7364   YY=            -11.3396   ZZ=            -10.4430
   XY=              0.1839   XZ=              0.0000   YZ=             -0.0000

 Normal termination of Gaussian 09 at Thu Feb  9 15:30:43 2017.
