 Gaussian 09, Revision E.01,
 Gaussian 09:  ES64L-G09RevE.01 30-Nov-2015

 ----------------------------------------------------------------------
 #rhf/gen scf(symm,tight,novaracc,noincfock,fulldiag) stable(crhf) geom
 =nocrowd test
 ----------------------------------------------------------------------

 hf stability analysis of h10 triangular lattice, y= 0.9277982681388944
 3
 ----------------------------------------------------------------------
 Symbolic Z-matrix:
 Charge =  0 Multiplicity = 1

                         Standard orientation:
 ---------------------------------------------------------------------
 Center     Atomic      Atomic             Coordinates (Angstroms)
 Number     Number       Type             X           Y           Z
 ---------------------------------------------------------------------
      1          1           0        1.855597    0.622280    0.000000
      2          1           0        0.927798    1.244560    0.000000
      3          1           0        0.927798    0.000000    0.000000
      4          1           0        0.000000    0.622280    0.000000
      5          1           0       -0.000000   -0.622280   -0.000000
      6          1           0       -0.927798    0.000000    0.000000
      7          1           0       -0.927798   -1.244560   -0.000000
      8          1           0       -1.855597   -0.622280    0.000000
 ---------------------------------------------------------------------

 SCF Done:  E(RHF) =  -3.97068839741     A.U. after   10 cycles
 E2 =    -0.7980229131D-01 EUMP2 =    -0.40504906887131D+01

 The electronic state is 1-AG.
 Alpha  occ. eigenvalues --   -0.83903  -0.66730  -0.40418  -0.37235
 Alpha virt. eigenvalues --    0.06488   0.18305   0.43617   0.65246

 Mulliken charges:
               1
     1  H   -0.042922
     2  H    0.104985
     3  H    0.121245
     4  H   -0.183308
     5  H   -0.183308
     6  H    0.121245
     7  H    0.104985
     8  H   -0.042922
 Sum of Mulliken charges =   0.00000

 Dipole moment (field-independent basis, Debye):
    X=             -0.0000    Y=              0.0000    Z=              0.0000  Tot=              0.0000
 Quadrupole moment (field-independent basis, Debye-Ang):
   XX=            -11.4776   YY=            -11.2079   ZZ=            -10.5029
   XY=              0.8188   XZ=              0.0000   YZ=             -0.0000

 Normal termination of Gaussian 09 at Thu Feb  9 15:37:26 2017.
