 Gaussian 09, Revision E.01,
 Gaussian 09:  ES64L-G09RevE.01 30-Nov-2015

 ----------------------------------------------------------------------
 #rhf/gen scf(symm,tight,novaracc,noincfock,fulldiag) stable(crhf) geom
 =nocrowd test
 ----------------------------------------------------------------------

 ----------------------------------------------------------------------
 hf stability analysis of h10 triangular lattice, y= 1.5389562589227139
 ----------------------------------------------------------------------
 Symbolic Z-matrix:
 Charge =  0 Multiplicity = 1

                         Standard orientation:
 ---------------------------------------------------------------------
 Center     Atomic      Atomic             Coordinates (Angstroms)
 Number     Number       Type             X           Y           Z
 ---------------------------------------------------------------------
      1          1           0        3.077912    0.375157   -0.000000
      2          1           0        1.538956    0.750314   -0.000000
      3          1           0        1.538956    0.000000   -0.000000
      4          1           0        0.000000    0.375157    0.000000
      5          1           0       -0.000000   -0.375157    0.000000
      6          1           0       -1.538956    0.000000   -0.000000
      7          1           0       -1.538956   -0.750314   -0.000000
      8          1           0       -3.077912   -0.375157   -0.000000
 ---------------------------------------------------------------------

 SCF Done:  E(RHF) =  -3.87950765958     A.U. after    9 cycles
 E2 =    -0.3037902362D+00 EUMP2 =    -0.41832978957871D+01

 The electronic state is 1-AG.
 Alpha  occ. eigenvalues --   -0.77397  -0.67557  -0.53736  -0.17483
 Alpha virt. eigenvalues --   -0.05911   0.21747   0.37879   0.57496

 Mulliken charges:
               1
     1  H   -0.105718
     2  H    0.037286
     3  H    0.045845
     4  H    0.022587
     5  H    0.022587
     6  H    0.045845
     7  H    0.037286
     8  H   -0.105718
 Sum of Mulliken charges =  -0.00000

 Dipole moment (field-independent basis, Debye):
    X=             -0.0000    Y=             -0.0000    Z=              0.0000  Tot=              0.0000
 Quadrupole moment (field-independent basis, Debye-Ang):
   XX=            -21.9247   YY=             -9.2327   ZZ=            -10.4553
   XY=             -1.4092   XZ=             -0.0000   YZ=             -0.0000

 Normal termination of Gaussian 09 at Thu Feb  9 15:54:29 2017.
