 Gaussian 09, Revision E.01,
 Gaussian 09:  ES64L-G09RevE.01 30-Nov-2015

 ----------------------------------------------------------------------
 #rhf/gen scf(symm,tight,novaracc,noincfock,fulldiag) stable(crhf) geom
 =nocrowd test
 ----------------------------------------------------------------------

 hf stability analysis of h10 triangular lattice, y= 0.9939902605958700
 3
 ----------------------------------------------------------------------
 Symbolic Z-matrix:
 Charge =  0 Multiplicity = 1

                         Standard orientation:
 ---------------------------------------------------------------------
 Center     Atomic      Atomic             Coordinates (Angstroms)
 Number     Number       Type             X           Y           Z
 ---------------------------------------------------------------------
      1          1           0        1.987980    0.580841    0.000000
      2          1           0        0.993990    1.161682    0.000000
      3          1           0        0.993990    0.000000    0.000000
      4          1           0       -0.000000    0.580841    0.000000
      5          1           0       -0.000000   -0.580841    0.000000
      6          1           0       -0.993990    0.000000    0.000000
      7          1           0       -0.993990   -1.161682    0.000000
      8          1           0       -1.987980   -0.580841    0.000000
 ---------------------------------------------------------------------

 SCF Done:  E(RHF) =  -3.95409706912     A.U. after    9 cycles
 E2 =    -0.8065779772D-01 EUMP2 =    -0.40347548668461D+01

 The electronic state is 1-AG.
 Alpha  occ. eigenvalues --   -0.82789  -0.66730  -0.40872  -0.34194
 Alpha virt. eigenvalues --    0.08467   0.14361   0.46685   0.54591

 Mulliken charges:
               1
     1  H   -0.031322
     2  H    0.101054
     3  H    0.140660
     4  H   -0.210392
     5  H   -0.210392
     6  H    0.140660
     7  H    0.101054
     8  H   -0.031322
 Sum of Mulliken charges =   0.00000

 Dipole moment (field-independent basis, Debye):
    X=              0.0000    Y=             -0.0000    Z=              0.0000  Tot=              0.0000
 Quadrupole moment (field-independent basis, Debye-Ang):
   XX=            -10.6399   YY=            -11.4724   ZZ=            -10.5418
   XY=              1.1397   XZ=              0.0000   YZ=             -0.0000

 Normal termination of Gaussian 09 at Thu Feb  9 15:40:24 2017.
