 Gaussian 09, Revision E.01,
 Gaussian 09:  ES64L-G09RevE.01 30-Nov-2015

 ----------------------------------------------------------------------
 #rhf/gen scf(symm,tight,novaracc,noincfock,fulldiag) stable(crhf) geom
 =nocrowd test
 ----------------------------------------------------------------------

 ----------------------------------------------------------------------
 hf stability analysis of h10 triangular lattice, y= 2.4157467869858533
 ----------------------------------------------------------------------
 Symbolic Z-matrix:
 Charge =  0 Multiplicity = 1

                         Standard orientation:
 ---------------------------------------------------------------------
 Center     Atomic      Atomic             Coordinates (Angstroms)
 Number     Number       Type             X           Y           Z
 ---------------------------------------------------------------------
      1          1           0        4.831494    0.238995   -0.000000
      2          1           0        2.415747    0.477989   -0.000000
      3          1           0        2.415747    0.000000   -0.000000
      4          1           0        0.000000    0.238995    0.000000
      5          1           0       -0.000000   -0.238995    0.000000
      6          1           0       -2.415747    0.000000   -0.000000
      7          1           0       -2.415747   -0.477989   -0.000000
      8          1           0       -4.831494   -0.238995   -0.000000
 ---------------------------------------------------------------------

 SCF Done:  E(RHF) =  -3.49475213336     A.U. after    5 cycles
 E2 =    -0.7712332710D+00 EUMP2 =    -0.42659854043672D+01

 The electronic state is 1-AG.
 Alpha  occ. eigenvalues --   -0.73668  -0.72077  -0.70292  -0.21080
 Alpha virt. eigenvalues --   -0.15595   0.56760   0.63424   0.71033

 Mulliken charges:
               1
     1  H    0.001169
     2  H   -0.000045
     3  H   -0.001146
     4  H    0.000022
     5  H    0.000022
     6  H   -0.001146
     7  H   -0.000045
     8  H    0.001169
 Sum of Mulliken charges =   0.00000

 Dipole moment (field-independent basis, Debye):
    X=             -0.0000    Y=             -0.0000    Z=             -0.0000  Tot=              0.0000
 Quadrupole moment (field-independent basis, Debye-Ang):
   XX=            -11.8728   YY=            -10.1787   ZZ=            -10.7888
   XY=             -0.0611   XZ=              0.0000   YZ=             -0.0000

 Normal termination of Gaussian 09 at Thu Feb  9 16:01:05 2017.
