 Gaussian 09, Revision E.01,
 Gaussian 09:  ES64L-G09RevE.01 30-Nov-2015

 ----------------------------------------------------------------------
 #rhf/gen scf(symm,tight,novaracc,noincfock,fulldiag) stable(crhf) geom
 =nocrowd test
 ----------------------------------------------------------------------

 ----------------------------------------------------------------------
 hf stability analysis of h10 triangular lattice, y= 1.5751239286223491
 ----------------------------------------------------------------------
 Symbolic Z-matrix:
 Charge =  0 Multiplicity = 1

                         Standard orientation:
 ---------------------------------------------------------------------
 Center     Atomic      Atomic             Coordinates (Angstroms)
 Number     Number       Type             X           Y           Z
 ---------------------------------------------------------------------
      1          1           0        3.150248    0.366543   -0.000000
      2          1           0        1.575124    0.733086    0.000000
      3          1           0        1.575124    0.000000   -0.000000
      4          1           0        0.000000    0.366543    0.000000
      5          1           0       -0.000000   -0.366543    0.000000
      6          1           0       -1.575124    0.000000    0.000000
      7          1           0       -1.575124   -0.733086    0.000000
      8          1           0       -3.150248   -0.366543    0.000000
 ---------------------------------------------------------------------

 SCF Done:  E(RHF) =  -3.88396412871     A.U. after    8 cycles
 E2 =    -0.3329302468D+00 EUMP2 =    -0.42168943755131D+01

 The electronic state is 1-AG.
 Alpha  occ. eigenvalues --   -0.76698  -0.67497  -0.54561  -0.17880
 Alpha virt. eigenvalues --   -0.07064   0.23801   0.39388   0.58521

 Mulliken charges:
               1
     1  H   -0.089103
     2  H    0.031887
     3  H    0.038087
     4  H    0.019129
     5  H    0.019129
     6  H    0.038087
     7  H    0.031887
     8  H   -0.089103
 Sum of Mulliken charges =  -0.00000

 Dipole moment (field-independent basis, Debye):
    X=              0.0000    Y=             -0.0000    Z=             -0.0000  Tot=              0.0000
 Quadrupole moment (field-independent basis, Debye-Ang):
   XX=            -20.9501   YY=             -9.2728   ZZ=            -10.4680
   XY=             -1.2372   XZ=              0.0000   YZ=             -0.0000

 Normal termination of Gaussian 09 at Thu Feb  9 15:54:59 2017.
