 Gaussian 09, Revision E.01,
 Gaussian 09:  ES64L-G09RevE.01 30-Nov-2015

 ----------------------------------------------------------------------
 #rhf/gen scf(symm,tight,novaracc,noincfock,fulldiag) stable(crhf) geom
 =nocrowd test
 ----------------------------------------------------------------------

 ----------------------------------------------------------------------
 hf stability analysis of h10 triangular lattice, y= 1.0867964069381189
 ----------------------------------------------------------------------
 Symbolic Z-matrix:
 Charge =  0 Multiplicity = 1

                         Standard orientation:
 ---------------------------------------------------------------------
 Center     Atomic      Atomic             Coordinates (Angstroms)
 Number     Number       Type             X           Y           Z
 ---------------------------------------------------------------------
      1          1           0        2.173593    0.531241   -0.000000
      2          1           0        1.086796    1.062481    0.000000
      3          1           0        1.086796    0.000000   -0.000000
      4          1           0        0.000000    0.531241    0.000000
      5          1           0       -0.000000   -0.531241    0.000000
      6          1           0       -1.086796    0.000000   -0.000000
      7          1           0       -1.086796   -1.062481    0.000000
      8          1           0       -2.173593   -0.531241   -0.000000
 ---------------------------------------------------------------------

 SCF Done:  E(RHF) =  -3.91095961442     A.U. after   10 cycles
 E2 =    -0.8522756463D-01 EUMP2 =    -0.39961871790446D+01

 The electronic state is 1-AG.
 Alpha  occ. eigenvalues --   -0.81026  -0.66569  -0.41473  -0.29235
 Alpha virt. eigenvalues --    0.09636   0.11312   0.41297   0.50347

 Mulliken charges:
               1
     1  H   -0.008614
     2  H    0.073235
     3  H    0.160954
     4  H   -0.225575
     5  H   -0.225575
     6  H    0.160954
     7  H    0.073235
     8  H   -0.008614
 Sum of Mulliken charges =  -0.00000

 Dipole moment (field-independent basis, Debye):
    X=             -0.0000    Y=              0.0000    Z=             -0.0000  Tot=              0.0000
 Quadrupole moment (field-independent basis, Debye-Ang):
   XX=             -9.2251   YY=            -11.9160   ZZ=            -10.5875
   XY=              1.3263   XZ=             -0.0000   YZ=              0.0000

 Normal termination of Gaussian 09 at Thu Feb  9 15:44:01 2017.
