 Gaussian 09, Revision E.01,
 Gaussian 09:  ES64L-G09RevE.01 30-Nov-2015

 ----------------------------------------------------------------------
 #rhf/gen scf(symm,tight,novaracc,noincfock,fulldiag) stable(crhf) geom
 =nocrowd test
 ----------------------------------------------------------------------

 ----------------------------------------------------------------------
 hf stability analysis of h10 triangular lattice, y= 1.2216216453839461
 ----------------------------------------------------------------------
 Symbolic Z-matrix:
 Charge =  0 Multiplicity = 1

                         Standard orientation:
 ---------------------------------------------------------------------
 Center     Atomic      Atomic             Coordinates (Angstroms)
 Number     Number       Type             X           Y           Z
 ---------------------------------------------------------------------
      1          1           0        2.443243    0.472610   -0.000000
      2          1           0        1.221622    0.945220   -0.000000
      3          1           0        1.221622    0.000000   -0.000000
      4          1           0        0.000000    0.472610   -0.000000
      5          1           0       -0.000000   -0.472610   -0.000000
      6          1           0       -1.221622    0.000000   -0.000000
      7          1           0       -1.221622   -0.945220   -0.000000
      8          1           0       -2.443243   -0.472610   -0.000000
 ---------------------------------------------------------------------

 SCF Done:  E(RHF) =  -3.83411625057     A.U. after   10 cycles
 E2 =    -0.1010992742D+00 EUMP2 =    -0.39352155247227D+01

 The electronic state is 1-AG.
 Alpha  occ. eigenvalues --   -0.79939  -0.66916  -0.43384  -0.22145
 Alpha virt. eigenvalues --    0.06949   0.11382   0.28634   0.52451

 Mulliken charges:
               1
     1  H   -0.067517
     2  H    0.042013
     3  H    0.192003
     4  H   -0.166500
     5  H   -0.166500
     6  H    0.192003
     7  H    0.042013
     8  H   -0.067517
 Sum of Mulliken charges =   0.00000

 Dipole moment (field-independent basis, Debye):
    X=              0.0000    Y=              0.0000    Z=             -0.0000  Tot=              0.0000
 Quadrupole moment (field-independent basis, Debye-Ang):
   XX=            -12.6899   YY=            -11.4559   ZZ=            -10.5623
   XY=              0.0950   XZ=             -0.0000   YZ=             -0.0000

 Normal termination of Gaussian 09 at Thu Feb  9 15:48:10 2017.
