 Gaussian 09, Revision E.01,
 Gaussian 09:  ES64L-G09RevE.01 30-Nov-2015

 ----------------------------------------------------------------------
 #rhf/gen scf(symm,tight,novaracc,noincfock,fulldiag) stable(crhf) geom
 =nocrowd test
 ----------------------------------------------------------------------

 hf stability analysis of h10 triangular lattice, y= 0.8071117745454875
 5
 ----------------------------------------------------------------------
 Symbolic Z-matrix:
 Charge =  0 Multiplicity = 1

                         Standard orientation:
 ---------------------------------------------------------------------
 Center     Atomic      Atomic             Coordinates (Angstroms)
 Number     Number       Type             X           Y           Z
 ---------------------------------------------------------------------
      1          1           0        1.614224    0.715329   -0.000000
      2          1           0        0.807112    1.430658   -0.000000
      3          1           0        0.807112    0.000000   -0.000000
      4          1           0        0.000000    0.715329   -0.000000
      5          1           0       -0.000000   -0.715329    0.000000
      6          1           0       -0.807112    0.000000   -0.000000
      7          1           0       -0.807112   -1.430658   -0.000000
      8          1           0       -1.614224   -0.715329   -0.000000
 ---------------------------------------------------------------------

 SCF Done:  E(RHF) =  -3.97771746360     A.U. after    9 cycles
 E2 =    -0.8231571922D-01 EUMP2 =    -0.40600331828249D+01

 The electronic state is 1-AG.
 Alpha  occ. eigenvalues --   -0.85123  -0.66501  -0.40740  -0.39743
 Alpha virt. eigenvalues --    0.04127   0.25295   0.37927   0.81752

 Mulliken charges:
               1
     1  H   -0.012712
     2  H    0.056506
     3  H    0.035536
     4  H   -0.079330
     5  H   -0.079330
     6  H    0.035536
     7  H    0.056506
     8  H   -0.012712
 Sum of Mulliken charges =  -0.00000

 Dipole moment (field-independent basis, Debye):
    X=             -0.0000    Y=              0.0000    Z=             -0.0000  Tot=              0.0000
 Quadrupole moment (field-independent basis, Debye-Ang):
   XX=            -11.7831   YY=            -11.2863   ZZ=            -10.4457
   XY=              0.2161   XZ=              0.0000   YZ=              0.0000

 Normal termination of Gaussian 09 at Thu Feb  9 15:31:19 2017.
