 Gaussian 09, Revision E.01,
 Gaussian 09:  ES64L-G09RevE.01 30-Nov-2015

 ----------------------------------------------------------------------
 #rhf/gen scf(symm,tight,novaracc,noincfock,fulldiag) stable(crhf) geom
 =nocrowd test
 ----------------------------------------------------------------------

 ----------------------------------------------------------------------
 hf stability analysis of h10 triangular lattice, y= 2.3243073241259733
 ----------------------------------------------------------------------
 Symbolic Z-matrix:
 Charge =  0 Multiplicity = 1

                         Standard orientation:
 ---------------------------------------------------------------------
 Center     Atomic      Atomic             Coordinates (Angstroms)
 Number     Number       Type             X           Y           Z
 ---------------------------------------------------------------------
      1          1           0        4.648615    0.248397    0.000000
      2          1           0        2.324307    0.496794    0.000000
      3          1           0        2.324307    0.000000    0.000000
      4          1           0        0.000000    0.248397    0.000000
      5          1           0       -0.000000   -0.248397    0.000000
      6          1           0       -2.324307    0.000000    0.000000
      7          1           0       -2.324307   -0.496794    0.000000
      8          1           0       -4.648615   -0.248397    0.000000
 ---------------------------------------------------------------------

 SCF Done:  E(RHF) =  -3.56823496437     A.U. after    5 cycles
 E2 =    -0.7379778009D+00 EUMP2 =    -0.43062127652370D+01

 The electronic state is 1-AG.
 Alpha  occ. eigenvalues --   -0.73417  -0.71424  -0.69118  -0.21063
 Alpha virt. eigenvalues --   -0.15352   0.54030   0.61421   0.69980

 Mulliken charges:
               1
     1  H    0.000898
     2  H    0.000172
     3  H   -0.001129
     4  H    0.000059
     5  H    0.000059
     6  H   -0.001129
     7  H    0.000172
     8  H    0.000898
 Sum of Mulliken charges =   0.00000

 Dipole moment (field-independent basis, Debye):
    X=             -0.0000    Y=             -0.0000    Z=              0.0000  Tot=              0.0000
 Quadrupole moment (field-independent basis, Debye-Ang):
   XX=            -12.1145   YY=            -10.1115   ZZ=            -10.7653
   XY=             -0.0816   XZ=              0.0000   YZ=             -0.0000

 Normal termination of Gaussian 09 at Thu Feb  9 16:00:45 2017.
