 Gaussian 09, Revision E.01,
 Gaussian 09:  ES64L-G09RevE.01 30-Nov-2015

 ----------------------------------------------------------------------
 #rhf/gen scf(symm,tight,novaracc,noincfock,fulldiag) stable(crhf) geom
 =nocrowd test
 ----------------------------------------------------------------------

 ----------------------------------------------------------------------
 hf stability analysis of h10 triangular lattice, y= 1.0832039369499773
 ----------------------------------------------------------------------
 Symbolic Z-matrix:
 Charge =  0 Multiplicity = 1

                         Standard orientation:
 ---------------------------------------------------------------------
 Center     Atomic      Atomic             Coordinates (Angstroms)
 Number     Number       Type             X           Y           Z
 ---------------------------------------------------------------------
      1          1           0        2.166408    0.533002   -0.000000
      2          1           0        1.083204    1.066005   -0.000000
      3          1           0        1.083204    0.000000   -0.000000
      4          1           0        0.000000    0.533002   -0.000000
      5          1           0       -0.000000   -0.533002   -0.000000
      6          1           0       -1.083204    0.000000   -0.000000
      7          1           0       -1.083204   -1.066005   -0.000000
      8          1           0       -2.166408   -0.533002   -0.000000
 ---------------------------------------------------------------------

 SCF Done:  E(RHF) =  -3.91300897440     A.U. after   10 cycles
 E2 =    -0.8497277232D-01 EUMP2 =    -0.39979817467237D+01

 The electronic state is 1-AG.
 Alpha  occ. eigenvalues --   -0.81092  -0.66575  -0.41449  -0.29434
 Alpha virt. eigenvalues --    0.09793   0.11213   0.41762   0.50225

 Mulliken charges:
               1
     1  H   -0.009174
     2  H    0.074595
     3  H    0.160021
     4  H   -0.225443
     5  H   -0.225443
     6  H    0.160021
     7  H    0.074595
     8  H   -0.009174
 Sum of Mulliken charges =  -0.00000

 Dipole moment (field-independent basis, Debye):
    X=             -0.0000    Y=             -0.0000    Z=             -0.0000  Tot=              0.0000
 Quadrupole moment (field-independent basis, Debye-Ang):
   XX=             -9.2666   YY=            -11.9017   ZZ=            -10.5862
   XY=              1.3287   XZ=             -0.0000   YZ=              0.0000

 Normal termination of Gaussian 09 at Thu Feb  9 15:43:53 2017.
