 Gaussian 09, Revision E.01,
 Gaussian 09:  ES64L-G09RevE.01 30-Nov-2015

 ----------------------------------------------------------------------
 #rhf/gen scf(symm,tight,novaracc,noincfock,fulldiag) stable(crhf) geom
 =nocrowd test
 ----------------------------------------------------------------------

 ----------------------------------------------------------------------
 hf stability analysis of h10 triangular lattice, y= 1.6552111303889363
 ----------------------------------------------------------------------
 Symbolic Z-matrix:
 Charge =  0 Multiplicity = 1

                         Standard orientation:
 ---------------------------------------------------------------------
 Center     Atomic      Atomic             Coordinates (Angstroms)
 Number     Number       Type             X           Y           Z
 ---------------------------------------------------------------------
      1          1           0        3.310422    0.348808    0.000000
      2          1           0        1.655211    0.697615    0.000000
      3          1           0        1.655211    0.000000    0.000000
      4          1           0        0.000000    0.348808   -0.000000
      5          1           0       -0.000000   -0.348808   -0.000000
      6          1           0       -1.655211    0.000000    0.000000
      7          1           0       -1.655211   -0.697615    0.000000
      8          1           0       -3.310422   -0.348808    0.000000
 ---------------------------------------------------------------------

 SCF Done:  E(RHF) =  -3.88580320944     A.U. after    8 cycles
 E2 =    -0.3959115560D+00 EUMP2 =    -0.42817147653902D+01

 The electronic state is 1-AG.
 Alpha  occ. eigenvalues --   -0.75399  -0.67494  -0.56384  -0.18691
 Alpha virt. eigenvalues --   -0.09185   0.28101   0.42546   0.60536

 Mulliken charges:
               1
     1  H   -0.058894
     2  H    0.021893
     3  H    0.024770
     4  H    0.012230
     5  H    0.012230
     6  H    0.024770
     7  H    0.021893
     8  H   -0.058894
 Sum of Mulliken charges =  -0.00000

 Dipole moment (field-independent basis, Debye):
    X=             -0.0000    Y=             -0.0000    Z=             -0.0000  Tot=              0.0000
 Quadrupole moment (field-independent basis, Debye-Ang):
   XX=            -18.9128   YY=             -9.3733   ZZ=            -10.4988
   XY=             -0.9128   XZ=              0.0000   YZ=              0.0000

 Normal termination of Gaussian 09 at Thu Feb  9 15:55:59 2017.
