 Gaussian 09, Revision E.01,
 Gaussian 09:  ES64L-G09RevE.01 30-Nov-2015

 ----------------------------------------------------------------------
 #rhf/gen scf(symm,tight,novaracc,noincfock,fulldiag) stable(crhf) geom
 =nocrowd test
 ----------------------------------------------------------------------

 ----------------------------------------------------------------------
 hf stability analysis of h10 triangular lattice, y= 1.2698334302188394
 ----------------------------------------------------------------------
 Symbolic Z-matrix:
 Charge =  0 Multiplicity = 1

                         Standard orientation:
 ---------------------------------------------------------------------
 Center     Atomic      Atomic             Coordinates (Angstroms)
 Number     Number       Type             X           Y           Z
 ---------------------------------------------------------------------
      1          1           0        2.539667    0.454666   -0.000000
      2          1           0        1.269833    0.909332   -0.000000
      3          1           0        1.269833    0.000000   -0.000000
      4          1           0        0.000000    0.454666   -0.000000
      5          1           0       -0.000000   -0.454666   -0.000000
      6          1           0       -1.269833    0.000000   -0.000000
      7          1           0       -1.269833   -0.909332   -0.000000
      8          1           0       -2.539667   -0.454666   -0.000000
 ---------------------------------------------------------------------

 SCF Done:  E(RHF) =  -3.82111581379     A.U. after   11 cycles
 E2 =    -0.1089381591D+00 EUMP2 =    -0.39300539729294D+01

 The electronic state is 1-AG.
 Alpha  occ. eigenvalues --   -0.80305  -0.67381  -0.45006  -0.19801
 Alpha virt. eigenvalues --    0.07898   0.08371   0.27915   0.52168

 Mulliken charges:
               1
     1  H   -0.121068
     2  H    0.050462
     3  H    0.177974
     4  H   -0.107368
     5  H   -0.107368
     6  H    0.177974
     7  H    0.050462
     8  H   -0.121068
 Sum of Mulliken charges =  -0.00000

 Dipole moment (field-independent basis, Debye):
    X=              0.0000    Y=             -0.0000    Z=              0.0000  Tot=              0.0000
 Quadrupole moment (field-independent basis, Debye-Ang):
   XX=            -16.8548   YY=            -10.7115   ZZ=            -10.5144
   XY=             -0.7772   XZ=              0.0000   YZ=              0.0000

 Normal termination of Gaussian 09 at Thu Feb  9 15:49:23 2017.
