 Gaussian 09, Revision E.01,
 Gaussian 09:  ES64L-G09RevE.01 30-Nov-2015

 ----------------------------------------------------------------------
 #rhf/gen scf(symm,tight,novaracc,noincfock,fulldiag) stable(crhf) geom
 =nocrowd test
 ----------------------------------------------------------------------

 ----------------------------------------------------------------------
 hf stability analysis of h10 triangular lattice, y= 1.0226770173235920
 ----------------------------------------------------------------------
 Symbolic Z-matrix:
 Charge =  0 Multiplicity = 1

                         Standard orientation:
 ---------------------------------------------------------------------
 Center     Atomic      Atomic             Coordinates (Angstroms)
 Number     Number       Type             X           Y           Z
 ---------------------------------------------------------------------
      1          1           0        2.045354    0.564548    0.000000
      2          1           0        1.022677    1.129096    0.000000
      3          1           0        1.022677    0.000000    0.000000
      4          1           0        0.000000    0.564548   -0.000000
      5          1           0       -0.000000   -0.564548   -0.000000
      6          1           0       -1.022677    0.000000    0.000000
      7          1           0       -1.022677   -1.129096    0.000000
      8          1           0       -2.045354   -0.564548    0.000000
 ---------------------------------------------------------------------

 SCF Done:  E(RHF) =  -3.94315821259     A.U. after   10 cycles
 E2 =    -0.8164914442D-01 EUMP2 =    -0.40248073570135D+01

 The electronic state is 1-AG.
 Alpha  occ. eigenvalues --   -0.82248  -0.66692  -0.41059  -0.32719
 Alpha virt. eigenvalues --    0.09377   0.12775   0.47913   0.50216

 Mulliken charges:
               1
     1  H   -0.023675
     2  H    0.094546
     3  H    0.146695
     4  H   -0.217566
     5  H   -0.217566
     6  H    0.146695
     7  H    0.094546
     8  H   -0.023675
 Sum of Mulliken charges =   0.00000

 Dipole moment (field-independent basis, Debye):
    X=              0.0000    Y=             -0.0000    Z=              0.0000  Tot=              0.0000
 Quadrupole moment (field-independent basis, Debye-Ang):
   XX=            -10.1834   YY=            -11.6144   ZZ=            -10.5577
   XY=              1.2412   XZ=             -0.0000   YZ=             -0.0000

 Normal termination of Gaussian 09 at Thu Feb  9 15:41:36 2017.
