 Gaussian 09, Revision E.01,
 Gaussian 09:  ES64L-G09RevE.01 30-Nov-2015

 ----------------------------------------------------------------------
 #rhf/gen scf(symm,tight,novaracc,noincfock,fulldiag) stable(crhf) geom
 =nocrowd test
 ----------------------------------------------------------------------

 ----------------------------------------------------------------------
 hf stability analysis of h10 triangular lattice, y= 1.3938703047871841
 ----------------------------------------------------------------------
 Symbolic Z-matrix:
 Charge =  0 Multiplicity = 1

                         Standard orientation:
 ---------------------------------------------------------------------
 Center     Atomic      Atomic             Coordinates (Angstroms)
 Number     Number       Type             X           Y           Z
 ---------------------------------------------------------------------
      1          1           0        2.787741    0.414207    0.000000
      2          1           0        1.393870    0.828413    0.000000
      3          1           0        1.393870    0.000000    0.000000
      4          1           0        0.000000    0.414207   -0.000000
      5          1           0       -0.000000   -0.414207   -0.000000
      6          1           0       -1.393870    0.000000   -0.000000
      7          1           0       -1.393870   -0.828413   -0.000000
      8          1           0       -2.787741   -0.414207   -0.000000
 ---------------------------------------------------------------------

 SCF Done:  E(RHF) =  -3.84149000754     A.U. after   11 cycles
 E2 =    -0.1832718047D+00 EUMP2 =    -0.40247618122036D+01

 The electronic state is 1-AG.
 Alpha  occ. eigenvalues --   -0.80376  -0.67989  -0.50060  -0.16369
 Alpha virt. eigenvalues --    0.00208   0.13250   0.31560   0.53109

 Mulliken charges:
               1
     1  H   -0.176546
     2  H    0.060095
     3  H    0.098546
     4  H    0.017904
     5  H    0.017904
     6  H    0.098546
     7  H    0.060095
     8  H   -0.176546
 Sum of Mulliken charges =  -0.00000

 Dipole moment (field-independent basis, Debye):
    X=             -0.0000    Y=             -0.0000    Z=              0.0000  Tot=              0.0000
 Quadrupole moment (field-independent basis, Debye-Ang):
   XX=            -24.4520   YY=             -9.2898   ZZ=            -10.4256
   XY=             -2.0213   XZ=             -0.0000   YZ=             -0.0000

 Normal termination of Gaussian 09 at Thu Feb  9 15:52:03 2017.
