 Gaussian 09, Revision E.01,
 Gaussian 09:  ES64L-G09RevE.01 30-Nov-2015

 ----------------------------------------------------------------------
 #rhf/gen scf(symm,tight,novaracc,noincfock,fulldiag) stable(crhf) geom
 =nocrowd test
 ----------------------------------------------------------------------

 ----------------------------------------------------------------------
 hf stability analysis of h10 triangular lattice, y= 1.0122409452983365
 ----------------------------------------------------------------------
 Symbolic Z-matrix:
 Charge =  0 Multiplicity = 1

                         Standard orientation:
 ---------------------------------------------------------------------
 Center     Atomic      Atomic             Coordinates (Angstroms)
 Number     Number       Type             X           Y           Z
 ---------------------------------------------------------------------
      1          1           0        2.024482    0.570368    0.000000
      2          1           0        1.012241    1.140737    0.000000
      3          1           0        1.012241    0.000000    0.000000
      4          1           0        0.000000    0.570368   -0.000000
      5          1           0       -0.000000   -0.570368   -0.000000
      6          1           0       -1.012241    0.000000    0.000000
      7          1           0       -1.012241   -1.140737    0.000000
      8          1           0       -2.024482   -0.570368    0.000000
 ---------------------------------------------------------------------

 SCF Done:  E(RHF) =  -3.94740266676     A.U. after    9 cycles
 E2 =    -0.8124608172D-01 EUMP2 =    -0.40286487484835D+01

 The electronic state is 1-AG.
 Alpha  occ. eigenvalues --   -0.82447  -0.66708  -0.40992  -0.33264
 Alpha virt. eigenvalues --    0.09045   0.13341   0.47475   0.51783

 Mulliken charges:
               1
     1  H   -0.026522
     2  H    0.097185
     3  H    0.144560
     4  H   -0.215223
     5  H   -0.215223
     6  H    0.144560
     7  H    0.097185
     8  H   -0.026522
 Sum of Mulliken charges =  -0.00000

 Dipole moment (field-independent basis, Debye):
    X=             -0.0000    Y=              0.0000    Z=              0.0000  Tot=              0.0000
 Quadrupole moment (field-independent basis, Debye-Ang):
   XX=            -10.3528   YY=            -11.5620   ZZ=            -10.5520
   XY=              1.2077   XZ=             -0.0000   YZ=              0.0000

 Normal termination of Gaussian 09 at Thu Feb  9 15:41:11 2017.
