 Gaussian 09, Revision E.01,
 Gaussian 09:  ES64L-G09RevE.01 30-Nov-2015

 ----------------------------------------------------------------------
 #rhf/gen scf(symm,tight,novaracc,noincfock,fulldiag) stable(crhf) geom
 =nocrowd test
 ----------------------------------------------------------------------

 ----------------------------------------------------------------------
 hf stability analysis of h10 triangular lattice, y= 1.5909090623208391
 ----------------------------------------------------------------------
 Symbolic Z-matrix:
 Charge =  0 Multiplicity = 1

                         Standard orientation:
 ---------------------------------------------------------------------
 Center     Atomic      Atomic             Coordinates (Angstroms)
 Number     Number       Type             X           Y           Z
 ---------------------------------------------------------------------
      1          1           0        3.181818    0.362906    0.000000
      2          1           0        1.590909    0.725812    0.000000
      3          1           0        1.590909    0.000000    0.000000
      4          1           0        0.000000    0.362906    0.000000
      5          1           0       -0.000000   -0.362906    0.000000
      6          1           0       -1.590909    0.000000    0.000000
      7          1           0       -1.590909   -0.725812    0.000000
      8          1           0       -3.181818   -0.362906    0.000000
 ---------------------------------------------------------------------

 SCF Done:  E(RHF) =  -3.88519863725     A.U. after    8 cycles
 E2 =    -0.3455596669D+00 EUMP2 =    -0.42307583041713D+01

 The electronic state is 1-AG.
 Alpha  occ. eigenvalues --   -0.76414  -0.67482  -0.54920  -0.18049
 Alpha virt. eigenvalues --   -0.07527   0.24676   0.40031   0.58947

 Mulliken charges:
               1
     1  H   -0.082423
     2  H    0.029698
     3  H    0.035079
     4  H    0.017646
     5  H    0.017646
     6  H    0.035079
     7  H    0.029698
     8  H   -0.082423
 Sum of Mulliken charges =  -0.00000

 Dipole moment (field-independent basis, Debye):
    X=             -0.0000    Y=              0.0000    Z=             -0.0000  Tot=              0.0000
 Quadrupole moment (field-independent basis, Debye-Ang):
   XX=            -20.5305   YY=             -9.2918   ZZ=            -10.4738
   XY=             -1.1669   XZ=              0.0000   YZ=             -0.0000

 Normal termination of Gaussian 09 at Thu Feb  9 15:55:11 2017.
