 Gaussian 09, Revision E.01,
 Gaussian 09:  ES64L-G09RevE.01 30-Nov-2015

 ----------------------------------------------------------------------
 #rhf/gen scf(symm,tight,novaracc,noincfock,fulldiag) stable(crhf) geom
 =nocrowd test
 ----------------------------------------------------------------------

 hf stability analysis of h10 triangular lattice, y= 0.8635150515934925
 1
 ----------------------------------------------------------------------
 Symbolic Z-matrix:
 Charge =  0 Multiplicity = 1

                         Standard orientation:
 ---------------------------------------------------------------------
 Center     Atomic      Atomic             Coordinates (Angstroms)
 Number     Number       Type             X           Y           Z
 ---------------------------------------------------------------------
      1          1           0        1.727030    0.668605   -0.000000
      2          1           0        0.863515    1.337210   -0.000000
      3          1           0        0.863515    0.000000   -0.000000
      4          1           0        0.000000    0.668605   -0.000000
      5          1           0       -0.000000   -0.668605    0.000000
      6          1           0       -0.863515    0.000000   -0.000000
      7          1           0       -0.863515   -1.337210   -0.000000
      8          1           0       -1.727030   -0.668605   -0.000000
 ---------------------------------------------------------------------

 SCF Done:  E(RHF) =  -3.97693434512     A.U. after   10 cycles
 E2 =    -0.8078960836D-01 EUMP2 =    -0.40577239534869D+01

 The electronic state is 1-AG.
 Alpha  occ. eigenvalues --   -0.84705  -0.66620  -0.40002  -0.39503
 Alpha virt. eigenvalues --    0.04961   0.22265   0.40457   0.75235

 Mulliken charges:
               1
     1  H   -0.037210
     2  H    0.088799
     3  H    0.086119
     4  H   -0.137708
     5  H   -0.137708
     6  H    0.086119
     7  H    0.088799
     8  H   -0.037210
 Sum of Mulliken charges =   0.00000

 Dipole moment (field-independent basis, Debye):
    X=              0.0000    Y=              0.0000    Z=             -0.0000  Tot=              0.0000
 Quadrupole moment (field-independent basis, Debye-Ang):
   XX=            -11.8451   YY=            -11.1347   ZZ=            -10.4678
   XY=              0.4639   XZ=             -0.0000   YZ=              0.0000

 Normal termination of Gaussian 09 at Thu Feb  9 15:34:11 2017.
