 Gaussian 09, Revision E.01,
 Gaussian 09:  ES64L-G09RevE.01 30-Nov-2015

 ----------------------------------------------------------------------
 #rhf/gen scf(symm,tight,novaracc,noincfock,fulldiag) stable(crhf) geom
 =nocrowd test
 ----------------------------------------------------------------------

 ----------------------------------------------------------------------
 hf stability analysis of h10 triangular lattice, y= 1.9201256900634951
 ----------------------------------------------------------------------
 Symbolic Z-matrix:
 Charge =  0 Multiplicity = 1

                         Standard orientation:
 ---------------------------------------------------------------------
 Center     Atomic      Atomic             Coordinates (Angstroms)
 Number     Number       Type             X           Y           Z
 ---------------------------------------------------------------------
      1          1           0        3.840251    0.300684    0.000000
      2          1           0        1.920126    0.601367    0.000000
      3          1           0        1.920126    0.000000    0.000000
      4          1           0        0.000000    0.300684    0.000000
      5          1           0       -0.000000   -0.300684   -0.000000
      6          1           0       -1.920126    0.000000    0.000000
      7          1           0       -1.920126   -0.601367    0.000000
      8          1           0       -3.840251   -0.300684    0.000000
 ---------------------------------------------------------------------

 SCF Done:  E(RHF) =  -3.82023228756     A.U. after    6 cycles
 E2 =    -0.5666792129D+00 EUMP2 =    -0.43869115004310D+01

 The electronic state is 1-AG.
 Alpha  occ. eigenvalues --   -0.73303  -0.68559  -0.62231  -0.20384
 Alpha virt. eigenvalues --   -0.13194   0.40021   0.51264   0.65160

 Mulliken charges:
               1
     1  H   -0.011028
     2  H    0.005193
     3  H    0.003948
     4  H    0.001888
     5  H    0.001888
     6  H    0.003948
     7  H    0.005193
     8  H   -0.011028
 Sum of Mulliken charges =   0.00000

 Dipole moment (field-independent basis, Debye):
    X=              0.0000    Y=              0.0000    Z=             -0.0000  Tot=              0.0000
 Quadrupole moment (field-independent basis, Debye-Ang):
   XX=            -14.4830   YY=             -9.7111   ZZ=            -10.6150
   XY=             -0.3277   XZ=              0.0000   YZ=              0.0000

 Normal termination of Gaussian 09 at Thu Feb  9 15:58:30 2017.
