 Gaussian 09, Revision E.01,
 Gaussian 09:  ES64L-G09RevE.01 30-Nov-2015

 ----------------------------------------------------------------------
 #rhf/gen scf(symm,tight,novaracc,noincfock,fulldiag) stable(crhf) geom
 =nocrowd test
 ----------------------------------------------------------------------

 ----------------------------------------------------------------------
 hf stability analysis of h10 triangular lattice, y= 1.1777075470356930
 ----------------------------------------------------------------------
 Symbolic Z-matrix:
 Charge =  0 Multiplicity = 1

                         Standard orientation:
 ---------------------------------------------------------------------
 Center     Atomic      Atomic             Coordinates (Angstroms)
 Number     Number       Type             X           Y           Z
 ---------------------------------------------------------------------
      1          1           0        2.355415    0.490232    0.000000
      2          1           0        1.177708    0.980465    0.000000
      3          1           0        1.177708    0.000000    0.000000
      4          1           0        0.000000    0.490232   -0.000000
      5          1           0       -0.000000   -0.490232    0.000000
      6          1           0       -1.177708    0.000000    0.000000
      7          1           0       -1.177708   -0.980465    0.000000
      8          1           0       -2.355415   -0.490232    0.000000
 ---------------------------------------------------------------------

 SCF Done:  E(RHF) =  -3.85585481547     A.U. after   10 cycles
 E2 =    -0.9466002249D-01 EUMP2 =    -0.39505148379573D+01

 The electronic state is 1-AG.
 Alpha  occ. eigenvalues --   -0.79906  -0.66623  -0.42419  -0.24353
 Alpha virt. eigenvalues --    0.06961   0.12586   0.31342   0.52380

 Mulliken charges:
               1
     1  H   -0.027571
     2  H    0.043278
     3  H    0.188545
     4  H   -0.204251
     5  H   -0.204251
     6  H    0.188545
     7  H    0.043278
     8  H   -0.027571
 Sum of Mulliken charges =  -0.00000

 Dipole moment (field-independent basis, Debye):
    X=             -0.0000    Y=              0.0000    Z=              0.0000  Tot=              0.0000
 Quadrupole moment (field-independent basis, Debye-Ang):
   XX=            -10.0788   YY=            -11.9029   ZZ=            -10.5909
   XY=              0.7677   XZ=             -0.0000   YZ=              0.0000

 Normal termination of Gaussian 09 at Thu Feb  9 15:46:56 2017.
