 Gaussian 09, Revision E.01,
 Gaussian 09:  ES64L-G09RevE.01 30-Nov-2015

 ----------------------------------------------------------------------
 #rhf/gen scf(symm,tight,novaracc,noincfock,fulldiag) stable(crhf) geom
 =nocrowd test
 ----------------------------------------------------------------------

 hf stability analysis of h10 triangular lattice, y= 0.8988453699635604
 6
 ----------------------------------------------------------------------
 Symbolic Z-matrix:
 Charge =  0 Multiplicity = 1

                         Standard orientation:
 ---------------------------------------------------------------------
 Center     Atomic      Atomic             Coordinates (Angstroms)
 Number     Number       Type             X           Y           Z
 ---------------------------------------------------------------------
      1          1           0        1.797691    0.642324   -0.000000
      2          1           0        0.898845    1.284649    0.000000
      3          1           0        0.898845    0.000000   -0.000000
      4          1           0        0.000000    0.642324    0.000000
      5          1           0       -0.000000   -0.642324    0.000000
      6          1           0       -0.898845    0.000000    0.000000
      7          1           0       -0.898845   -1.284649    0.000000
      8          1           0       -1.797691   -0.642324    0.000000
 ---------------------------------------------------------------------

 SCF Done:  E(RHF) =  -3.97449785625     A.U. after   10 cycles
 E2 =    -0.8005552313D-01 EUMP2 =    -0.40545533793747D+01

 The electronic state is 1-AG.
 Alpha  occ. eigenvalues --   -0.84304  -0.66691  -0.40222  -0.38355
 Alpha virt. eigenvalues --    0.05737   0.20098   0.42201   0.69907

 Mulliken charges:
               1
     1  H   -0.042999
     2  H    0.100447
     3  H    0.108035
     4  H   -0.165483
     5  H   -0.165483
     6  H    0.108035
     7  H    0.100447
     8  H   -0.042999
 Sum of Mulliken charges =  -0.00000

 Dipole moment (field-independent basis, Debye):
    X=             -0.0000    Y=              0.0000    Z=             -0.0000  Tot=              0.0000
 Quadrupole moment (field-independent basis, Debye-Ang):
   XX=            -11.7036   YY=            -11.1457   ZZ=            -10.4864
   XY=              0.6579   XZ=              0.0000   YZ=             -0.0000

 Normal termination of Gaussian 09 at Thu Feb  9 15:36:00 2017.
