 Gaussian 09, Revision E.01,
 Gaussian 09:  ES64L-G09RevE.01 30-Nov-2015

 ----------------------------------------------------------------------
 #rhf/gen scf(symm,tight,novaracc,noincfock,fulldiag) stable(crhf) geom
 =nocrowd test
 ----------------------------------------------------------------------

 hf stability analysis of h10 triangular lattice, y= 0.8627372259402686
 9
 ----------------------------------------------------------------------
 Symbolic Z-matrix:
 Charge =  0 Multiplicity = 1

                         Standard orientation:
 ---------------------------------------------------------------------
 Center     Atomic      Atomic             Coordinates (Angstroms)
 Number     Number       Type             X           Y           Z
 ---------------------------------------------------------------------
      1          1           0        1.725474    0.669208   -0.000000
      2          1           0        0.862737    1.338415   -0.000000
      3          1           0        0.862737    0.000000   -0.000000
      4          1           0        0.000000    0.669208   -0.000000
      5          1           0       -0.000000   -0.669208   -0.000000
      6          1           0       -0.862737    0.000000   -0.000000
      7          1           0       -0.862737   -1.338415   -0.000000
      8          1           0       -1.725474   -0.669208   -0.000000
 ---------------------------------------------------------------------

 SCF Done:  E(RHF) =  -3.97696596129     A.U. after   10 cycles
 E2 =    -0.8080964300D-01 EUMP2 =    -0.40577756042917D+01

 The electronic state is 1-AG.
 Alpha  occ. eigenvalues --   -0.84713  -0.66618  -0.39998  -0.39525
 Alpha virt. eigenvalues --    0.04946   0.22311   0.40419   0.75345

 Mulliken charges:
               1
     1  H   -0.037002
     2  H    0.088465
     3  H    0.085556
     4  H   -0.137019
     5  H   -0.137019
     6  H    0.085556
     7  H    0.088465
     8  H   -0.037002
 Sum of Mulliken charges =  -0.00000

 Dipole moment (field-independent basis, Debye):
    X=              0.0000    Y=             -0.0000    Z=             -0.0000  Tot=              0.0000
 Quadrupole moment (field-independent basis, Debye-Ang):
   XX=            -11.8466   YY=            -11.1354   ZZ=            -10.4674
   XY=              0.4598   XZ=             -0.0000   YZ=             -0.0000

 Normal termination of Gaussian 09 at Thu Feb  9 15:34:08 2017.
