 Gaussian 09, Revision E.01,
 Gaussian 09:  ES64L-G09RevE.01 30-Nov-2015

 ----------------------------------------------------------------------
 #rhf/gen scf(symm,tight,novaracc,noincfock,fulldiag) stable(crhf) geom
 =nocrowd test
 ----------------------------------------------------------------------

 ----------------------------------------------------------------------
 hf stability analysis of h10 triangular lattice, y= 1.7480104705916841
 ----------------------------------------------------------------------
 Symbolic Z-matrix:
 Charge =  0 Multiplicity = 1

                         Standard orientation:
 ---------------------------------------------------------------------
 Center     Atomic      Atomic             Coordinates (Angstroms)
 Number     Number       Type             X           Y           Z
 ---------------------------------------------------------------------
      1          1           0        3.496021    0.330290   -0.000000
      2          1           0        1.748010    0.660580   -0.000000
      3          1           0        1.748010    0.000000   -0.000000
      4          1           0       -0.000000    0.330290    0.000000
      5          1           0       -0.000000   -0.330290    0.000000
      6          1           0       -1.748010    0.000000   -0.000000
      7          1           0       -1.748010   -0.660580   -0.000000
      8          1           0       -3.496021   -0.330290   -0.000000
 ---------------------------------------------------------------------

 SCF Done:  E(RHF) =  -3.87461282430     A.U. after    7 cycles
 E2 =    -0.4633252794D+00 EUMP2 =    -0.43379381036794D+01

 The electronic state is 1-AG.
 Alpha  occ. eigenvalues --   -0.74325  -0.67705  -0.58492  -0.19457
 Alpha virt. eigenvalues --   -0.11021   0.32644   0.45879   0.62454

 Mulliken charges:
               1
     1  H   -0.034562
     2  H    0.013614
     3  H    0.014272
     4  H    0.006677
     5  H    0.006677
     6  H    0.014272
     7  H    0.013614
     8  H   -0.034562
 Sum of Mulliken charges =  -0.00000

 Dipole moment (field-independent basis, Debye):
    X=              0.0000    Y=             -0.0000    Z=              0.0000  Tot=              0.0000
 Quadrupole moment (field-independent basis, Debye-Ang):
   XX=            -16.9459   YY=             -9.4947   ZZ=            -10.5380
   XY=             -0.6348   XZ=             -0.0000   YZ=             -0.0000

 Normal termination of Gaussian 09 at Thu Feb  9 15:57:00 2017.
