 Gaussian 09, Revision E.01,
 Gaussian 09:  ES64L-G09RevE.01 30-Nov-2015

 ----------------------------------------------------------------------
 #rhf/gen scf(symm,tight,novaracc,noincfock,fulldiag) stable(crhf) geom
 =nocrowd test
 ----------------------------------------------------------------------

 ----------------------------------------------------------------------
 hf stability analysis of h10 triangular lattice, y= 2.5066432657105051
 ----------------------------------------------------------------------
 Symbolic Z-matrix:
 Charge =  0 Multiplicity = 1

                         Standard orientation:
 ---------------------------------------------------------------------
 Center     Atomic      Atomic             Coordinates (Angstroms)
 Number     Number       Type             X           Y           Z
 ---------------------------------------------------------------------
      1          1           0        5.013287    0.230328    0.000000
      2          1           0        2.506643    0.460656    0.000000
      3          1           0        2.506643    0.000000    0.000000
      4          1           0        0.000000    0.230328   -0.000000
      5          1           0       -0.000000   -0.230328   -0.000000
      6          1           0       -2.506643    0.000000    0.000000
      7          1           0       -2.506643   -0.460656    0.000000
      8          1           0       -5.013287   -0.230328    0.000000
 ---------------------------------------------------------------------

 SCF Done:  E(RHF) =  -3.41744933091     A.U. after    5 cycles
 E2 =    -0.8036916537D+00 EUMP2 =    -0.42211409845737D+01

 The electronic state is 1-AG.
 Alpha  occ. eigenvalues --   -0.73959  -0.72706  -0.71343  -0.21074
 Alpha virt. eigenvalues --   -0.15794   0.59342   0.65336   0.72091

 Mulliken charges:
               1
     1  H    0.001219
     2  H   -0.000158
     3  H   -0.001068
     4  H    0.000006
     5  H    0.000006
     6  H   -0.001068
     7  H   -0.000158
     8  H    0.001219
 Sum of Mulliken charges =  -0.00000

 Dipole moment (field-independent basis, Debye):
    X=             -0.0000    Y=             -0.0000    Z=              0.0000  Tot=              0.0000
 Quadrupole moment (field-independent basis, Debye-Ang):
   XX=            -11.6835   YY=            -10.2377   ZZ=            -10.8083
   XY=             -0.0461   XZ=             -0.0000   YZ=              0.0000

 Normal termination of Gaussian 09 at Thu Feb  9 16:01:22 2017.
