 Gaussian 09, Revision E.01,
 Gaussian 09:  ES64L-G09RevE.01 30-Nov-2015

 ----------------------------------------------------------------------
 #rhf/gen scf(symm,tight,novaracc,noincfock,fulldiag) stable(crhf) geom
 =nocrowd test
 ----------------------------------------------------------------------

 ----------------------------------------------------------------------
 hf stability analysis of h10 triangular lattice, y= 1.7438440595774944
 ----------------------------------------------------------------------
 Symbolic Z-matrix:
 Charge =  0 Multiplicity = 1

                         Standard orientation:
 ---------------------------------------------------------------------
 Center     Atomic      Atomic             Coordinates (Angstroms)
 Number     Number       Type             X           Y           Z
 ---------------------------------------------------------------------
      1          1           0        3.487688    0.331079    0.000000
      2          1           0        1.743844    0.662158    0.000000
      3          1           0        1.743844    0.000000    0.000000
      4          1           0        0.000000    0.331079    0.000000
      5          1           0       -0.000000   -0.331079    0.000000
      6          1           0       -1.743844    0.000000    0.000000
      7          1           0       -1.743844   -0.662158    0.000000
      8          1           0       -3.487688   -0.331079    0.000000
 ---------------------------------------------------------------------

 SCF Done:  E(RHF) =  -3.87540711889     A.U. after    7 cycles
 E2 =    -0.4604674114D+00 EUMP2 =    -0.43358745303263D+01

 The electronic state is 1-AG.
 Alpha  occ. eigenvalues --   -0.74364  -0.67691  -0.58398  -0.19427
 Alpha virt. eigenvalues --   -0.10951   0.32449   0.45737   0.62376

 Mulliken charges:
               1
     1  H   -0.035440
     2  H    0.013918
     3  H    0.014652
     4  H    0.006870
     5  H    0.006870
     6  H    0.014652
     7  H    0.013918
     8  H   -0.035440
 Sum of Mulliken charges =  -0.00000

 Dipole moment (field-independent basis, Debye):
    X=              0.0000    Y=             -0.0000    Z=             -0.0000  Tot=              0.0000
 Quadrupole moment (field-independent basis, Debye-Ang):
   XX=            -17.0239   YY=             -9.4892   ZZ=            -10.5362
   XY=             -0.6453   XZ=              0.0000   YZ=             -0.0000

 Normal termination of Gaussian 09 at Thu Feb  9 15:56:58 2017.
