 Gaussian 09, Revision E.01,
 Gaussian 09:  ES64L-G09RevE.01 30-Nov-2015

 ----------------------------------------------------------------------
 #rhf/gen scf(symm,tight,novaracc,noincfock,fulldiag) stable(crhf) geom
 =nocrowd test
 ----------------------------------------------------------------------

 ----------------------------------------------------------------------
 hf stability analysis of h10 triangular lattice, y= 1.0542517079039999
 ----------------------------------------------------------------------
 Symbolic Z-matrix:
 Charge =  0 Multiplicity = 1

                         Standard orientation:
 ---------------------------------------------------------------------
 Center     Atomic      Atomic             Coordinates (Angstroms)
 Number     Number       Type             X           Y           Z
 ---------------------------------------------------------------------
      1          1           0        2.108503    0.547640   -0.000000
      2          1           0        1.054252    1.095280   -0.000000
      3          1           0        1.054252    0.000000   -0.000000
      4          1           0        0.000000    0.547640    0.000000
      5          1           0       -0.000000   -0.547640    0.000000
      6          1           0       -1.054252    0.000000   -0.000000
      7          1           0       -1.054252   -1.095280    0.000000
      8          1           0       -2.108503   -0.547640   -0.000000
 ---------------------------------------------------------------------

 SCF Done:  E(RHF) =  -3.92854059563     A.U. after    9 cycles
 E2 =    -0.8316589427D-01 EUMP2 =    -0.40117064899004D+01

 The electronic state is 1-AG.
 Alpha  occ. eigenvalues --   -0.81638  -0.66633  -0.41260  -0.31024
 Alpha virt. eigenvalues --    0.10365   0.11147   0.45664   0.49175

 Mulliken charges:
               1
     1  H   -0.015289
     2  H    0.084975
     3  H    0.153227
     4  H   -0.222912
     5  H   -0.222912
     6  H    0.153227
     7  H    0.084975
     8  H   -0.015289
 Sum of Mulliken charges =  -0.00000

 Dipole moment (field-independent basis, Debye):
    X=             -0.0000    Y=             -0.0000    Z=             -0.0000  Tot=              0.0000
 Quadrupole moment (field-independent basis, Debye-Ang):
   XX=             -9.6732   YY=            -11.7715   ZZ=            -10.5738
   XY=              1.3130   XZ=             -0.0000   YZ=              0.0000

 Normal termination of Gaussian 09 at Thu Feb  9 15:42:50 2017.
