 Gaussian 09, Revision E.01,
 Gaussian 09:  ES64L-G09RevE.01 30-Nov-2015

 ----------------------------------------------------------------------
 #rhf/gen scf(symm,tight,novaracc,noincfock,fulldiag) stable(crhf) gues
 s=read geom=nocrowd test
 ----------------------------------------------------------------------

 ----------------------------------------------------------------------
 hf stability analysis of h10 triangular lattice, y= 1.2825171094998111
 ----------------------------------------------------------------------
 Symbolic Z-matrix:
 Charge =  0 Multiplicity = 1

                         Standard orientation:
 ---------------------------------------------------------------------
 Center     Atomic      Atomic             Coordinates (Angstroms)
 Number     Number       Type             X           Y           Z
 ---------------------------------------------------------------------
      1          1           0        1.699053    2.801696    0.000000
      2          1           0        1.699053    1.442467   -0.000000
      3          1           0        0.849526    1.740655    0.000000
      4          1           0        0.849526    0.381427   -0.000000
      5          1           0        0.000000    0.679614    0.000000
      6          1           0       -0.000000   -0.679614   -0.000000
      7          1           0       -0.849526   -0.381427    0.000000
      8          1           0       -0.849526   -1.740655   -0.000000
      9          1           0       -1.699053   -1.442467    0.000000
     10          1           0       -1.699053   -2.801696   -0.000000
 ---------------------------------------------------------------------

 SCF Done:  E(RHF) =  -4.71757218173     A.U. after    1 cycles
 E2 =    -0.1392976257D+00 EUMP2 =    -0.48568698074740D+01

 The electronic state is 1-AG.
 Alpha  occ. eigenvalues --   -0.76962  -0.71421  -0.55054  -0.35027  -0.14973
 Alpha virt. eigenvalues --   -0.00234   0.14219   0.16923   0.40728   0.64511

 Mulliken charges:
               1
     1  H    0.074304
     2  H   -0.001051
     3  H    0.137418
     4  H   -0.029331
     5  H   -0.181339
     6  H   -0.181339
     7  H   -0.029331
     8  H    0.137418
     9  H   -0.001051
    10  H    0.074304
 Sum of Mulliken charges =  -0.00000

 Dipole moment (field-independent basis, Debye):
    X=              0.0000    Y=              0.0000    Z=              0.0000  Tot=              0.0000
 Quadrupole moment (field-independent basis, Debye-Ang):
   XX=            -11.8423   YY=             -6.0101   ZZ=            -13.1764
   XY=              5.3829   XZ=              0.0000   YZ=              0.0000

 Normal termination of Gaussian 09 at Tue Feb 21 16:58:16 2017.
