 Gaussian 09, Revision E.01,
 Gaussian 09:  ES64L-G09RevE.01 30-Nov-2015

 ----------------------------------------------------------------------
 #rhf/gen scf(symm,tight,novaracc,noincfock,fulldiag) stable(crhf) gues
 s=read geom=nocrowd test
 ----------------------------------------------------------------------

 hf stability analysis of h12 triangular lattice, y= 0.3540551300279828
 3 alpha= 12.250000000000000
 ----------------------------------------------------------------------
 Symbolic Z-matrix:
 Charge =  0 Multiplicity = 1

                         Standard orientation:
 ---------------------------------------------------------------------
 Center     Atomic      Atomic             Coordinates (Angstroms)
 Number     Number       Type             X           Y           Z
 ---------------------------------------------------------------------
      1          1           0        2.075962   -3.720947   -0.000000
      2          1           0        2.075962   -5.389619   -0.000000
      3          1           0        1.383975   -2.202519   -0.000000
      4          1           0        1.383975   -3.871192   -0.000000
      5          1           0        0.691987   -0.684091   -0.000000
      6          1           0        0.691987   -2.352764   -0.000000
      7          1           0        0.000000    0.834336    0.000000
      8          1           0       -0.000000   -0.834336    0.000000
      9          1           0       -0.691987    2.352764   -0.000000
     10          1           0       -0.691987    0.684091   -0.000000
     11          1           0       -1.383975    3.871192   -0.000000
     12          1           0       -1.383975    2.202519   -0.000000
     13          1           0       -2.075962    5.389619   -0.000000
     14          1           0       -2.075962    3.720947   -0.000000
 ---------------------------------------------------------------------

 SCF Done:  E(RHF) =  -7.00668280166     A.U. after    6 cycles
 E2 =    -0.8959214214D+00 EUMP2 =    -0.79026042230180D+01

 The electronic state is 1-AG.
 Alpha  occ. eigenvalues --   -0.75130  -0.73007  -0.68623  -0.62778  -0.55901
 Alpha  occ. eigenvalues --   -0.48692  -0.15769
 Alpha virt. eigenvalues --   -0.11005   0.25819   0.30457   0.38774   0.49291
 Alpha virt. eigenvalues --    0.60164   0.69015

 Mulliken charges:
               1
     1  H    0.014034
     2  H   -0.048615
     3  H    0.001107
     4  H    0.024194
     5  H    0.000367
     6  H    0.007059
     7  H    0.001854
     8  H    0.001854
     9  H    0.007059
    10  H    0.000367
    11  H    0.024194
    12  H    0.001107
    13  H   -0.048615
    14  H    0.014034
 Sum of Mulliken charges =  -0.00000

 Dipole moment (field-independent basis, Debye):
    X=             -0.0000    Y=             -0.0000    Z=              0.0000  Tot=              0.0000
 Quadrupole moment (field-independent basis, Debye-Ang):
   XX=            -17.8442   YY=            -32.6231   ZZ=            -18.0704
   XY=              6.0938   XZ=              0.0000   YZ=             -0.0000

 Normal termination of Gaussian 09 at Wed Feb 15 13:03:31 2017.
