 Gaussian 09, Revision E.01,
 Gaussian 09:  ES64L-G09RevE.01 30-Nov-2015

 ----------------------------------------------------------------------
 #rhf/gen scf(symm,tight,novaracc,noincfock,fulldiag) stable(crhf) gues
 s=read geom=nocrowd test
 ----------------------------------------------------------------------

 hf stability analysis of h12 triangular lattice, y= 0.7369646693133348
 2 alpha= 43.250000000000000
 ----------------------------------------------------------------------
 Symbolic Z-matrix:
 Charge =  0 Multiplicity = 1

                         Standard orientation:
 ---------------------------------------------------------------------
 Center     Atomic      Atomic             Coordinates (Angstroms)
 Number     Number       Type             X           Y           Z
 ---------------------------------------------------------------------
      1          1           0        3.220702    0.340800   -0.000000
      2          1           0        3.220702   -0.734773   -0.000000
      3          1           0        2.147135    0.406462   -0.000000
      4          1           0        2.147135   -0.669111   -0.000000
      5          1           0        1.073567    0.472125   -0.000000
      6          1           0        1.073567   -0.603449   -0.000000
      7          1           0        0.000000    0.537787    0.000000
      8          1           0       -0.000000   -0.537787    0.000000
      9          1           0       -1.073567    0.603449   -0.000000
     10          1           0       -1.073567   -0.472125   -0.000000
     11          1           0       -2.147135    0.669111   -0.000000
     12          1           0       -2.147135   -0.406462   -0.000000
     13          1           0       -3.220702    0.734773   -0.000000
     14          1           0       -3.220702   -0.340800   -0.000000
 ---------------------------------------------------------------------

 SCF Done:  E(RHF) =  -6.89742050121     A.U. after    9 cycles
 E2 =    -0.1577946745D+00 EUMP2 =    -0.70552151756736D+01

 The electronic state is 1-AG.
 Alpha  occ. eigenvalues --   -0.89382  -0.82476  -0.70472  -0.54394  -0.46039
 Alpha  occ. eigenvalues --   -0.36401  -0.34119
 Alpha virt. eigenvalues --   -0.01634   0.14510   0.18360   0.42201   0.45168
 Alpha virt. eigenvalues --    0.72492   0.99337

 Mulliken charges:
               1
     1  H    0.029348
     2  H    0.015651
     3  H   -0.041070
     4  H   -0.009753
     5  H    0.025517
     6  H   -0.015573
     7  H   -0.004119
     8  H   -0.004119
     9  H   -0.015573
    10  H    0.025517
    11  H   -0.009753
    12  H   -0.041070
    13  H    0.015651
    14  H    0.029348
 Sum of Mulliken charges =   0.00000

 Dipole moment (field-independent basis, Debye):
    X=             -0.0000    Y=             -0.0000    Z=             -0.0000  Tot=              0.0000
 Quadrupole moment (field-independent basis, Debye-Ang):
   XX=            -19.4727   YY=            -21.2425   ZZ=            -17.9814
   XY=             -0.0240   XZ=             -0.0000   YZ=              0.0000

 Normal termination of Gaussian 09 at Wed Feb 15 13:09:10 2017.
