 Gaussian 09, Revision E.01,
 Gaussian 09:  ES64L-G09RevE.01 30-Nov-2015

 ----------------------------------------------------------------------
 #rhf/gen scf(symm,tight,novaracc,noincfock,fulldiag) stable(crhf) gues
 s=read geom=nocrowd test
 ----------------------------------------------------------------------

 hf stability analysis of h12 triangular lattice, y= 0.4799368795303601
 3 alpha= 21.750000000000000
 ----------------------------------------------------------------------
 Symbolic Z-matrix:
 Charge =  0 Multiplicity = 1

                         Standard orientation:
 ---------------------------------------------------------------------
 Center     Atomic      Atomic             Coordinates (Angstroms)
 Number     Number       Type             X           Y           Z
 ---------------------------------------------------------------------
      1          1           0        2.674620   -2.170873   -0.000000
      2          1           0        2.674620   -3.466049   -0.000000
      3          1           0        1.783080   -1.231386   -0.000000
      4          1           0        1.783080   -2.526562   -0.000000
      5          1           0        0.891540   -0.291899   -0.000000
      6          1           0        0.891540   -1.587075   -0.000000
      7          1           0        0.000000    0.647588    0.000000
      8          1           0       -0.000000   -0.647588    0.000000
      9          1           0       -0.891540    1.587075   -0.000000
     10          1           0       -0.891540    0.291899   -0.000000
     11          1           0       -1.783080    2.526562   -0.000000
     12          1           0       -1.783080    1.231386   -0.000000
     13          1           0       -2.674620    3.466049   -0.000000
     14          1           0       -2.674620    2.170873   -0.000000
 ---------------------------------------------------------------------

 SCF Done:  E(RHF) =  -6.58223283989     A.U. after   14 cycles
 E2 =    -0.1963645653D+00 EUMP2 =    -0.67785974052404D+01

 The electronic state is 1-AG.
 Alpha  occ. eigenvalues --   -0.84219  -0.77165  -0.69786  -0.57552  -0.40346
 Alpha  occ. eigenvalues --   -0.27154  -0.16699
 Alpha virt. eigenvalues --   -0.04559   0.10152   0.12899   0.24788   0.33906
 Alpha virt. eigenvalues --    0.52822   0.62617

 Mulliken charges:
               1
     1  H   -0.024546
     2  H   -0.008008
     3  H   -0.178966
     4  H    0.149437
     5  H    0.278373
     6  H   -0.147176
     7  H   -0.069114
     8  H   -0.069114
     9  H   -0.147176
    10  H    0.278373
    11  H    0.149437
    12  H   -0.178966
    13  H   -0.008008
    14  H   -0.024546
 Sum of Mulliken charges =  -0.00000

 Dipole moment (field-independent basis, Debye):
    X=             -0.0000    Y=              0.0000    Z=              0.0000  Tot=              0.0000
 Quadrupole moment (field-independent basis, Debye-Ang):
   XX=            -22.7204   YY=            -20.5960   ZZ=            -18.1774
   XY=              0.7632   XZ=              0.0000   YZ=             -0.0000

 Normal termination of Gaussian 09 at Wed Feb 15 13:05:13 2017.
