 Gaussian 09, Revision E.01,
 Gaussian 09:  ES64L-G09RevE.01 30-Nov-2015

 ----------------------------------------------------------------------
 #rhf/gen scf(symm,tight,novaracc,noincfock,fulldiag) stable(crhf) gues
 s=read geom=nocrowd test
 ----------------------------------------------------------------------

 hf stability analysis of h12 triangular lattice, y= 0.4234052775129074
 1 alpha= 17.250000000000000
 ----------------------------------------------------------------------
 Symbolic Z-matrix:
 Charge =  0 Multiplicity = 1

                         Standard orientation:
 ---------------------------------------------------------------------
 Center     Atomic      Atomic             Coordinates (Angstroms)
 Number     Number       Type             X           Y           Z
 ---------------------------------------------------------------------
      1          1           0        2.426163   -2.816183    0.000000
      2          1           0        2.426163   -4.243994    0.000000
      3          1           0        1.617442   -1.639487    0.000000
      4          1           0        1.617442   -3.067298    0.000000
      5          1           0        0.808721   -0.462791    0.000000
      6          1           0        0.808721   -1.890602    0.000000
      7          1           0        0.000000    0.713905    0.000000
      8          1           0       -0.000000   -0.713905   -0.000000
      9          1           0       -0.808721    1.890602    0.000000
     10          1           0       -0.808721    0.462791    0.000000
     11          1           0       -1.617442    3.067298    0.000000
     12          1           0       -1.617442    1.639487    0.000000
     13          1           0       -2.426163    4.243994    0.000000
     14          1           0       -2.426163    2.816183    0.000000
 ---------------------------------------------------------------------

 SCF Done:  E(RHF) =  -6.75251968055     A.U. after   10 cycles
 E2 =    -0.4587992198D+00 EUMP2 =    -0.72113189003082D+01

 The electronic state is 1-AG.
 Alpha  occ. eigenvalues --   -0.80029  -0.76342  -0.69521  -0.60209  -0.48804
 Alpha  occ. eigenvalues --   -0.35518  -0.08787
 Alpha virt. eigenvalues --   -0.01526   0.10958   0.17155   0.27623   0.40717
 Alpha virt. eigenvalues --    0.54223   0.64385

 Mulliken charges:
               1
     1  H    0.018743
     2  H   -0.191495
     3  H    0.023181
     4  H    0.101968
     5  H    0.013889
     6  H    0.009691
     7  H    0.024024
     8  H    0.024024
     9  H    0.009691
    10  H    0.013889
    11  H    0.101968
    12  H    0.023181
    13  H   -0.191495
    14  H    0.018743
 Sum of Mulliken charges =  -0.00000

 Dipole moment (field-independent basis, Debye):
    X=             -0.0000    Y=              0.0000    Z=             -0.0000  Tot=              0.0000
 Quadrupole moment (field-independent basis, Debye-Ang):
   XX=            -24.3490   YY=            -46.1474   ZZ=            -17.6740
   XY=             17.3205   XZ=              0.0000   YZ=             -0.0000

 Normal termination of Gaussian 09 at Wed Feb 15 13:04:24 2017.
