 Gaussian 09, Revision E.01,
 Gaussian 09:  ES64L-G09RevE.01 30-Nov-2015

 ----------------------------------------------------------------------
 #rhf/gen scf(symm,tight,novaracc,noincfock,fulldiag) stable(crhf) gues
 s=read geom=nocrowd test
 ----------------------------------------------------------------------

 hf stability analysis of h12 triangular lattice, y= 0.6417319999662348
 7 alpha= 35.500000000000000
 ----------------------------------------------------------------------
 Symbolic Z-matrix:
 Charge =  0 Multiplicity = 1

                         Standard orientation:
 ---------------------------------------------------------------------
 Center     Atomic      Atomic             Coordinates (Angstroms)
 Number     Number       Type             X           Y           Z
 ---------------------------------------------------------------------
      1          1           0        3.134664   -0.526804    0.000000
      2          1           0        3.134664   -1.631899    0.000000
      3          1           0        2.089776   -0.167020    0.000000
      4          1           0        2.089776   -1.272115    0.000000
      5          1           0        1.044888    0.192764    0.000000
      6          1           0        1.044888   -0.912331    0.000000
      7          1           0        0.000000    0.552548    0.000000
      8          1           0       -0.000000   -0.552548    0.000000
      9          1           0       -1.044888    0.912331   -0.000000
     10          1           0       -1.044888   -0.192764   -0.000000
     11          1           0       -2.089776    1.272115   -0.000000
     12          1           0       -2.089776    0.167020   -0.000000
     13          1           0       -3.134664    1.631899   -0.000000
     14          1           0       -3.134664    0.526804   -0.000000
 ---------------------------------------------------------------------

 SCF Done:  E(RHF) =  -6.88310453145     A.U. after   10 cycles
 E2 =    -0.1585656812D+00 EUMP2 =    -0.70416702126140D+01

 The electronic state is 1-AG.
 Alpha  occ. eigenvalues --   -0.88444  -0.81640  -0.70556  -0.54815  -0.43340
 Alpha  occ. eigenvalues --   -0.35681  -0.33149
 Alpha virt. eigenvalues --   -0.00658   0.11437   0.19070   0.42737   0.42951
 Alpha virt. eigenvalues --    0.67779   0.82150

 Mulliken charges:
               1
     1  H    0.052026
     2  H    0.007517
     3  H   -0.098645
     4  H    0.050071
     5  H    0.093177
     6  H   -0.110537
     7  H    0.006392
     8  H    0.006392
     9  H   -0.110537
    10  H    0.093177
    11  H    0.050071
    12  H   -0.098645
    13  H    0.007517
    14  H    0.052026
 Sum of Mulliken charges =  -0.00000

 Dipole moment (field-independent basis, Debye):
    X=             -0.0000    Y=              0.0000    Z=             -0.0000  Tot=              0.0000
 Quadrupole moment (field-independent basis, Debye-Ang):
   XX=            -17.9838   YY=            -21.2288   ZZ=            -18.0642
   XY=             -1.1351   XZ=              0.0000   YZ=             -0.0000

 Normal termination of Gaussian 09 at Wed Feb 15 13:07:44 2017.
