 Gaussian 09, Revision E.01,
 Gaussian 09:  ES64L-G09RevE.01 30-Nov-2015

 ----------------------------------------------------------------------
 #rhf/gen scf(symm,tight,novaracc,noincfock,fulldiag) stable(crhf) gues
 s=read geom=nocrowd test
 ----------------------------------------------------------------------

 hf stability analysis of h12 triangular lattice, y= 0.6991159421304509
 2 alpha= 40.250000000000000
 ----------------------------------------------------------------------
 Symbolic Z-matrix:
 Charge =  0 Multiplicity = 1

                         Standard orientation:
 ---------------------------------------------------------------------
 Center     Atomic      Atomic             Coordinates (Angstroms)
 Number     Number       Type             X           Y           Z
 ---------------------------------------------------------------------
      1          1           0        3.201528    0.005256    0.000000
      2          1           0        3.201528   -1.076760    0.000000
      3          1           0        2.134352    0.183840    0.000000
      4          1           0        2.134352   -0.898176    0.000000
      5          1           0        1.067176    0.362424    0.000000
      6          1           0        1.067176   -0.719592    0.000000
      7          1           0        0.000000    0.541008    0.000000
      8          1           0       -0.000000   -0.541008   -0.000000
      9          1           0       -1.067176    0.719592    0.000000
     10          1           0       -1.067176   -0.362424    0.000000
     11          1           0       -2.134352    0.898176    0.000000
     12          1           0       -2.134352   -0.183840    0.000000
     13          1           0       -3.201528    1.076760    0.000000
     14          1           0       -3.201528   -0.005256    0.000000
 ---------------------------------------------------------------------

 SCF Done:  E(RHF) =  -6.89548587380     A.U. after    9 cycles
 E2 =    -0.1577935693D+00 EUMP2 =    -0.70532794431388D+01

 The electronic state is 1-AG.
 Alpha  occ. eigenvalues --   -0.89184  -0.82296  -0.70504  -0.54499  -0.45445
 Alpha  occ. eigenvalues --   -0.35973  -0.34190
 Alpha virt. eigenvalues --   -0.01413   0.13772   0.18541   0.42404   0.44721
 Alpha virt. eigenvalues --    0.71185   0.95031

 Mulliken charges:
               1
     1  H    0.040985
     2  H    0.007303
     3  H   -0.066302
     4  H    0.016123
     5  H    0.056192
     6  H   -0.052990
     7  H   -0.001312
     8  H   -0.001312
     9  H   -0.052990
    10  H    0.056192
    11  H    0.016123
    12  H   -0.066302
    13  H    0.007303
    14  H    0.040985
 Sum of Mulliken charges =  -0.00000

 Dipole moment (field-independent basis, Debye):
    X=             -0.0000    Y=              0.0000    Z=              0.0000  Tot=              0.0000
 Quadrupole moment (field-independent basis, Debye-Ang):
   XX=            -19.1115   YY=            -21.3197   ZZ=            -18.0006
   XY=             -0.1820   XZ=              0.0000   YZ=             -0.0000

 Normal termination of Gaussian 09 at Wed Feb 15 13:08:37 2017.
