 Gaussian 09, Revision E.01,
 Gaussian 09:  ES64L-G09RevE.01 30-Nov-2015

 ----------------------------------------------------------------------
 #rhf/gen scf(symm,tight,novaracc,noincfock,fulldiag) stable(crhf) gues
 s=read geom=nocrowd test
 ----------------------------------------------------------------------

 hf stability analysis of h12 triangular lattice, y= 0.5010379721798762
 2 alpha= 23.500000000000000
 ----------------------------------------------------------------------
 Symbolic Z-matrix:
 Charge =  0 Multiplicity = 1

                         Standard orientation:
 ---------------------------------------------------------------------
 Center     Atomic      Atomic             Coordinates (Angstroms)
 Number     Number       Type             X           Y           Z
 ---------------------------------------------------------------------
      1          1           0        2.756891   -1.942581    0.000000
      2          1           0        2.756891   -3.199105   -0.000000
      3          1           0        1.837928   -1.085633    0.000000
      4          1           0        1.837928   -2.342157   -0.000000
      5          1           0        0.918964   -0.228685    0.000000
      6          1           0        0.918964   -1.485210   -0.000000
      7          1           0        0.000000    0.628262    0.000000
      8          1           0       -0.000000   -0.628262   -0.000000
      9          1           0       -0.918964    1.485210    0.000000
     10          1           0       -0.918964    0.228685    0.000000
     11          1           0       -1.837928    2.342157    0.000000
     12          1           0       -1.837928    1.085633    0.000000
     13          1           0       -2.756891    3.199105    0.000000
     14          1           0       -2.756891    1.942581    0.000000
 ---------------------------------------------------------------------

 SCF Done:  E(RHF) =  -6.65288771193     A.U. after   11 cycles
 E2 =    -0.1804710166D+00 EUMP2 =    -0.68333587285049D+01

 The electronic state is 1-AG.
 Alpha  occ. eigenvalues --   -0.83638  -0.77367  -0.69678  -0.55966  -0.38625
 Alpha  occ. eigenvalues --   -0.30217  -0.20771
 Alpha virt. eigenvalues --   -0.03787   0.09645   0.14783   0.30897   0.33651
 Alpha virt. eigenvalues --    0.53879   0.64661

 Mulliken charges:
               1
     1  H   -0.023926
     2  H    0.102817
     3  H   -0.126635
     4  H    0.106475
     5  H    0.168996
     6  H   -0.221938
     7  H   -0.005789
     8  H   -0.005789
     9  H   -0.221938
    10  H    0.168996
    11  H    0.106475
    12  H   -0.126635
    13  H    0.102817
    14  H   -0.023926
 Sum of Mulliken charges =  -0.00000

 Dipole moment (field-independent basis, Debye):
    X=             -0.0000    Y=              0.0000    Z=              0.0000  Tot=              0.0000
 Quadrupole moment (field-independent basis, Debye-Ang):
   XX=            -16.1895   YY=            -12.2325   ZZ=            -18.3284
   XY=             -8.5732   XZ=             -0.0000   YZ=              0.0000

 Normal termination of Gaussian 09 at Wed Feb 15 13:05:32 2017.
