 Gaussian 09, Revision E.01,
 Gaussian 09:  ES64L-G09RevE.01 30-Nov-2015

 ----------------------------------------------------------------------
 #rhf/gen scf(symm,tight,novaracc,noincfock,fulldiag) stable(crhf) gues
 s=read geom=nocrowd test
 ----------------------------------------------------------------------

 hf stability analysis of h12 triangular lattice, y= 0.6035568768658181
 6 alpha= 32.250000000000000
 ----------------------------------------------------------------------
 Symbolic Z-matrix:
 Charge =  0 Multiplicity = 1

                         Standard orientation:
 ---------------------------------------------------------------------
 Center     Atomic      Atomic             Coordinates (Angstroms)
 Number     Number       Type             X           Y           Z
 ---------------------------------------------------------------------
      1          1           0        3.062669   -0.895282    0.000000
      2          1           0        3.062669   -2.026355    0.000000
      3          1           0        2.041779   -0.408342    0.000000
      4          1           0        2.041779   -1.539415    0.000000
      5          1           0        1.020890    0.078597    0.000000
      6          1           0        1.020890   -1.052476    0.000000
      7          1           0       -0.000000    0.565536    0.000000
      8          1           0       -0.000000   -0.565536   -0.000000
      9          1           0       -1.020890    1.052476    0.000000
     10          1           0       -1.020890   -0.078597    0.000000
     11          1           0       -2.041779    1.539415    0.000000
     12          1           0       -2.041779    0.408342    0.000000
     13          1           0       -3.062669    2.026355    0.000000
     14          1           0       -3.062669    0.895282    0.000000
 ---------------------------------------------------------------------

 SCF Done:  E(RHF) =  -6.86005085419     A.U. after   10 cycles
 E2 =    -0.1605532668D+00 EUMP2 =    -0.70206041209588D+01

 The electronic state is 1-AG.
 Alpha  occ. eigenvalues --   -0.87575  -0.80888  -0.70521  -0.55089  -0.41000
 Alpha  occ. eigenvalues --   -0.36241  -0.31016
 Alpha virt. eigenvalues --   -0.00023   0.09424   0.19387   0.40125   0.43147
 Alpha virt. eigenvalues --    0.65730   0.71255

 Mulliken charges:
               1
     1  H    0.050237
     2  H    0.020668
     3  H   -0.113560
     4  H    0.066359
     5  H    0.110145
     6  H   -0.145703
     7  H    0.011853
     8  H    0.011853
     9  H   -0.145703
    10  H    0.110145
    11  H    0.066359
    12  H   -0.113560
    13  H    0.020668
    14  H    0.050237
 Sum of Mulliken charges =  -0.00000

 Dipole moment (field-independent basis, Debye):
    X=             -0.0000    Y=              0.0000    Z=              0.0000  Tot=              0.0000
 Quadrupole moment (field-independent basis, Debye-Ang):
   XX=            -16.9962   YY=            -20.5290   ZZ=            -18.1276
   XY=             -2.5396   XZ=             -0.0000   YZ=              0.0000

 Normal termination of Gaussian 09 at Wed Feb 15 13:07:08 2017.
