 Gaussian 09, Revision E.01,
 Gaussian 09:  ES64L-G09RevE.01 30-Nov-2015

 ----------------------------------------------------------------------
 #rhf/gen scf(symm,tight,novaracc,noincfock,fulldiag) stable(crhf) gues
 s=read geom=nocrowd test
 ----------------------------------------------------------------------

 hf stability analysis of h12 triangular lattice, y= 0.7698484628422243
 0 alpha= 45.750000000000000
 ----------------------------------------------------------------------
 Symbolic Z-matrix:
 Charge =  0 Multiplicity = 1

                         Standard orientation:
 ---------------------------------------------------------------------
 Center     Atomic      Atomic             Coordinates (Angstroms)
 Number     Number       Type             X           Y           Z
 ---------------------------------------------------------------------
      1          1           0        3.223157    0.621778    0.000000
      2          1           0        3.223157   -0.452976    0.000000
      3          1           0        2.148772    0.593645    0.000000
      4          1           0        2.148772   -0.481109    0.000000
      5          1           0        1.074386    0.565511    0.000000
      6          1           0        1.074386   -0.509243    0.000000
      7          1           0        0.000000    0.537377    0.000000
      8          1           0       -0.000000   -0.537377    0.000000
      9          1           0       -1.074386    0.509243    0.000000
     10          1           0       -1.074386   -0.565511    0.000000
     11          1           0       -2.148772    0.481109    0.000000
     12          1           0       -2.148772   -0.593645    0.000000
     13          1           0       -3.223157    0.452976    0.000000
     14          1           0       -3.223157   -0.621778    0.000000
 ---------------------------------------------------------------------

 SCF Done:  E(RHF) =  -6.89761592205     A.U. after    8 cycles
 E2 =    -0.1578027440D+00 EUMP2 =    -0.70554186660863D+01

 The electronic state is 1-AG.
 Alpha  occ. eigenvalues --   -0.89407  -0.82498  -0.70467  -0.54380  -0.46115
 Alpha  occ. eigenvalues --   -0.36462  -0.34103
 Alpha virt. eigenvalues --   -0.01662   0.14607   0.18336   0.42174   0.45221
 Alpha virt. eigenvalues --    0.72671   0.99912

 Mulliken charges:
               1
     1  H    0.019317
     2  H    0.025259
     3  H   -0.018720
     4  H   -0.032195
     5  H   -0.003410
     6  H    0.014249
     7  H   -0.004501
     8  H   -0.004501
     9  H    0.014249
    10  H   -0.003410
    11  H   -0.032195
    12  H   -0.018720
    13  H    0.025259
    14  H    0.019317
 Sum of Mulliken charges =  -0.00000

 Dipole moment (field-independent basis, Debye):
    X=              0.0000    Y=             -0.0000    Z=              0.0000  Tot=              0.0000
 Quadrupole moment (field-independent basis, Debye-Ang):
   XX=            -19.5202   YY=            -21.2293   ZZ=            -17.9789
   XY=              0.0079   XZ=             -0.0000   YZ=              0.0000

 Normal termination of Gaussian 09 at Wed Feb 15 13:09:37 2017.
