 Gaussian 09, Revision E.01,
 Gaussian 09:  ES64L-G09RevE.01 30-Nov-2015

 ----------------------------------------------------------------------
 #rhf/gen scf(symm,tight,novaracc,noincfock,fulldiag) stable(crhf) gues
 s=read geom=nocrowd test
 ----------------------------------------------------------------------

 hf stability analysis of h12 triangular lattice, y= 0.3231128888021356
 2 alpha= 10.250000000000000
 ----------------------------------------------------------------------
 Symbolic Z-matrix:
 Charge =  0 Multiplicity = 1

                         Standard orientation:
 ---------------------------------------------------------------------
 Center     Atomic      Atomic             Coordinates (Angstroms)
 Number     Number       Type             X           Y           Z
 ---------------------------------------------------------------------
      1          1           0        1.907737   -4.194567    0.000000
      2          1           0        1.907737   -6.010384    0.000000
      3          1           0        1.271825   -2.493742    0.000000
      4          1           0        1.271825   -4.309559    0.000000
      5          1           0        0.635912   -0.792917    0.000000
      6          1           0        0.635912   -2.608734    0.000000
      7          1           0        0.000000    0.907908    0.000000
      8          1           0       -0.000000   -0.907908    0.000000
      9          1           0       -0.635912    2.608734   -0.000000
     10          1           0       -0.635912    0.792917   -0.000000
     11          1           0       -1.271825    4.309559   -0.000000
     12          1           0       -1.271825    2.493742   -0.000000
     13          1           0       -1.907737    6.010384   -0.000000
     14          1           0       -1.907737    4.194567   -0.000000
 ---------------------------------------------------------------------

 SCF Done:  E(RHF) =  -6.99299161112     A.U. after    5 cycles
 E2 =    -0.1049358430D+01 EUMP2 =    -0.80423500406510D+01

 The electronic state is 1-AG.
 Alpha  occ. eigenvalues --   -0.74092  -0.72391  -0.69067  -0.64689  -0.59738
 Alpha  occ. eigenvalues --   -0.54948  -0.17765
 Alpha virt. eigenvalues --   -0.13515   0.32730   0.36908   0.44119   0.53186
 Alpha virt. eigenvalues --    0.62475   0.69912

 Mulliken charges:
               1
     1  H    0.006931
     2  H   -0.018841
     3  H   -0.000376
     4  H    0.009106
     5  H   -0.000090
     6  H    0.002805
     7  H    0.000465
     8  H    0.000465
     9  H    0.002805
    10  H   -0.000090
    11  H    0.009106
    12  H   -0.000376
    13  H   -0.018841
    14  H    0.006931
 Sum of Mulliken charges =  -0.00000

 Dipole moment (field-independent basis, Debye):
    X=              0.0000    Y=              0.0000    Z=              0.0000  Tot=              0.0000
 Quadrupole moment (field-independent basis, Debye-Ang):
   XX=            -17.2081   YY=            -27.8223   ZZ=            -18.3023
   XY=              3.3840   XZ=              0.0000   YZ=              0.0000

 Normal termination of Gaussian 09 at Wed Feb 15 13:03:12 2017.
