 Gaussian 09, Revision E.01,
 Gaussian 09:  ES64L-G09RevE.01 30-Nov-2015

 ----------------------------------------------------------------------
 #rhf/gen scf(symm,tight,novaracc,noincfock,fulldiag) stable(crhf) gues
 s=read geom=nocrowd test
 ----------------------------------------------------------------------

 hf stability analysis of h12 triangular lattice, y= 1.0940617386278098
  alpha= 64.250000000000000
 ----------------------------------------------------------------------
 Symbolic Z-matrix:
 Charge =  0 Multiplicity = 1

                         Standard orientation:
 ---------------------------------------------------------------------
 Center     Atomic      Atomic             Coordinates (Angstroms)
 Number     Number       Type             X           Y           Z
 ---------------------------------------------------------------------
      1          1           0        2.851860    2.875812   -0.000000
      2          1           0        2.851860    1.661131   -0.000000
      3          1           0        1.901240    2.119655   -0.000000
      4          1           0        1.901240    0.904973   -0.000000
      5          1           0        0.950620    1.363498   -0.000000
      6          1           0        0.950620    0.148816   -0.000000
      7          1           0       -0.000000    0.607341   -0.000000
      8          1           0       -0.000000   -0.607341    0.000000
      9          1           0       -0.950620   -0.148816   -0.000000
     10          1           0       -0.950620   -1.363498   -0.000000
     11          1           0       -1.901240   -0.904973   -0.000000
     12          1           0       -1.901240   -2.119655   -0.000000
     13          1           0       -2.851860   -1.661131   -0.000000
     14          1           0       -2.851860   -2.875812   -0.000000
 ---------------------------------------------------------------------

 SCF Done:  E(RHF) =  -6.73522377492     A.U. after   11 cycles
 E2 =    -0.1721041074D+00 EUMP2 =    -0.69073278823391D+01

 The electronic state is 1-AG.
 Alpha  occ. eigenvalues --   -0.84771  -0.78472  -0.70013  -0.55655  -0.37907
 Alpha  occ. eigenvalues --   -0.33693  -0.24077
 Alpha virt. eigenvalues --   -0.01678   0.08392   0.17379   0.34222   0.37202
 Alpha virt. eigenvalues --    0.54991   0.64556

 Mulliken charges:
               1
     1  H    0.081807
     2  H    0.010051
     3  H    0.088366
     4  H   -0.124351
     5  H   -0.204926
     6  H    0.136305
     7  H    0.012747
     8  H    0.012747
     9  H    0.136305
    10  H   -0.204926
    11  H   -0.124351
    12  H    0.088366
    13  H    0.010051
    14  H    0.081807
 Sum of Mulliken charges =   0.00000

 Dipole moment (field-independent basis, Debye):
    X=              0.0000    Y=              0.0000    Z=             -0.0000  Tot=              0.0000
 Quadrupole moment (field-independent basis, Debye-Ang):
   XX=            -15.5378   YY=            -15.2403   ZZ=            -18.2836
   XY=              7.3296   XZ=             -0.0000   YZ=              0.0000

 Normal termination of Gaussian 09 at Wed Feb 15 13:13:05 2017.
