 Gaussian 09, Revision E.01,
 Gaussian 09:  ES64L-G09RevE.01 30-Nov-2015

 ----------------------------------------------------------------------
 #rhf/gen scf(symm,tight,novaracc,noincfock,fulldiag) stable(crhf) gues
 s=read geom=nocrowd test
 ----------------------------------------------------------------------

 hf stability analysis of h12 triangular lattice, y= 1.5658605742718710
  alpha= 76.750000000000000
 ----------------------------------------------------------------------
 Symbolic Z-matrix:
 Charge =  0 Multiplicity = 1

                         Standard orientation:
 ---------------------------------------------------------------------
 Center     Atomic      Atomic             Coordinates (Angstroms)
 Number     Number       Type             X           Y           Z
 ---------------------------------------------------------------------
      1          1           0        2.153375    5.123345   -0.000000
      2          1           0        2.153375    3.514660   -0.000000
      3          1           0        1.435583    3.683677   -0.000000
      4          1           0        1.435583    2.074992   -0.000000
      5          1           0        0.717792    2.244010   -0.000000
      6          1           0        0.717792    0.635325   -0.000000
      7          1           0        0.000000    0.804342   -0.000000
      8          1           0       -0.000000   -0.804342   -0.000000
      9          1           0       -0.717792   -0.635325   -0.000000
     10          1           0       -0.717792   -2.244010   -0.000000
     11          1           0       -1.435583   -2.074992   -0.000000
     12          1           0       -1.435583   -3.683677   -0.000000
     13          1           0       -2.153375   -3.514660   -0.000000
     14          1           0       -2.153375   -5.123345   -0.000000
 ---------------------------------------------------------------------

 SCF Done:  E(RHF) =  -6.98016945999     A.U. after    7 cycles
 E2 =    -0.8150469138D+00 EUMP2 =    -0.77952163737544D+01

 The electronic state is 1-AG.
 Alpha  occ. eigenvalues --   -0.75846  -0.73496  -0.68592  -0.62039  -0.54221
 Alpha  occ. eigenvalues --   -0.45744  -0.14523
 Alpha virt. eigenvalues --   -0.09449   0.22648   0.27521   0.36339   0.47480
 Alpha virt. eigenvalues --    0.59012   0.68409

 Mulliken charges:
               1
     1  H   -0.070374
     2  H    0.018022
     3  H    0.034577
     4  H    0.003004
     5  H    0.010178
     6  H    0.001154
     7  H    0.003439
     8  H    0.003439
     9  H    0.001154
    10  H    0.010178
    11  H    0.003004
    12  H    0.034577
    13  H    0.018022
    14  H   -0.070374
 Sum of Mulliken charges =  -0.00000

 Dipole moment (field-independent basis, Debye):
    X=              0.0000    Y=             -0.0000    Z=              0.0000  Tot=              0.0000
 Quadrupole moment (field-independent basis, Debye-Ang):
   XX=            -18.5171   YY=            -35.4607   ZZ=            -17.9680
   XY=             -7.9120   XZ=              0.0000   YZ=              0.0000

 Normal termination of Gaussian 09 at Wed Feb 15 13:15:21 2017.
