 Gaussian 09, Revision E.01,
 Gaussian 09:  ES64L-G09RevE.01 30-Nov-2015

 ----------------------------------------------------------------------
 #rhf/gen scf(symm,tight,novaracc,noincfock,fulldiag) stable(crhf) gues
 s=read geom=nocrowd test
 ----------------------------------------------------------------------

 hf stability analysis of h12 triangular lattice, y= 1.0153487862282633
  alpha= 60.750000000000000
 ----------------------------------------------------------------------
 Symbolic Z-matrix:
 Charge =  0 Multiplicity = 1

                         Standard orientation:
 ---------------------------------------------------------------------
 Center     Atomic      Atomic             Coordinates (Angstroms)
 Number     Number       Type             X           Y           Z
 ---------------------------------------------------------------------
      1          1           0        2.976726    2.406004   -0.000000
      2          1           0        2.976726    1.242276   -0.000000
      3          1           0        1.984484    1.797958   -0.000000
      4          1           0        1.984484    0.634229   -0.000000
      5          1           0        0.992242    1.189911   -0.000000
      6          1           0        0.992242    0.026182   -0.000000
      7          1           0       -0.000000    0.581864   -0.000000
      8          1           0       -0.000000   -0.581864   -0.000000
      9          1           0       -0.992242   -0.026182    0.000000
     10          1           0       -0.992242   -1.189911    0.000000
     11          1           0       -1.984484   -0.634229    0.000000
     12          1           0       -1.984484   -1.797958    0.000000
     13          1           0       -2.976726   -1.242276    0.000000
     14          1           0       -2.976726   -2.406004    0.000000
 ---------------------------------------------------------------------

 SCF Done:  E(RHF) =  -6.81940827776     A.U. after   10 cycles
 E2 =    -0.1642668876D+00 EUMP2 =    -0.69836751653636D+01

 The electronic state is 1-AG.
 Alpha  occ. eigenvalues --   -0.86462  -0.79935  -0.70377  -0.55351  -0.38102
 Alpha  occ. eigenvalues --   -0.36952  -0.28263
 Alpha virt. eigenvalues --    0.00066   0.08039   0.19221   0.37070   0.42335
 Alpha virt. eigenvalues --    0.61723   0.64702

 Mulliken charges:
               1
     1  H    0.043507
     2  H    0.039123
     3  H    0.076822
     4  H   -0.121602
     5  H   -0.174440
     6  H    0.121349
     7  H    0.015241
     8  H    0.015241
     9  H    0.121349
    10  H   -0.174440
    11  H   -0.121602
    12  H    0.076822
    13  H    0.039123
    14  H    0.043507
 Sum of Mulliken charges =   0.00000

 Dipole moment (field-independent basis, Debye):
    X=              0.0000    Y=             -0.0000    Z=              0.0000  Tot=              0.0000
 Quadrupole moment (field-independent basis, Debye-Ang):
   XX=            -16.1228   YY=            -18.9167   ZZ=            -18.1968
   XY=              4.4706   XZ=             -0.0000   YZ=             -0.0000

 Normal termination of Gaussian 09 at Wed Feb 15 13:12:26 2017.
