 Gaussian 09, Revision E.01,
 Gaussian 09:  ES64L-G09RevE.01 30-Nov-2015

 ----------------------------------------------------------------------
 #rhf/gen scf(symm,tight,novaracc,noincfock,fulldiag) stable(crhf) gues
 s=read geom=nocrowd test
 ----------------------------------------------------------------------

 hf stability analysis of h12 triangular lattice, y= 1.1733815430447392
  alpha= 67.250000000000000
 ----------------------------------------------------------------------
 Symbolic Z-matrix:
 Charge =  0 Multiplicity = 1

                         Standard orientation:
 ---------------------------------------------------------------------
 Center     Atomic      Atomic             Coordinates (Angstroms)
 Number     Number       Type             X           Y           Z
 ---------------------------------------------------------------------
      1          1           0        2.722557    3.311635   -0.000000
      2          1           0        2.722557    2.039264   -0.000000
      3          1           0        1.815038    2.419818   -0.000000
      4          1           0        1.815038    1.147448   -0.000000
      5          1           0        0.907519    1.528002   -0.000000
      6          1           0        0.907519    0.255631   -0.000000
      7          1           0        0.000000    0.636185   -0.000000
      8          1           0       -0.000000   -0.636185   -0.000000
      9          1           0       -0.907519   -0.255631    0.000000
     10          1           0       -0.907519   -1.528002   -0.000000
     11          1           0       -1.815038   -1.147448    0.000000
     12          1           0       -1.815038   -2.419818   -0.000000
     13          1           0       -2.722557   -2.039264    0.000000
     14          1           0       -2.722557   -3.311635   -0.000000
 ---------------------------------------------------------------------

 SCF Done:  E(RHF) =  -6.62082470861     A.U. after   12 cycles
 E2 =    -0.1845204533D+00 EUMP2 =    -0.68053451618639D+01

 The electronic state is 1-AG.
 Alpha  occ. eigenvalues --   -0.83460  -0.77040  -0.69590  -0.56240  -0.38968
 Alpha  occ. eigenvalues --   -0.28949  -0.19503
 Alpha virt. eigenvalues --   -0.04515   0.10067   0.13765   0.28451   0.33682
 Alpha virt. eigenvalues --    0.53715   0.64436

 Mulliken charges:
               1
     1  H    0.096554
     2  H   -0.038138
     3  H    0.120223
     4  H   -0.133955
     5  H   -0.220379
     6  H    0.201209
     7  H   -0.025514
     8  H   -0.025514
     9  H    0.201209
    10  H   -0.220379
    11  H   -0.133955
    12  H    0.120223
    13  H   -0.038138
    14  H    0.096554
 Sum of Mulliken charges =  -0.00000

 Dipole moment (field-independent basis, Debye):
    X=              0.0000    Y=              0.0000    Z=             -0.0000  Tot=              0.0000
 Quadrupole moment (field-independent basis, Debye-Ang):
   XX=            -17.2646   YY=            -12.1897   ZZ=            -18.3251
   XY=              7.8164   XZ=              0.0000   YZ=             -0.0000

 Normal termination of Gaussian 09 at Wed Feb 15 13:13:37 2017.
