 Gaussian 09, Revision E.01,
 Gaussian 09:  ES64L-G09RevE.01 30-Nov-2015

 ----------------------------------------------------------------------
 #rhf/gen scf(symm,tight,novaracc,noincfock,fulldiag) stable(crhf) gues
 s=read geom=nocrowd test
 ----------------------------------------------------------------------

 hf stability analysis of h12 triangular lattice, y= 0.3465386445008242
 8 alpha= 11.750000000000000
 ----------------------------------------------------------------------
 Symbolic Z-matrix:
 Charge =  0 Multiplicity = 1

                         Standard orientation:
 ---------------------------------------------------------------------
 Center     Atomic      Atomic             Coordinates (Angstroms)
 Number     Number       Type             X           Y           Z
 ---------------------------------------------------------------------
      1          1           0        2.035662   -3.830850    0.000000
      2          1           0        2.035662   -5.532557    0.000000
      3          1           0        1.357108   -2.270282    0.000000
      4          1           0        1.357108   -3.971989    0.000000
      5          1           0        0.678554   -0.709714    0.000000
      6          1           0        0.678554   -2.411421    0.000000
      7          1           0        0.000000    0.850854    0.000000
      8          1           0       -0.000000   -0.850854   -0.000000
      9          1           0       -0.678554    2.411421    0.000000
     10          1           0       -0.678554    0.709714    0.000000
     11          1           0       -1.357108    3.971989    0.000000
     12          1           0       -1.357108    2.270282    0.000000
     13          1           0       -2.035662    5.532557    0.000000
     14          1           0       -2.035662    3.830850    0.000000
 ---------------------------------------------------------------------

 SCF Done:  E(RHF) =  -7.01262911041     A.U. after    6 cycles
 E2 =    -0.9350689797D+00 EUMP2 =    -0.79476980900780D+01

 The electronic state is 1-AG.
 Alpha  occ. eigenvalues --   -0.74823  -0.72807  -0.68686  -0.63201  -0.56801
 Alpha  occ. eigenvalues --   -0.50218  -0.16332
 Alpha virt. eigenvalues --   -0.11706   0.27462   0.31989   0.40043   0.50224
 Alpha virt. eigenvalues --    0.60735   0.69269

 Mulliken charges:
               1
     1  H    0.012092
     2  H   -0.039531
     3  H    0.000501
     4  H    0.019714
     5  H    0.000153
     6  H    0.005737
     7  H    0.001334
     8  H    0.001334
     9  H    0.005737
    10  H    0.000153
    11  H    0.019714
    12  H    0.000501
    13  H   -0.039531
    14  H    0.012092
 Sum of Mulliken charges =  -0.00000

 Dipole moment (field-independent basis, Debye):
    X=             -0.0000    Y=              0.0000    Z=             -0.0000  Tot=              0.0000
 Quadrupole moment (field-independent basis, Debye-Ang):
   XX=            -17.6060   YY=            -31.3103   ZZ=            -18.1251
   XY=              5.3065   XZ=              0.0000   YZ=              0.0000

 Normal termination of Gaussian 09 at Wed Feb 15 13:03:27 2017.
