 Gaussian 09, Revision E.01,
 Gaussian 09:  ES64L-G09RevE.01 30-Nov-2015

 ----------------------------------------------------------------------
 #rhf/gen scf(symm,tight,novaracc,noincfock,fulldiag) stable(crhf) gues
 s=read geom=nocrowd test
 ----------------------------------------------------------------------

 hf stability analysis of h12 triangular lattice, y= 0.2303281107335596
 6 alpha= 5.2500000000000000
 ----------------------------------------------------------------------
 Symbolic Z-matrix:
 Charge =  0 Multiplicity = 1

                         Standard orientation:
 ---------------------------------------------------------------------
 Center     Atomic      Atomic             Coordinates (Angstroms)
 Number     Number       Type             X           Y           Z
 ---------------------------------------------------------------------
      1          1           0        1.376171   -6.166554   -0.000000
      2          1           0        1.376171   -8.683756   -0.000000
      3          1           0        0.917447   -3.691502   -0.000000
      4          1           0        0.917447   -6.208705   -0.000000
      5          1           0        0.458724   -1.216450   -0.000000
      6          1           0        0.458724   -3.733653   -0.000000
      7          1           0       -0.000000    1.258601    0.000000
      8          1           0       -0.000000   -1.258601    0.000000
      9          1           0       -0.458724    3.733653   -0.000000
     10          1           0       -0.458724    1.216450   -0.000000
     11          1           0       -0.917447    6.208705   -0.000000
     12          1           0       -0.917447    3.691502   -0.000000
     13          1           0       -1.376171    8.683756   -0.000000
     14          1           0       -1.376171    6.166554   -0.000000
 ---------------------------------------------------------------------

 SCF Done:  E(RHF) =  -6.11486063231     A.U. after    5 cycles
 E2 =    -0.1525766978D+01 EUMP2 =    -0.76406276100658D+01

 The electronic state is 1-AG.
 Alpha  occ. eigenvalues --   -0.74207  -0.73764  -0.73057  -0.72236  -0.71462
 Alpha  occ. eigenvalues --   -0.70874  -0.19931
 Alpha virt. eigenvalues --   -0.16922   0.57905   0.60103   0.63487   0.67494
 Alpha virt. eigenvalues --    0.71348   0.74189

 Mulliken charges:
               1
     1  H   -0.000208
     2  H    0.001297
     3  H   -0.000075
     4  H   -0.001090
     5  H   -0.000009
     6  H    0.000076
     7  H    0.000009
     8  H    0.000009
     9  H    0.000076
    10  H   -0.000009
    11  H   -0.001090
    12  H   -0.000075
    13  H    0.001297
    14  H   -0.000208
 Sum of Mulliken charges =   0.00000

 Dipole moment (field-independent basis, Debye):
    X=              0.0000    Y=              0.0000    Z=             -0.0000  Tot=              0.0000
 Quadrupole moment (field-independent basis, Debye-Ang):
   XX=            -17.8274   YY=            -20.5828   ZZ=            -18.9216
   XY=              0.3736   XZ=             -0.0000   YZ=              0.0000

 Normal termination of Gaussian 09 at Wed Feb 15 13:02:23 2017.
