 Gaussian 09, Revision E.01,
 Gaussian 09:  ES64L-G09RevE.01 30-Nov-2015

 ----------------------------------------------------------------------
 #rhf/gen scf(symm,tight,novaracc,noincfock,fulldiag) stable(crhf) gues
 s=read geom=nocrowd test
 ----------------------------------------------------------------------

 hf stability analysis of h12 triangular lattice, y= 0.6006400760937612
 4 alpha= 32.000000000000000
 ----------------------------------------------------------------------
 Symbolic Z-matrix:
 Charge =  0 Multiplicity = 1

                         Standard orientation:
 ---------------------------------------------------------------------
 Center     Atomic      Atomic             Coordinates (Angstroms)
 Number     Number       Type             X           Y           Z
 ---------------------------------------------------------------------
      1          1           0        3.056230   -0.923895    0.000000
      2          1           0        3.056230   -2.057351    0.000000
      3          1           0        2.037487   -0.427021    0.000000
      4          1           0        2.037487   -1.560477    0.000000
      5          1           0        1.018743    0.069854    0.000000
      6          1           0        1.018743   -1.063602    0.000000
      7          1           0        0.000000    0.566728    0.000000
      8          1           0       -0.000000   -0.566728    0.000000
      9          1           0       -1.018743    1.063602    0.000000
     10          1           0       -1.018743   -0.069854    0.000000
     11          1           0       -2.037487    1.560477    0.000000
     12          1           0       -2.037487    0.427021    0.000000
     13          1           0       -3.056230    2.057351    0.000000
     14          1           0       -3.056230    0.923895    0.000000
 ---------------------------------------------------------------------

 SCF Done:  E(RHF) =  -6.85749993612     A.U. after   10 cycles
 E2 =    -0.1607829960D+00 EUMP2 =    -0.70182829321187D+01

 The electronic state is 1-AG.
 Alpha  occ. eigenvalues --   -0.87494  -0.80818  -0.70514  -0.55111  -0.40787
 Alpha  occ. eigenvalues --   -0.36295  -0.30815
 Alpha virt. eigenvalues --    0.00015   0.09276   0.19398   0.39884   0.43136
 Alpha virt. eigenvalues --    0.65609   0.70411

 Mulliken charges:
               1
     1  H    0.049693
     2  H    0.022174
     3  H   -0.114442
     4  H    0.067377
     5  H    0.111207
     6  H   -0.148230
     7  H    0.012221
     8  H    0.012221
     9  H   -0.148230
    10  H    0.111207
    11  H    0.067377
    12  H   -0.114442
    13  H    0.022174
    14  H    0.049693
 Sum of Mulliken charges =   0.00000

 Dipole moment (field-independent basis, Debye):
    X=             -0.0000    Y=             -0.0000    Z=              0.0000  Tot=              0.0000
 Quadrupole moment (field-independent basis, Debye-Ang):
   XX=            -16.9191   YY=            -20.4370   ZZ=            -18.1330
   XY=             -2.6770   XZ=             -0.0000   YZ=              0.0000

 Normal termination of Gaussian 09 at Wed Feb 15 13:07:05 2017.
