 Gaussian 09, Revision E.01,
 Gaussian 09:  ES64L-G09RevE.01 30-Nov-2015

 ----------------------------------------------------------------------
 #rhf/gen scf(symm,tight,novaracc,noincfock,fulldiag) stable(crhf) gues
 s=read geom=nocrowd test
 ----------------------------------------------------------------------

 hf stability analysis of h12 triangular lattice, y= 1.4808545702551064
  alpha= 75.250000000000000
 ----------------------------------------------------------------------
 Symbolic Z-matrix:
 Charge =  0 Multiplicity = 1

                         Standard orientation:
 ---------------------------------------------------------------------
 Center     Atomic      Atomic             Coordinates (Angstroms)
 Number     Number       Type             X           Y           Z
 ---------------------------------------------------------------------
      1          1           0        2.262171    4.764032    0.000000
      2          1           0        2.262171    3.232714    0.000000
      3          1           0        1.508114    3.431241    0.000000
      4          1           0        1.508114    1.899923    0.000000
      5          1           0        0.754057    2.098450    0.000000
      6          1           0        0.754057    0.567132    0.000000
      7          1           0        0.000000    0.765659    0.000000
      8          1           0       -0.000000   -0.765659   -0.000000
      9          1           0       -0.754057   -0.567132   -0.000000
     10          1           0       -0.754057   -2.098450   -0.000000
     11          1           0       -1.508114   -1.899923   -0.000000
     12          1           0       -1.508114   -3.431241   -0.000000
     13          1           0       -2.262171   -3.232714   -0.000000
     14          1           0       -2.262171   -4.764032   -0.000000
 ---------------------------------------------------------------------

 SCF Done:  E(RHF) =  -6.91197098545     A.U. after    8 cycles
 E2 =    -0.6873102923D+00 EUMP2 =    -0.75992812777875D+01

 The electronic state is 1-AG.
 Alpha  occ. eigenvalues --   -0.77194  -0.74436  -0.68769  -0.61178  -0.51997
 Alpha  occ. eigenvalues --   -0.41630  -0.12400
 Alpha virt. eigenvalues --   -0.06730   0.18083   0.23374   0.32888   0.44857
 Alpha virt. eigenvalues --    0.57225   0.67186

 Mulliken charges:
               1
     1  H   -0.111922
     2  H    0.023226
     3  H    0.053853
     4  H    0.008111
     5  H    0.015220
     6  H    0.003724
     7  H    0.007788
     8  H    0.007788
     9  H    0.003724
    10  H    0.015220
    11  H    0.008111
    12  H    0.053853
    13  H    0.023226
    14  H   -0.111922
 Sum of Mulliken charges =   0.00000

 Dipole moment (field-independent basis, Debye):
    X=             -0.0000    Y=             -0.0000    Z=              0.0000  Tot=              0.0000
 Quadrupole moment (field-independent basis, Debye-Ang):
   XX=            -20.1064   YY=            -40.0691   ZZ=            -17.8338
   XY=            -11.2456   XZ=             -0.0000   YZ=             -0.0000

 Normal termination of Gaussian 09 at Wed Feb 15 13:15:01 2017.
