 Gaussian 09, Revision E.01,
 Gaussian 09:  ES64L-G09RevE.01 30-Nov-2015

 ----------------------------------------------------------------------
 #rhf/gen scf(symm,tight,novaracc,noincfock,fulldiag) stable(crhf) gues
 s=read geom=nocrowd test
 ----------------------------------------------------------------------

 hf stability analysis of h12 triangular lattice, y= 1.4941379400594756
  alpha= 75.500000000000000
 ----------------------------------------------------------------------
 Symbolic Z-matrix:
 Charge =  0 Multiplicity = 1

                         Standard orientation:
 ---------------------------------------------------------------------
 Center     Atomic      Atomic             Coordinates (Angstroms)
 Number     Number       Type             X           Y           Z
 ---------------------------------------------------------------------
      1          1           0        2.244614    4.821038    0.000000
      2          1           0        2.244614    3.277742    0.000000
      3          1           0        1.496409    3.471241    0.000000
      4          1           0        1.496409    1.927946    0.000000
      5          1           0        0.748205    2.121444    0.000000
      6          1           0        0.748205    0.578149    0.000000
      7          1           0        0.000000    0.771648    0.000000
      8          1           0       -0.000000   -0.771648    0.000000
      9          1           0       -0.748205   -0.578149    0.000000
     10          1           0       -0.748205   -2.121444    0.000000
     11          1           0       -1.496409   -1.927946    0.000000
     12          1           0       -1.496409   -3.471241    0.000000
     13          1           0       -2.244614   -3.277742    0.000000
     14          1           0       -2.244614   -4.821038    0.000000
 ---------------------------------------------------------------------

 SCF Done:  E(RHF) =  -6.92525756141     A.U. after    8 cycles
 E2 =    -0.7090464978D+00 EUMP2 =    -0.76343040591737D+01

 The electronic state is 1-AG.
 Alpha  occ. eigenvalues --   -0.76947  -0.74264  -0.68722  -0.61303  -0.52345
 Alpha  occ. eigenvalues --   -0.42288  -0.12770
 Alpha virt. eigenvalues --   -0.07213   0.18832   0.24045   0.33448   0.45288
 Alpha virt. eigenvalues --    0.57528   0.67419

 Mulliken charges:
               1
     1  H   -0.104314
     2  H    0.022515
     3  H    0.050304
     4  H    0.007042
     5  H    0.014445
     6  H    0.003149
     7  H    0.006859
     8  H    0.006859
     9  H    0.003149
    10  H    0.014445
    11  H    0.007042
    12  H    0.050304
    13  H    0.022515
    14  H   -0.104314
 Sum of Mulliken charges =   0.00000

 Dipole moment (field-independent basis, Debye):
    X=             -0.0000    Y=             -0.0000    Z=             -0.0000  Tot=              0.0000
 Quadrupole moment (field-independent basis, Debye-Ang):
   XX=            -19.7889   YY=            -39.2914   ZZ=            -17.8545
   XY=            -10.6443   XZ=              0.0000   YZ=              0.0000

 Normal termination of Gaussian 09 at Wed Feb 15 13:15:04 2017.
