 Gaussian 09, Revision E.01,
 Gaussian 09:  ES64L-G09RevE.01 30-Nov-2015

 ----------------------------------------------------------------------
 #rhf/gen scf(symm,tight,novaracc,noincfock,fulldiag) stable(crhf) gues
 s=read geom=nocrowd test
 ----------------------------------------------------------------------

 hf stability analysis of h12 triangular lattice, y= 0.6181745873441064
 6 alpha= 33.500000000000000
 ----------------------------------------------------------------------
 Symbolic Z-matrix:
 Charge =  0 Multiplicity = 1

                         Standard orientation:
 ---------------------------------------------------------------------
 Center     Atomic      Atomic             Coordinates (Angstroms)
 Number     Number       Type             X           Y           Z
 ---------------------------------------------------------------------
      1          1           0        3.092922   -0.752863    0.000000
      2          1           0        3.092922   -1.872872    0.000000
      3          1           0        2.061948   -0.315240    0.000000
      4          1           0        2.061948   -1.435250    0.000000
      5          1           0        1.030974    0.122382    0.000000
      6          1           0        1.030974   -0.997627    0.000000
      7          1           0       -0.000000    0.560005    0.000000
      8          1           0       -0.000000   -0.560005    0.000000
      9          1           0       -1.030974    0.997627   -0.000000
     10          1           0       -1.030974   -0.122382   -0.000000
     11          1           0       -2.061948    1.435250   -0.000000
     12          1           0       -2.061948    0.315240   -0.000000
     13          1           0       -3.092922    1.872872   -0.000000
     14          1           0       -3.092922    0.752863   -0.000000
 ---------------------------------------------------------------------

 SCF Done:  E(RHF) =  -6.87096213904     A.U. after   10 cycles
 E2 =    -0.1595849419D+00 EUMP2 =    -0.70305470808977D+01

 The electronic state is 1-AG.
 Alpha  occ. eigenvalues --   -0.87948  -0.81209  -0.70546  -0.54981  -0.41993
 Alpha  occ. eigenvalues --   -0.35989  -0.31946
 Alpha virt. eigenvalues --   -0.00252   0.10195   0.19293   0.41253   0.43130
 Alpha virt. eigenvalues --    0.66423   0.75501

 Mulliken charges:
               1
     1  H    0.052041
     2  H    0.014218
     3  H   -0.108576
     4  H    0.060785
     5  H    0.104348
     6  H   -0.132683
     7  H    0.009869
     8  H    0.009869
     9  H   -0.132683
    10  H    0.104348
    11  H    0.060785
    12  H   -0.108576
    13  H    0.014218
    14  H    0.052041
 Sum of Mulliken charges =  -0.00000

 Dipole moment (field-independent basis, Debye):
    X=             -0.0000    Y=              0.0000    Z=             -0.0000  Tot=              0.0000
 Quadrupole moment (field-independent basis, Debye-Ang):
   XX=            -17.3829   YY=            -20.8973   ZZ=            -18.1016
   XY=             -1.9165   XZ=              0.0000   YZ=             -0.0000

 Normal termination of Gaussian 09 at Wed Feb 15 13:07:22 2017.
