 Gaussian 09, Revision E.01,
 Gaussian 09:  ES64L-G09RevE.01 30-Nov-2015

 ----------------------------------------------------------------------
 #rhf/gen scf(symm,tight,novaracc,noincfock,fulldiag) stable(crhf) gues
 s=read geom=nocrowd test
 ----------------------------------------------------------------------

 hf stability analysis of h12 triangular lattice, y= 0.8406196945607729
 0 alpha= 50.750000000000000
 ----------------------------------------------------------------------
 Symbolic Z-matrix:
 Charge =  0 Multiplicity = 1

                         Standard orientation:
 ---------------------------------------------------------------------
 Center     Atomic      Atomic             Coordinates (Angstroms)
 Number     Number       Type             X           Y           Z
 ---------------------------------------------------------------------
      1          1           0        3.191187    1.192015   -0.000000
      2          1           0        3.191187    0.106494   -0.000000
      3          1           0        2.127458    0.975597   -0.000000
      4          1           0        2.127458   -0.109924   -0.000000
      5          1           0        1.063729    0.759179   -0.000000
      6          1           0        1.063729   -0.326342    0.000000
      7          1           0        0.000000    0.542761   -0.000000
      8          1           0       -0.000000   -0.542761   -0.000000
      9          1           0       -1.063729    0.326342   -0.000000
     10          1           0       -1.063729   -0.759179   -0.000000
     11          1           0       -2.127458    0.109924   -0.000000
     12          1           0       -2.127458   -0.975597   -0.000000
     13          1           0       -3.191187   -0.106494   -0.000000
     14          1           0       -3.191187   -1.192015   -0.000000
 ---------------------------------------------------------------------

 SCF Done:  E(RHF) =  -6.89414255679     A.U. after    9 cycles
 E2 =    -0.1578367794D+00 EUMP2 =    -0.70519793361470D+01

 The electronic state is 1-AG.
 Alpha  occ. eigenvalues --   -0.89074  -0.82197  -0.70518  -0.54553  -0.45123
 Alpha  occ. eigenvalues --   -0.35795  -0.34170
 Alpha virt. eigenvalues --   -0.01293   0.13386   0.18634   0.42505   0.44455
 Alpha virt. eigenvalues --    0.70545   0.92833

 Mulliken charges:
               1
     1  H    0.005756
     2  H    0.044299
     3  H    0.024142
     4  H   -0.074017
     5  H   -0.065477
     6  H    0.065216
     7  H    0.000080
     8  H    0.000080
     9  H    0.065216
    10  H   -0.065477
    11  H   -0.074017
    12  H    0.024142
    13  H    0.044299
    14  H    0.005756
 Sum of Mulliken charges =   0.00000

 Dipole moment (field-independent basis, Debye):
    X=              0.0000    Y=              0.0000    Z=              0.0000  Tot=              0.0000
 Quadrupole moment (field-independent basis, Debye-Ang):
   XX=            -18.9237   YY=            -21.3419   ZZ=            -18.0107
   XY=              0.2952   XZ=             -0.0000   YZ=             -0.0000

 Normal termination of Gaussian 09 at Wed Feb 15 13:10:35 2017.
