 Gaussian 09, Revision E.01,
 Gaussian 09:  ES64L-G09RevE.01 30-Nov-2015

 ----------------------------------------------------------------------
 #rhf/gen scf(symm,tight,novaracc,noincfock,fulldiag) stable(crhf) gues
 s=read geom=nocrowd test
 ----------------------------------------------------------------------

 hf stability analysis of h12 triangular lattice, y= 0.3723030219932718
 7 alpha= 13.500000000000000
 ----------------------------------------------------------------------
 Symbolic Z-matrix:
 Charge =  0 Multiplicity = 1

                         Standard orientation:
 ---------------------------------------------------------------------
 Center     Atomic      Atomic             Coordinates (Angstroms)
 Number     Number       Type             X           Y           Z
 ---------------------------------------------------------------------
      1          1           0        2.172097   -3.465572    0.000000
      2          1           0        2.172097   -5.060391    0.000000
      3          1           0        1.448065   -2.044578    0.000000
      4          1           0        1.448065   -3.639397    0.000000
      5          1           0        0.724032   -0.623584    0.000000
      6          1           0        0.724032   -2.218403    0.000000
      7          1           0        0.000000    0.797409    0.000000
      8          1           0       -0.000000   -0.797409    0.000000
      9          1           0       -0.724032    2.218403   -0.000000
     10          1           0       -0.724032    0.623584   -0.000000
     11          1           0       -1.448065    3.639397   -0.000000
     12          1           0       -1.448065    2.044578   -0.000000
     13          1           0       -2.172097    5.060391   -0.000000
     14          1           0       -2.172097    3.465572   -0.000000
 ---------------------------------------------------------------------

 SCF Done:  E(RHF) =  -6.97091235552     A.U. after    7 cycles
 E2 =    -0.7942574349D+00 EUMP2 =    -0.77651697903727D+01

 The electronic state is 1-AG.
 Alpha  occ. eigenvalues --   -0.76048  -0.73636  -0.68603  -0.61876  -0.53826
 Alpha  occ. eigenvalues --   -0.45032  -0.14189
 Alpha virt. eigenvalues --   -0.09027   0.21874   0.26810   0.35748   0.47036
 Alpha virt. eigenvalues --    0.58719   0.68233

 Mulliken charges:
               1
     1  H    0.018998
     2  H   -0.076575
     3  H    0.003649
     4  H    0.037472
     5  H    0.001449
     6  H    0.011030
     7  H    0.003978
     8  H    0.003978
     9  H    0.011030
    10  H    0.001449
    11  H    0.037472
    12  H    0.003649
    13  H   -0.076575
    14  H    0.018998
 Sum of Mulliken charges =  -0.00000

 Dipole moment (field-independent basis, Debye):
    X=             -0.0000    Y=             -0.0000    Z=              0.0000  Tot=              0.0000
 Quadrupole moment (field-independent basis, Debye-Ang):
   XX=            -18.7310   YY=            -36.2084   ZZ=            -17.9440
   XY=              8.4186   XZ=             -0.0000   YZ=              0.0000

 Normal termination of Gaussian 09 at Wed Feb 15 13:03:44 2017.
