 Gaussian 09, Revision E.01,
 Gaussian 09:  ES64L-G09RevE.01 30-Nov-2015

 ----------------------------------------------------------------------
 #rhf/gen scf(symm,tight,novaracc,noincfock,fulldiag) stable(crhf) gues
 s=read geom=nocrowd test
 ----------------------------------------------------------------------

 hf stability analysis of h12 triangular lattice, y= 0.7972534768479298
 0 alpha= 47.750000000000000
 ----------------------------------------------------------------------
 Symbolic Z-matrix:
 Charge =  0 Multiplicity = 1

                         Standard orientation:
 ---------------------------------------------------------------------
 Center     Atomic      Atomic             Coordinates (Angstroms)
 Number     Number       Type             X           Y           Z
 ---------------------------------------------------------------------
      1          1           0        3.216281    0.848219    0.000000
      2          1           0        3.216281   -0.228833    0.000000
      3          1           0        2.144187    0.744988    0.000000
      4          1           0        2.144187   -0.332064    0.000000
      5          1           0        1.072094    0.641757    0.000000
      6          1           0        1.072094   -0.435295    0.000000
      7          1           0        0.000000    0.538526    0.000000
      8          1           0       -0.000000   -0.538526    0.000000
      9          1           0       -1.072094    0.435295    0.000000
     10          1           0       -1.072094   -0.641757    0.000000
     11          1           0       -2.144187    0.332064    0.000000
     12          1           0       -2.144187   -0.744988    0.000000
     13          1           0       -3.216281    0.228833    0.000000
     14          1           0       -3.216281   -0.848219    0.000000
 ---------------------------------------------------------------------

 SCF Done:  E(RHF) =  -6.89703863228     A.U. after    9 cycles
 E2 =    -0.1577847682D+00 EUMP2 =    -0.70548234004924D+01

 The electronic state is 1-AG.
 Alpha  occ. eigenvalues --   -0.89337  -0.82434  -0.70480  -0.54419  -0.45902
 Alpha  occ. eigenvalues --   -0.36294  -0.34145
 Alpha virt. eigenvalues --   -0.01583   0.14338   0.18403   0.42250   0.45070
 Alpha virt. eigenvalues --    0.72177   0.98316

 Mulliken charges:
               1
     1  H    0.012353
     2  H    0.033405
     3  H   -0.000901
     4  H   -0.049763
     5  H   -0.027950
     6  H    0.036301
     7  H   -0.003444
     8  H   -0.003444
     9  H    0.036301
    10  H   -0.027950
    11  H   -0.049763
    12  H   -0.000901
    13  H    0.033405
    14  H    0.012353
 Sum of Mulliken charges =  -0.00000

 Dipole moment (field-independent basis, Debye):
    X=              0.0000    Y=             -0.0000    Z=              0.0000  Tot=              0.0000
 Quadrupole moment (field-independent basis, Debye-Ang):
   XX=            -19.3879   YY=            -21.2645   ZZ=            -17.9859
   XY=              0.0535   XZ=              0.0000   YZ=             -0.0000

 Normal termination of Gaussian 09 at Wed Feb 15 13:09:59 2017.
