 Gaussian 09, Revision E.01,
 Gaussian 09:  ES64L-G09RevE.01 30-Nov-2015

 ----------------------------------------------------------------------
 #rhf/gen scf(symm,tight,novaracc,noincfock,fulldiag) stable(crhf) gues
 s=read geom=nocrowd test
 ----------------------------------------------------------------------

 hf stability analysis of h12 triangular lattice, y= 1.0702532558662603
  alpha= 63.250000000000000
 ----------------------------------------------------------------------
 Symbolic Z-matrix:
 Charge =  0 Multiplicity = 1

                         Standard orientation:
 ---------------------------------------------------------------------
 Center     Atomic      Atomic             Coordinates (Angstroms)
 Number     Number       Type             X           Y           Z
 ---------------------------------------------------------------------
      1          1           0        2.890316    2.737981    0.000000
      2          1           0        2.890316    1.539461    0.000000
      3          1           0        1.926877    2.025074    0.000000
      4          1           0        1.926877    0.826554    0.000000
      5          1           0        0.963439    1.312167    0.000000
      6          1           0        0.963439    0.113647    0.000000
      7          1           0        0.000000    0.599260    0.000000
      8          1           0       -0.000000   -0.599260   -0.000000
      9          1           0       -0.963439   -0.113647    0.000000
     10          1           0       -0.963439   -1.312167   -0.000000
     11          1           0       -1.926877   -0.826554    0.000000
     12          1           0       -1.926877   -2.025074    0.000000
     13          1           0       -2.890316   -1.539461    0.000000
     14          1           0       -2.890316   -2.737981    0.000000
 ---------------------------------------------------------------------

 SCF Done:  E(RHF) =  -6.76426684939     A.U. after   11 cycles
 E2 =    -0.1693708783D+00 EUMP2 =    -0.69336377277401D+01

 The electronic state is 1-AG.
 Alpha  occ. eigenvalues --   -0.85292  -0.78929  -0.70141  -0.55565  -0.37622
 Alpha  occ. eigenvalues --   -0.35074  -0.25386
 Alpha virt. eigenvalues --   -0.00948   0.08043   0.18169   0.34833   0.39328
 Alpha virt. eigenvalues --    0.56204   0.64508

 Mulliken charges:
               1
     1  H    0.069976
     2  H    0.020640
     3  H    0.084427
     4  H   -0.124183
     5  H   -0.196379
     6  H    0.130684
     7  H    0.014834
     8  H    0.014834
     9  H    0.130684
    10  H   -0.196379
    11  H   -0.124183
    12  H    0.084427
    13  H    0.020640
    14  H    0.069976
 Sum of Mulliken charges =  -0.00000

 Dipole moment (field-independent basis, Debye):
    X=              0.0000    Y=              0.0000    Z=              0.0000  Tot=              0.0000
 Quadrupole moment (field-independent basis, Debye-Ang):
   XX=            -15.6122   YY=            -16.5134   ZZ=            -18.2589
   XY=              6.4857   XZ=              0.0000   YZ=              0.0000

 Normal termination of Gaussian 09 at Wed Feb 15 13:12:54 2017.
