 Gaussian 09, Revision E.01,
 Gaussian 09:  ES64L-G09RevE.01 30-Nov-2015

 ----------------------------------------------------------------------
 #rhf/gen scf(symm,tight,novaracc,noincfock,fulldiag) stable(crhf) gues
 s=read geom=nocrowd test
 ----------------------------------------------------------------------

 hf stability analysis of h12 triangular lattice, y= 1.9654877006520655
  alpha= 81.500000000000000
 ----------------------------------------------------------------------
 Symbolic Z-matrix:
 Charge =  0 Multiplicity = 1

                         Standard orientation:
 ---------------------------------------------------------------------
 Center     Atomic      Atomic             Coordinates (Angstroms)
 Number     Number       Type             X           Y           Z
 ---------------------------------------------------------------------
      1          1           0        1.743105    6.695099   -0.000000
      2          1           0        1.743105    4.707783   -0.000000
      3          1           0        1.162070    4.794619   -0.000000
      4          1           0        1.162070    2.807302   -0.000000
      5          1           0        0.581035    2.894139   -0.000000
      6          1           0        0.581035    0.906822   -0.000000
      7          1           0       -0.000000    0.993658    0.000000
      8          1           0       -0.000000   -0.993658   -0.000000
      9          1           0       -0.581035   -0.906822   -0.000000
     10          1           0       -0.581035   -2.894139   -0.000000
     11          1           0       -1.162070   -2.807302   -0.000000
     12          1           0       -1.162070   -4.794619   -0.000000
     13          1           0       -1.743105   -4.707783   -0.000000
     14          1           0       -1.743105   -6.695099   -0.000000
 ---------------------------------------------------------------------

 SCF Done:  E(RHF) =  -6.87233275701     A.U. after    5 cycles
 E2 =    -0.1185397005D+01 EUMP2 =    -0.80577297619424D+01

 The electronic state is 1-AG.
 Alpha  occ. eigenvalues --   -0.73600  -0.72295  -0.69912  -0.66854  -0.63559
 Alpha  occ. eigenvalues --   -0.60615  -0.18958
 Alpha virt. eigenvalues --   -0.15119   0.39835   0.43509   0.49591   0.57133
 Alpha virt. eigenvalues --    0.64739   0.70681

 Mulliken charges:
               1
     1  H   -0.005127
     2  H    0.002676
     3  H    0.001827
     4  H   -0.000439
     5  H    0.001014
     6  H   -0.000077
     7  H    0.000126
     8  H    0.000126
     9  H   -0.000077
    10  H    0.001014
    11  H   -0.000439
    12  H    0.001827
    13  H    0.002676
    14  H   -0.005127
 Sum of Mulliken charges =  -0.00000

 Dipole moment (field-independent basis, Debye):
    X=             -0.0000    Y=              0.0000    Z=              0.0000  Tot=              0.0000
 Quadrupole moment (field-independent basis, Debye-Ang):
   XX=            -17.1880   YY=            -24.5642   ZZ=            -18.5267
   XY=             -1.8357   XZ=             -0.0000   YZ=             -0.0000

 Normal termination of Gaussian 09 at Wed Feb 15 13:16:07 2017.
