 Gaussian 09, Revision E.01,
 Gaussian 09:  ES64L-G09RevE.01 30-Nov-2015

 ----------------------------------------------------------------------
 #rhf/gen scf(symm,tight,novaracc,noincfock,fulldiag) stable(crhf) gues
 s=read geom=nocrowd test
 ----------------------------------------------------------------------

 hf stability analysis of h12 triangular lattice, y= 1.2857983717814927
  alpha= 70.750000000000000
 ----------------------------------------------------------------------
 Symbolic Z-matrix:
 Charge =  0 Multiplicity = 1

                         Standard orientation:
 ---------------------------------------------------------------------
 Center     Atomic      Atomic             Coordinates (Angstroms)
 Number     Number       Type             X           Y           Z
 ---------------------------------------------------------------------
      1          1           0        2.543494    3.878583    0.000000
      2          1           0        2.543494    2.516637    0.000000
      3          1           0        1.695663    2.812713    0.000000
      4          1           0        1.695663    1.450767    0.000000
      5          1           0        0.847831    1.746843    0.000000
      6          1           0        0.847831    0.384897    0.000000
      7          1           0        0.000000    0.680973   -0.000000
      8          1           0       -0.000000   -0.680973   -0.000000
      9          1           0       -0.847831   -0.384897    0.000000
     10          1           0       -0.847831   -1.746843   -0.000000
     11          1           0       -1.695663   -1.450767    0.000000
     12          1           0       -1.695663   -2.812713    0.000000
     13          1           0       -2.543494   -2.516637    0.000000
     14          1           0       -2.543494   -3.878583    0.000000
 ---------------------------------------------------------------------

 SCF Done:  E(RHF) =  -6.62662750189     A.U. after   11 cycles
 E2 =    -0.2591588746D+00 EUMP2 =    -0.68857863765237D+01

 The electronic state is 1-AG.
 Alpha  occ. eigenvalues --   -0.81800  -0.77106  -0.69993  -0.59268  -0.45560
 Alpha  occ. eigenvalues --   -0.30435  -0.08563
 Alpha virt. eigenvalues --    0.00591   0.08342   0.13546   0.24013   0.37721
 Alpha virt. eigenvalues --    0.52826   0.62744

 Mulliken charges:
               1
     1  H   -0.181771
     2  H   -0.022481
     3  H    0.168268
     4  H    0.005504
     5  H   -0.061477
     6  H    0.042641
     7  H    0.049316
     8  H    0.049316
     9  H    0.042641
    10  H   -0.061477
    11  H    0.005504
    12  H    0.168268
    13  H   -0.022481
    14  H   -0.181771
 Sum of Mulliken charges =   0.00000

 Dipole moment (field-independent basis, Debye):
    X=              0.0000    Y=              0.0000    Z=             -0.0000  Tot=              0.0000
 Quadrupole moment (field-independent basis, Debye-Ang):
   XX=            -26.9964   YY=            -39.9440   ZZ=            -17.7223
   XY=            -16.0981   XZ=             -0.0000   YZ=             -0.0000

 Normal termination of Gaussian 09 at Wed Feb 15 13:14:15 2017.
