 Gaussian 09, Revision E.01,
 Gaussian 09:  ES64L-G09RevE.01 30-Nov-2015

 ----------------------------------------------------------------------
 #rhf/gen scf(symm,tight,novaracc,noincfock,fulldiag) stable(crhf) gues
 s=read geom=nocrowd test
 ----------------------------------------------------------------------

 hf stability analysis of h12 triangular lattice, y= 0.3967414199883826
 4 alpha= 15.250000000000000
 ----------------------------------------------------------------------
 Symbolic Z-matrix:
 Charge =  0 Multiplicity = 1

                         Standard orientation:
 ---------------------------------------------------------------------
 Center     Atomic      Atomic             Coordinates (Angstroms)
 Number     Number       Type             X           Y           Z
 ---------------------------------------------------------------------
      1          1           0        2.296626   -3.144726    0.000000
      2          1           0        2.296626   -4.653070    0.000000
      3          1           0        1.531084   -1.845094    0.000000
      4          1           0        1.531084   -3.353437    0.000000
      5          1           0        0.765542   -0.545461    0.000000
      6          1           0        0.765542   -2.053804    0.000000
      7          1           0        0.000000    0.754172   -0.000000
      8          1           0       -0.000000   -0.754172    0.000000
      9          1           0       -0.765542    2.053804   -0.000000
     10          1           0       -0.765542    0.545461   -0.000000
     11          1           0       -1.531084    3.353437   -0.000000
     12          1           0       -1.531084    1.845094   -0.000000
     13          1           0       -2.296626    4.653070   -0.000000
     14          1           0       -2.296626    3.144726   -0.000000
 ---------------------------------------------------------------------

 SCF Done:  E(RHF) =  -6.88352375298     A.U. after    8 cycles
 E2 =    -0.6434250362D+00 EUMP2 =    -0.75269487892232D+01

 The electronic state is 1-AG.
 Alpha  occ. eigenvalues --   -0.77716  -0.74798  -0.68882  -0.60949  -0.51324
 Alpha  occ. eigenvalues --   -0.40344  -0.11646
 Alpha virt. eigenvalues --   -0.05731   0.16598   0.22053   0.31784   0.44003
 Alpha virt. eigenvalues --    0.56615   0.66689

 Mulliken charges:
               1
     1  H    0.024313
     2  H   -0.127797
     3  H    0.010533
     4  H    0.061428
     5  H    0.005080
     6  H    0.016500
     7  H    0.009943
     8  H    0.009943
     9  H    0.016500
    10  H    0.005080
    11  H    0.061428
    12  H    0.010533
    13  H   -0.127797
    14  H    0.024313
 Sum of Mulliken charges =  -0.00000

 Dipole moment (field-independent basis, Debye):
    X=             -0.0000    Y=             -0.0000    Z=             -0.0000  Tot=              0.0000
 Quadrupole moment (field-independent basis, Debye-Ang):
   XX=            -20.8066   YY=            -41.6017   ZZ=            -17.7945
   XY=             12.4897   XZ=             -0.0000   YZ=              0.0000

 Normal termination of Gaussian 09 at Wed Feb 15 13:04:02 2017.
