 Gaussian 09, Revision E.01,
 Gaussian 09:  ES64L-G09RevE.01 30-Nov-2015

 ----------------------------------------------------------------------
 #rhf/gen scf(symm,tight,novaracc,noincfock,fulldiag) stable(crhf) gues
 s=read geom=nocrowd test
 ----------------------------------------------------------------------

 hf stability analysis of h12 triangular lattice, y= 0.7178473640090998
 8 alpha= 41.750000000000000
 ----------------------------------------------------------------------
 Symbolic Z-matrix:
 Charge =  0 Multiplicity = 1

                         Standard orientation:
 ---------------------------------------------------------------------
 Center     Atomic      Atomic             Coordinates (Angstroms)
 Number     Number       Type             X           Y           Z
 ---------------------------------------------------------------------
      1          1           0        3.213332    0.172907    0.000000
      2          1           0        3.213332   -0.905133   -0.000000
      3          1           0        2.142221    0.294945    0.000000
      4          1           0        2.142221   -0.783095   -0.000000
      5          1           0        1.071111    0.416983    0.000000
      6          1           0        1.071111   -0.661058   -0.000000
      7          1           0        0.000000    0.539020    0.000000
      8          1           0       -0.000000   -0.539020    0.000000
      9          1           0       -1.071111    0.661058    0.000000
     10          1           0       -1.071111   -0.416983    0.000000
     11          1           0       -2.142221    0.783095    0.000000
     12          1           0       -2.142221   -0.294945    0.000000
     13          1           0       -3.213332    0.905133    0.000000
     14          1           0       -3.213332   -0.172907    0.000000
 ---------------------------------------------------------------------

 SCF Done:  E(RHF) =  -6.89676252469     A.U. after    9 cycles
 E2 =    -0.1577814233D+00 EUMP2 =    -0.70545439480158D+01

 The electronic state is 1-AG.
 Alpha  occ. eigenvalues --   -0.89307  -0.82407  -0.70485  -0.54436  -0.45811
 Alpha  occ. eigenvalues --   -0.36225  -0.34159
 Alpha virt. eigenvalues --   -0.01549   0.14223   0.18431   0.42281   0.45003
 Alpha virt. eigenvalues --    0.71971   0.97645

 Mulliken charges:
               1
     1  H    0.035387
     2  H    0.010878
     3  H   -0.054017
     4  H    0.003455
     5  H    0.041492
     6  H   -0.034191
     7  H   -0.003003
     8  H   -0.003003
     9  H   -0.034191
    10  H    0.041492
    11  H    0.003455
    12  H   -0.054017
    13  H    0.010878
    14  H    0.035387
 Sum of Mulliken charges =   0.00000

 Dipole moment (field-independent basis, Debye):
    X=              0.0000    Y=             -0.0000    Z=              0.0000  Tot=              0.0000
 Quadrupole moment (field-independent basis, Debye-Ang):
   XX=            -19.3319   YY=            -21.2778   ZZ=            -17.9888
   XY=             -0.0756   XZ=              0.0000   YZ=             -0.0000

 Normal termination of Gaussian 09 at Wed Feb 15 13:08:53 2017.
