 Gaussian 09, Revision E.01,
 Gaussian 09:  ES64L-G09RevE.01 30-Nov-2015

 ----------------------------------------------------------------------
 #rhf/gen scf(symm,tight,novaracc,noincfock,fulldiag) stable(crhf) gues
 s=read geom=nocrowd test
 ----------------------------------------------------------------------

 hf stability analysis of h12 triangular lattice, y= 0.5040240137193442
 4 alpha= 23.750000000000000
 ----------------------------------------------------------------------
 Symbolic Z-matrix:
 Charge =  0 Multiplicity = 1

                         Standard orientation:
 ---------------------------------------------------------------------
 Center     Atomic      Atomic             Coordinates (Angstroms)
 Number     Number       Type             X           Y           Z
 ---------------------------------------------------------------------
      1          1           0        2.768034   -1.910702   -0.000000
      2          1           0        2.768034   -3.162169   -0.000000
      3          1           0        1.845356   -1.065224   -0.000000
      4          1           0        1.845356   -2.316690   -0.000000
      5          1           0        0.922678   -0.219745   -0.000000
      6          1           0        0.922678   -1.471212   -0.000000
      7          1           0        0.000000    0.625733    0.000000
      8          1           0       -0.000000   -0.625733    0.000000
      9          1           0       -0.922678    1.471212   -0.000000
     10          1           0       -0.922678    0.219745   -0.000000
     11          1           0       -1.845356    2.316690   -0.000000
     12          1           0       -1.845356    1.065224   -0.000000
     13          1           0       -2.768034    3.162169   -0.000000
     14          1           0       -2.768034    1.910702   -0.000000
 ---------------------------------------------------------------------

 SCF Done:  E(RHF) =  -6.66318836833     A.U. after   11 cycles
 E2 =    -0.1793260059D+00 EUMP2 =    -0.68425143742201D+01

 The electronic state is 1-AG.
 Alpha  occ. eigenvalues --   -0.83742  -0.77489  -0.69715  -0.55911  -0.38534
 Alpha  occ. eigenvalues --   -0.30628  -0.21167
 Alpha virt. eigenvalues --   -0.03534   0.09491   0.15117   0.31676   0.33662
 Alpha virt. eigenvalues --    0.53934   0.64675

 Mulliken charges:
               1
     1  H   -0.019313
     2  H    0.101935
     3  H   -0.125700
     4  H    0.103204
     5  H    0.162283
     6  H   -0.220682
     7  H   -0.001727
     8  H   -0.001727
     9  H   -0.220682
    10  H    0.162283
    11  H    0.103204
    12  H   -0.125700
    13  H    0.101935
    14  H   -0.019313
 Sum of Mulliken charges =  -0.00000

 Dipole moment (field-independent basis, Debye):
    X=              0.0000    Y=             -0.0000    Z=             -0.0000  Tot=              0.0000
 Quadrupole moment (field-independent basis, Debye-Ang):
   XX=            -16.0003   YY=            -12.4881   ZZ=            -18.3255
   XY=             -8.5716   XZ=              0.0000   YZ=             -0.0000

 Normal termination of Gaussian 09 at Wed Feb 15 13:05:34 2017.
