 Gaussian 09, Revision E.01,
 Gaussian 09:  ES64L-G09RevE.01 30-Nov-2015

 ----------------------------------------------------------------------
 #rhf/gen scf(symm,tight,novaracc,noincfock,fulldiag) stable(crhf) gues
 s=read geom=nocrowd test
 ----------------------------------------------------------------------

 hf stability analysis of h12 triangular lattice, y= 0.8833142989544126
 0 alpha= 53.500000000000000
 ----------------------------------------------------------------------
 Symbolic Z-matrix:
 Charge =  0 Multiplicity = 1

                         Standard orientation:
 ---------------------------------------------------------------------
 Center     Atomic      Atomic             Coordinates (Angstroms)
 Number     Number       Type             X           Y           Z
 ---------------------------------------------------------------------
      1          1           0        3.152493    1.513236    0.000000
      2          1           0        3.152493    0.414391    0.000000
      3          1           0        2.101662    1.191965    0.000000
      4          1           0        2.101662    0.093120    0.000000
      5          1           0        1.050831    0.870694    0.000000
      6          1           0        1.050831   -0.228151    0.000000
      7          1           0        0.000000    0.549423    0.000000
      8          1           0       -0.000000   -0.549423    0.000000
      9          1           0       -1.050831    0.228151    0.000000
     10          1           0       -1.050831   -0.870694    0.000000
     11          1           0       -2.101662   -0.093120    0.000000
     12          1           0       -2.101662   -1.191965    0.000000
     13          1           0       -3.152493   -0.414391    0.000000
     14          1           0       -3.152493   -1.513236    0.000000
 ---------------------------------------------------------------------

 SCF Done:  E(RHF) =  -6.88725901520     A.U. after   10 cycles
 E2 =    -0.1582503719D+00 EUMP2 =    -0.70455093871357D+01

 The electronic state is 1-AG.
 Alpha  occ. eigenvalues --   -0.88648  -0.81819  -0.70551  -0.54738  -0.43907
 Alpha  occ. eigenvalues --   -0.35600  -0.33598
 Alpha virt. eigenvalues --   -0.00852   0.12021   0.18947   0.42832   0.43324
 Alpha virt. eigenvalues --    0.68526   0.85295

 Mulliken charges:
               1
     1  H    0.005751
     2  H    0.050839
     3  H    0.043871
     4  H   -0.092808
     5  H   -0.098907
     6  H    0.086636
     7  H    0.004618
     8  H    0.004618
     9  H    0.086636
    10  H   -0.098907
    11  H   -0.092808
    12  H    0.043871
    13  H    0.050839
    14  H    0.005751
 Sum of Mulliken charges =  -0.00000

 Dipole moment (field-independent basis, Debye):
    X=             -0.0000    Y=             -0.0000    Z=              0.0000  Tot=              0.0000
 Quadrupole moment (field-independent basis, Debye-Ang):
   XX=            -18.2645   YY=            -21.3068   ZZ=            -18.0477
   XY=              0.8375   XZ=             -0.0000   YZ=              0.0000

 Normal termination of Gaussian 09 at Wed Feb 15 13:11:05 2017.
