 Gaussian 09, Revision E.01,
 Gaussian 09:  ES64L-G09RevE.01 30-Nov-2015

 ----------------------------------------------------------------------
 #rhf/gen scf(symm,tight,novaracc,noincfock,fulldiag) stable(crhf) gues
 s=read geom=nocrowd test
 ----------------------------------------------------------------------

 hf stability analysis of h12 triangular lattice, y= 0.7466864790071482
 4 alpha= 44.000000000000000
 ----------------------------------------------------------------------
 Symbolic Z-matrix:
 Charge =  0 Multiplicity = 1

                         Standard orientation:
 ---------------------------------------------------------------------
 Center     Atomic      Atomic             Coordinates (Angstroms)
 Number     Number       Type             X           Y           Z
 ---------------------------------------------------------------------
      1          1           0        3.222728    0.424909   -0.000000
      2          1           0        3.222728   -0.649989   -0.000000
      3          1           0        2.148485    0.462422   -0.000000
      4          1           0        2.148485   -0.612475   -0.000000
      5          1           0        1.074243    0.499935   -0.000000
      6          1           0        1.074243   -0.574962   -0.000000
      7          1           0        0.000000    0.537449   -0.000000
      8          1           0       -0.000000   -0.537449   -0.000000
      9          1           0       -1.074243    0.574962   -0.000000
     10          1           0       -1.074243   -0.499935   -0.000000
     11          1           0       -2.148485    0.612475   -0.000000
     12          1           0       -2.148485   -0.462422   -0.000000
     13          1           0       -3.222728    0.649989   -0.000000
     14          1           0       -3.222728   -0.424909   -0.000000
 ---------------------------------------------------------------------

 SCF Done:  E(RHF) =  -6.89758258479     A.U. after    8 cycles
 E2 =    -0.1578011991D+00 EUMP2 =    -0.70553837838580D+01

 The electronic state is 1-AG.
 Alpha  occ. eigenvalues --   -0.89403  -0.82494  -0.70468  -0.54383  -0.46102
 Alpha  occ. eigenvalues --   -0.36451  -0.34106
 Alpha virt. eigenvalues --   -0.01657   0.14590   0.18340   0.42179   0.45211
 Alpha virt. eigenvalues --    0.72639   0.99811

 Mulliken charges:
               1
     1  H    0.026278
     2  H    0.018372
     3  H   -0.034427
     4  H   -0.016472
     5  H    0.017108
     6  H   -0.006426
     7  H   -0.004434
     8  H   -0.004434
     9  H   -0.006426
    10  H    0.017108
    11  H   -0.016472
    12  H   -0.034427
    13  H    0.018372
    14  H    0.026278
 Sum of Mulliken charges =  -0.00000

 Dipole moment (field-independent basis, Debye):
    X=              0.0000    Y=             -0.0000    Z=             -0.0000  Tot=              0.0000
 Quadrupole moment (field-independent basis, Debye-Ang):
   XX=            -19.5118   YY=            -21.2316   ZZ=            -17.9794
   XY=             -0.0111   XZ=              0.0000   YZ=              0.0000

 Normal termination of Gaussian 09 at Wed Feb 15 13:09:18 2017.
