 Gaussian 09, Revision E.01,
 Gaussian 09:  ES64L-G09RevE.01 30-Nov-2015

 ----------------------------------------------------------------------
 #rhf/gen scf(symm,tight,novaracc,noincfock,fulldiag) stable(crhf) gues
 s=read geom=nocrowd test
 ----------------------------------------------------------------------

 hf stability analysis of h12 triangular lattice, y= 1.1064166633763877
  alpha= 64.750000000000000
 ----------------------------------------------------------------------
 Symbolic Z-matrix:
 Charge =  0 Multiplicity = 1

                         Standard orientation:
 ---------------------------------------------------------------------
 Center     Atomic      Atomic             Coordinates (Angstroms)
 Number     Number       Type             X           Y           Z
 ---------------------------------------------------------------------
      1          1           0        2.831777    2.945985    0.000000
      2          1           0        2.831777    1.722688    0.000000
      3          1           0        1.887851    2.167872    0.000000
      4          1           0        1.887851    0.944576    0.000000
      5          1           0        0.943926    1.389760    0.000000
      6          1           0        0.943926    0.166464    0.000000
      7          1           0       -0.000000    0.611648    0.000000
      8          1           0       -0.000000   -0.611648   -0.000000
      9          1           0       -0.943926   -0.166464    0.000000
     10          1           0       -0.943926   -1.389760   -0.000000
     11          1           0       -1.887851   -0.944576   -0.000000
     12          1           0       -1.887851   -2.167872   -0.000000
     13          1           0       -2.831777   -1.722688   -0.000000
     14          1           0       -2.831777   -2.945985   -0.000000
 ---------------------------------------------------------------------

 SCF Done:  E(RHF) =  -6.71899914819     A.U. after   11 cycles
 E2 =    -0.1736587765D+00 EUMP2 =    -0.68926579247173D+01

 The electronic state is 1-AG.
 Alpha  occ. eigenvalues --   -0.84505  -0.78232  -0.69943  -0.55704  -0.38054
 Alpha  occ. eigenvalues --   -0.32964  -0.23387
 Alpha virt. eigenvalues --   -0.02100   0.08627   0.16895   0.33998   0.35958
 Alpha virt. eigenvalues --    0.54583   0.64594

 Mulliken charges:
               1
     1  H    0.087697
     2  H    0.003861
     3  H    0.090885
     4  H   -0.124360
     5  H   -0.209162
     6  H    0.140191
     7  H    0.010887
     8  H    0.010887
     9  H    0.140191
    10  H   -0.209162
    11  H   -0.124360
    12  H    0.090885
    13  H    0.003861
    14  H    0.087697
 Sum of Mulliken charges =   0.00000

 Dipole moment (field-independent basis, Debye):
    X=              0.0000    Y=              0.0000    Z=             -0.0000  Tot=              0.0000
 Quadrupole moment (field-independent basis, Debye-Ang):
   XX=            -15.5512   YY=            -14.5471   ZZ=            -18.2956
   XY=              7.7324   XZ=              0.0000   YZ=             -0.0000

 Normal termination of Gaussian 09 at Wed Feb 15 13:13:10 2017.
