 Gaussian 09, Revision E.01,
 Gaussian 09:  ES64L-G09RevE.01 30-Nov-2015

 ----------------------------------------------------------------------
 #rhf/gen scf(symm,tight,novaracc,noincfock,fulldiag) stable(crhf) gues
 s=read geom=nocrowd test
 ----------------------------------------------------------------------

 hf stability analysis of h12 triangular lattice, y= 1.0531284965820111
  alpha= 62.500000000000000
 ----------------------------------------------------------------------
 Symbolic Z-matrix:
 Charge =  0 Multiplicity = 1

                         Standard orientation:
 ---------------------------------------------------------------------
 Center     Atomic      Atomic             Coordinates (Angstroms)
 Number     Number       Type             X           Y           Z
 ---------------------------------------------------------------------
      1          1           0        2.917684    2.636623    0.000000
      2          1           0        2.917684    1.449345    0.000000
      3          1           0        1.945122    1.955628    0.000000
      4          1           0        1.945122    0.768350    0.000000
      5          1           0        0.972561    1.274634    0.000000
      6          1           0        0.972561    0.087356    0.000000
      7          1           0       -0.000000    0.593639    0.000000
      8          1           0       -0.000000   -0.593639    0.000000
      9          1           0       -0.972561   -0.087356    0.000000
     10          1           0       -0.972561   -1.274634    0.000000
     11          1           0       -1.945122   -0.768350    0.000000
     12          1           0       -1.945122   -1.955628    0.000000
     13          1           0       -2.917684   -1.449345    0.000000
     14          1           0       -2.917684   -2.636623    0.000000
 ---------------------------------------------------------------------

 SCF Done:  E(RHF) =  -6.78326441921     A.U. after   10 cycles
 E2 =    -0.1676044161D+00 EUMP2 =    -0.69508688352603D+01

 The electronic state is 1-AG.
 Alpha  occ. eigenvalues --   -0.85665  -0.79252  -0.70224  -0.55500  -0.37415
 Alpha  occ. eigenvalues --   -0.36045  -0.26307
 Alpha virt. eigenvalues --   -0.00516   0.07905   0.18612   0.35417   0.40567
 Alpha virt. eigenvalues --    0.57499   0.64512

 Mulliken charges:
               1
     1  H    0.061438
     2  H    0.027257
     3  H    0.082002
     4  H   -0.123775
     5  H   -0.189912
     6  H    0.127509
     7  H    0.015482
     8  H    0.015482
     9  H    0.127509
    10  H   -0.189912
    11  H   -0.123775
    12  H    0.082002
    13  H    0.027257
    14  H    0.061438
 Sum of Mulliken charges =   0.00000

 Dipole moment (field-independent basis, Debye):
    X=              0.0000    Y=             -0.0000    Z=              0.0000  Tot=              0.0000
 Quadrupole moment (field-independent basis, Debye-Ang):
   XX=            -15.7286   YY=            -17.3514   ZZ=            -18.2401
   XY=              5.8543   XZ=              0.0000   YZ=              0.0000

 Normal termination of Gaussian 09 at Wed Feb 15 13:12:45 2017.
