 Gaussian 09, Revision E.01,
 Gaussian 09:  ES64L-G09RevE.01 30-Nov-2015

 ----------------------------------------------------------------------
 #rhf/gen scf(symm,tight,novaracc,noincfock,fulldiag) stable(crhf) gues
 s=read geom=nocrowd test
 ----------------------------------------------------------------------

 hf stability analysis of h12 triangular lattice, y= 0.9474130986383170
 2 alpha= 57.250000000000000
 ----------------------------------------------------------------------
 Symbolic Z-matrix:
 Charge =  0 Multiplicity = 1

                         Standard orientation:
 ---------------------------------------------------------------------
 Center     Atomic      Atomic             Coordinates (Angstroms)
 Number     Number       Type             X           Y           Z
 ---------------------------------------------------------------------
      1          1           0        3.075158    1.964670   -0.000000
      2          1           0        3.075158    0.838190   -0.000000
      3          1           0        2.050105    1.497526   -0.000000
      4          1           0        2.050105    0.371047   -0.000000
      5          1           0        1.025053    1.030383   -0.000000
      6          1           0        1.025053   -0.096096   -0.000000
      7          1           0       -0.000000    0.563240    0.000000
      8          1           0       -0.000000   -0.563240    0.000000
      9          1           0       -1.025053    0.096096   -0.000000
     10          1           0       -1.025053   -1.030383    0.000000
     11          1           0       -2.050105   -0.371047   -0.000000
     12          1           0       -2.050105   -1.497526    0.000000
     13          1           0       -3.075158   -0.838190   -0.000000
     14          1           0       -3.075158   -1.964670    0.000000
 ---------------------------------------------------------------------

 SCF Done:  E(RHF) =  -6.86476985640     A.U. after   10 cycles
 E2 =    -0.1601310963D+00 EUMP2 =    -0.70249009527290D+01

 The electronic state is 1-AG.
 Alpha  occ. eigenvalues --   -0.87730  -0.81021  -0.70533  -0.55046  -0.41412
 Alpha  occ. eigenvalues --   -0.36136  -0.31404
 Alpha virt. eigenvalues --   -0.00109   0.09728   0.19356   0.40593   0.43153
 Alpha virt. eigenvalues --    0.65990   0.72952

 Mulliken charges:
               1
     1  H    0.017874
     2  H    0.051139
     3  H    0.064229
     4  H   -0.111681
     5  H   -0.140573
     6  H    0.107926
     7  H    0.011085
     8  H    0.011085
     9  H    0.107926
    10  H   -0.140573
    11  H   -0.111681
    12  H    0.064229
    13  H    0.051139
    14  H    0.017874
 Sum of Mulliken charges =  -0.00000

 Dipole moment (field-independent basis, Debye):
    X=             -0.0000    Y=             -0.0000    Z=             -0.0000  Tot=              0.0000
 Quadrupole moment (field-independent basis, Debye-Ang):
   XX=            -17.1508   YY=            -20.6939   ZZ=            -18.1170
   XY=              2.2775   XZ=             -0.0000   YZ=              0.0000

 Normal termination of Gaussian 09 at Wed Feb 15 13:11:47 2017.
