 Gaussian 09, Revision E.01,
 Gaussian 09:  ES64L-G09RevE.01 30-Nov-2015

 ----------------------------------------------------------------------
 #rhf/gen scf(symm,tight,novaracc,noincfock,fulldiag) stable(crhf) gues
 s=read geom=nocrowd test
 ----------------------------------------------------------------------

 hf stability analysis of h12 triangular lattice, y= 0.5918992783615676
 4 alpha= 31.250000000000000
 ----------------------------------------------------------------------
 Symbolic Z-matrix:
 Charge =  0 Multiplicity = 1

                         Standard orientation:
 ---------------------------------------------------------------------
 Center     Atomic      Atomic             Coordinates (Angstroms)
 Number     Number       Type             X           Y           Z
 ---------------------------------------------------------------------
      1          1           0        3.036130   -1.010030    0.000000
      2          1           0        3.036130   -2.150989    0.000000
      3          1           0        2.024087   -0.483193    0.000000
      4          1           0        2.024087   -1.624153    0.000000
      5          1           0        1.012043    0.043643    0.000000
      6          1           0        1.012043   -1.097316    0.000000
      7          1           0        0.000000    0.570480    0.000000
      8          1           0       -0.000000   -0.570480    0.000000
      9          1           0       -1.012043    1.097316   -0.000000
     10          1           0       -1.012043   -0.043643   -0.000000
     11          1           0       -2.024087    1.624153   -0.000000
     12          1           0       -2.024087    0.483193   -0.000000
     13          1           0       -3.036130    2.150989   -0.000000
     14          1           0       -3.036130    1.010030   -0.000000
 ---------------------------------------------------------------------

 SCF Done:  E(RHF) =  -6.84902160572     A.U. after   10 cycles
 E2 =    -0.1615518351D+00 EUMP2 =    -0.70105734408159D+01

 The electronic state is 1-AG.
 Alpha  occ. eigenvalues --   -0.87239  -0.80599  -0.70487  -0.55177  -0.40118
 Alpha  occ. eigenvalues --   -0.36464  -0.30181
 Alpha virt. eigenvalues --    0.00108   0.08857   0.19412   0.39137   0.43058
 Alpha virt. eigenvalues --    0.65284   0.67910

 Mulliken charges:
               1
     1  H    0.047667
     2  H    0.027124
     3  H   -0.116856
     4  H    0.070249
     5  H    0.114224
     6  H   -0.155658
     7  H    0.013251
     8  H    0.013251
     9  H   -0.155658
    10  H    0.114224
    11  H    0.070249
    12  H   -0.116856
    13  H    0.027124
    14  H    0.047667
 Sum of Mulliken charges =   0.00000

 Dipole moment (field-independent basis, Debye):
    X=             -0.0000    Y=              0.0000    Z=             -0.0000  Tot=              0.0000
 Quadrupole moment (field-independent basis, Debye-Ang):
   XX=            -16.6906   YY=            -20.1193   ZZ=            -18.1497
   XY=             -3.1153   XZ=              0.0000   YZ=              0.0000

 Normal termination of Gaussian 09 at Wed Feb 15 13:06:57 2017.
