 Gaussian 09, Revision E.01,
 Gaussian 09:  ES64L-G09RevE.01 30-Nov-2015

 ----------------------------------------------------------------------
 #rhf/gen scf(symm,tight,novaracc,noincfock,fulldiag) stable(crhf) gues
 s=read geom=nocrowd test
 ----------------------------------------------------------------------

 hf stability analysis of h12 triangular lattice, y= 1.0475506882612993
  alpha= 62.250000000000000
 ----------------------------------------------------------------------
 Symbolic Z-matrix:
 Charge =  0 Multiplicity = 1

                         Standard orientation:
 ---------------------------------------------------------------------
 Center     Atomic      Atomic             Coordinates (Angstroms)
 Number     Number       Type             X           Y           Z
 ---------------------------------------------------------------------
      1          1           0        2.926529    2.603192    0.000000
      2          1           0        2.926529    1.419503    0.000000
      3          1           0        1.951019    1.932743    0.000000
      4          1           0        1.951019    0.749054    0.000000
      5          1           0        0.975510    1.262294    0.000000
      6          1           0        0.975510    0.078604    0.000000
      7          1           0        0.000000    0.591845    0.000000
      8          1           0       -0.000000   -0.591845   -0.000000
      9          1           0       -0.975510   -0.078604   -0.000000
     10          1           0       -0.975510   -1.262294   -0.000000
     11          1           0       -1.951019   -0.749054   -0.000000
     12          1           0       -1.951019   -1.932743   -0.000000
     13          1           0       -2.926529   -1.419503   -0.000000
     14          1           0       -2.926529   -2.603192   -0.000000
 ---------------------------------------------------------------------

 SCF Done:  E(RHF) =  -6.78910226237     A.U. after   10 cycles
 E2 =    -0.1670637125D+00 EUMP2 =    -0.69561659748362D+01

 The electronic state is 1-AG.
 Alpha  occ. eigenvalues --   -0.85785  -0.79355  -0.70250  -0.55479  -0.37347
 Alpha  occ. eigenvalues --   -0.36356  -0.26603
 Alpha virt. eigenvalues --   -0.00396   0.07884   0.18733   0.35632   0.40911
 Alpha virt. eigenvalues --    0.58004   0.64523

 Mulliken charges:
               1
     1  H    0.058692
     2  H    0.029242
     3  H    0.081245
     4  H   -0.123573
     5  H   -0.187741
     6  H    0.126559
     7  H    0.015576
     8  H    0.015576
     9  H    0.126559
    10  H   -0.187741
    11  H   -0.123573
    12  H    0.081245
    13  H    0.029242
    14  H    0.058692
 Sum of Mulliken charges =   0.00000

 Dipole moment (field-independent basis, Debye):
    X=              0.0000    Y=              0.0000    Z=             -0.0000  Tot=              0.0000
 Quadrupole moment (field-independent basis, Debye-Ang):
   XX=            -15.7758   YY=            -17.6079   ZZ=            -18.2338
   XY=              5.6476   XZ=              0.0000   YZ=              0.0000

 Normal termination of Gaussian 09 at Wed Feb 15 13:12:42 2017.
