 Gaussian 09, Revision E.01,
 Gaussian 09:  ES64L-G09RevE.01 30-Nov-2015

 ----------------------------------------------------------------------
 #rhf/gen scf(symm,tight,novaracc,noincfock,fulldiag) stable(crhf) gues
 s=read geom=nocrowd test
 ----------------------------------------------------------------------

 hf stability analysis of h12 triangular lattice, y= 0.4707695940863088
 6 alpha= 21.000000000000000
 ----------------------------------------------------------------------
 Symbolic Z-matrix:
 Charge =  0 Multiplicity = 1

                         Standard orientation:
 ---------------------------------------------------------------------
 Center     Atomic      Atomic             Coordinates (Angstroms)
 Number     Number       Type             X           Y           Z
 ---------------------------------------------------------------------
      1          1           0        2.637008   -2.271869   -0.000000
      2          1           0        2.637008   -3.585518    0.000000
      3          1           0        1.758005   -1.295638   -0.000000
      4          1           0        1.758005   -2.609287    0.000000
      5          1           0        0.879003   -0.319407   -0.000000
      6          1           0        0.879003   -1.633056    0.000000
      7          1           0        0.000000    0.656824   -0.000000
      8          1           0       -0.000000   -0.656824    0.000000
      9          1           0       -0.879003    1.633056   -0.000000
     10          1           0       -0.879003    0.319407   -0.000000
     11          1           0       -1.758005    2.609287   -0.000000
     12          1           0       -1.758005    1.295638   -0.000000
     13          1           0       -2.637008    3.585518   -0.000000
     14          1           0       -2.637008    2.271869   -0.000000
 ---------------------------------------------------------------------

 SCF Done:  E(RHF) =  -6.57794341005     A.U. after   13 cycles
 E2 =    -0.2248782756D+00 EUMP2 =    -0.68028216856737D+01

 The electronic state is 1-AG.
 Alpha  occ. eigenvalues --   -0.83400  -0.77358  -0.70132  -0.58472  -0.42399
 Alpha  occ. eigenvalues --   -0.27026  -0.12614
 Alpha virt. eigenvalues --   -0.02550   0.10596   0.13048   0.23037   0.35025
 Alpha virt. eigenvalues --    0.52423   0.62011

 Mulliken charges:
               1
     1  H   -0.001200
     2  H   -0.118866
     3  H   -0.128687
     4  H    0.169784
     5  H    0.162781
     6  H   -0.088197
     7  H    0.004384
     8  H    0.004384
     9  H   -0.088197
    10  H    0.162781
    11  H    0.169784
    12  H   -0.128687
    13  H   -0.118866
    14  H   -0.001200
 Sum of Mulliken charges =   0.00000

 Dipole moment (field-independent basis, Debye):
    X=              0.0000    Y=             -0.0000    Z=              0.0000  Tot=              0.0000
 Quadrupole moment (field-independent basis, Debye-Ang):
   XX=            -26.4156   YY=            -30.1312   ZZ=            -17.9301
   XY=              9.6356   XZ=             -0.0000   YZ=              0.0000

 Normal termination of Gaussian 09 at Wed Feb 15 13:05:03 2017.
