 Gaussian 09, Revision E.01,
 Gaussian 09:  ES64L-G09RevE.01 30-Nov-2015

 ----------------------------------------------------------------------
 #rhf/gen scf(symm,tight,novaracc,noincfock,fulldiag) stable(crhf) gues
 s=read geom=nocrowd test
 ----------------------------------------------------------------------

 hf stability analysis of h12 triangular lattice, y= 0.4552910430659851
 7 alpha= 19.750000000000000
 ----------------------------------------------------------------------
 Symbolic Z-matrix:
 Charge =  0 Multiplicity = 1

                         Standard orientation:
 ---------------------------------------------------------------------
 Center     Atomic      Atomic             Coordinates (Angstroms)
 Number     Number       Type             X           Y           Z
 ---------------------------------------------------------------------
      1          1           0        2.571054   -2.445264   -0.000000
      2          1           0        2.571054   -3.792611   -0.000000
      3          1           0        1.714036   -1.405618   -0.000000
      4          1           0        1.714036   -2.752965   -0.000000
      5          1           0        0.857018   -0.365973   -0.000000
      6          1           0        0.857018   -1.713319   -0.000000
      7          1           0        0.000000    0.673673    0.000000
      8          1           0       -0.000000   -0.673673   -0.000000
      9          1           0       -0.857018    1.713319    0.000000
     10          1           0       -0.857018    0.365973   -0.000000
     11          1           0       -1.714036    2.752965    0.000000
     12          1           0       -1.714036    1.405618    0.000000
     13          1           0       -2.571054    3.792611    0.000000
     14          1           0       -2.571054    2.445264    0.000000
 ---------------------------------------------------------------------

 SCF Done:  E(RHF) =  -6.60540747682     A.U. after   11 cycles
 E2 =    -0.2390990550D+00 EUMP2 =    -0.68445065318404D+01

 The electronic state is 1-AG.
 Alpha  occ. eigenvalues --   -0.82107  -0.77108  -0.70032  -0.58976  -0.44563
 Alpha  occ. eigenvalues --   -0.29207  -0.09383
 Alpha virt. eigenvalues --    0.00011   0.09006   0.13053   0.23285   0.36957
 Alpha virt. eigenvalues --    0.52735   0.62592

 Mulliken charges:
               1
     1  H   -0.028029
     2  H   -0.159763
     3  H   -0.020501
     4  H    0.178629
     5  H    0.061712
     6  H   -0.082052
     7  H    0.050004
     8  H    0.050004
     9  H   -0.082052
    10  H    0.061712
    11  H    0.178629
    12  H   -0.020501
    13  H   -0.159763
    14  H   -0.028029
 Sum of Mulliken charges =  -0.00000

 Dipole moment (field-independent basis, Debye):
    X=             -0.0000    Y=             -0.0000    Z=              0.0000  Tot=              0.0000
 Quadrupole moment (field-independent basis, Debye-Ang):
   XX=            -26.9711   YY=            -36.3428   ZZ=            -17.7803
   XY=             14.0804   XZ=              0.0000   YZ=             -0.0000

 Normal termination of Gaussian 09 at Wed Feb 15 13:04:50 2017.
