 Gaussian 09, Revision E.01,
 Gaussian 09:  ES64L-G09RevE.01 30-Nov-2015

 ----------------------------------------------------------------------
 #rhf/gen scf(symm,tight,novaracc,noincfock,fulldiag) stable(crhf) gues
 s=read geom=nocrowd test
 ----------------------------------------------------------------------

 hf stability analysis of h12 triangular lattice, y= 0.5860779187036555
 5 alpha= 30.750000000000000
 ----------------------------------------------------------------------
 Symbolic Z-matrix:
 Charge =  0 Multiplicity = 1

                         Standard orientation:
 ---------------------------------------------------------------------
 Center     Atomic      Atomic             Coordinates (Angstroms)
 Number     Number       Type             X           Y           Z
 ---------------------------------------------------------------------
      1          1           0        3.022075   -1.067720    0.000000
      2          1           0        3.022075   -2.213986    0.000000
      3          1           0        2.014716   -0.520769    0.000000
      4          1           0        2.014716   -1.667035    0.000000
      5          1           0        1.007358    0.026182    0.000000
      6          1           0        1.007358   -1.120084    0.000000
      7          1           0        0.000000    0.573133    0.000000
      8          1           0       -0.000000   -0.573133    0.000000
      9          1           0       -1.007358    1.120084   -0.000000
     10          1           0       -1.007358   -0.026182    0.000000
     11          1           0       -2.014716    1.667035   -0.000000
     12          1           0       -2.014716    0.520769    0.000000
     13          1           0       -3.022075    2.213986   -0.000000
     14          1           0       -3.022075    1.067720   -0.000000
 ---------------------------------------------------------------------

 SCF Done:  E(RHF) =  -6.84262918665     A.U. after   10 cycles
 E2 =    -0.1621351801D+00 EUMP2 =    -0.70047643667555D+01

 The electronic state is 1-AG.
 Alpha  occ. eigenvalues --   -0.87058  -0.80444  -0.70466  -0.55221  -0.39646
 Alpha  occ. eigenvalues --   -0.36581  -0.29733
 Alpha virt. eigenvalues --    0.00144   0.08603   0.19400   0.38624   0.42960
 Alpha virt. eigenvalues --    0.65100   0.66281

 Mulliken charges:
               1
     1  H    0.045975
     2  H    0.030788
     3  H   -0.118273
     4  H    0.072025
     5  H    0.116109
     6  H   -0.160488
     7  H    0.013865
     8  H    0.013865
     9  H   -0.160488
    10  H    0.116109
    11  H    0.072025
    12  H   -0.118273
    13  H    0.030788
    14  H    0.045975
 Sum of Mulliken charges =  -0.00000

 Dipole moment (field-independent basis, Debye):
    X=             -0.0000    Y=              0.0000    Z=              0.0000  Tot=              0.0000
 Quadrupole moment (field-independent basis, Debye-Ang):
   XX=            -16.5417   YY=            -19.8700   ZZ=            -18.1611
   XY=             -3.4291   XZ=              0.0000   YZ=              0.0000

 Normal termination of Gaussian 09 at Wed Feb 15 13:06:52 2017.
