 Gaussian 09, Revision E.01,
 Gaussian 09:  ES64L-G09RevE.01 30-Nov-2015

 ----------------------------------------------------------------------
 #rhf/gen scf(symm,tight,novaracc,noincfock,fulldiag) stable(crhf) gues
 s=read geom=nocrowd test
 ----------------------------------------------------------------------

 hf stability analysis of h12 triangular lattice, y= 0.6064756379129316
 9 alpha= 32.500000000000000
 ----------------------------------------------------------------------
 Symbolic Z-matrix:
 Charge =  0 Multiplicity = 1

                         Standard orientation:
 ---------------------------------------------------------------------
 Center     Atomic      Atomic             Coordinates (Angstroms)
 Number     Number       Type             X           Y           Z
 ---------------------------------------------------------------------
      1          1           0        3.068978   -0.866714    0.000000
      2          1           0        3.068978   -1.995462    0.000000
      3          1           0        2.045985   -0.389685    0.000000
      4          1           0        2.045985   -1.518432    0.000000
      5          1           0        1.022993    0.087344    0.000000
      6          1           0        1.022993   -1.041403    0.000000
      7          1           0       -0.000000    0.564374    0.000000
      8          1           0       -0.000000   -0.564374    0.000000
      9          1           0       -1.022993    1.041403   -0.000000
     10          1           0       -1.022993   -0.087344   -0.000000
     11          1           0       -2.045985    1.518432   -0.000000
     12          1           0       -2.045985    0.389685   -0.000000
     13          1           0       -3.068978    1.995462   -0.000000
     14          1           0       -3.068978    0.866714   -0.000000
 ---------------------------------------------------------------------

 SCF Done:  E(RHF) =  -6.86247253882     A.U. after   10 cycles
 E2 =    -0.1603361040D+00 EUMP2 =    -0.70228086428158D+01

 The electronic state is 1-AG.
 Alpha  occ. eigenvalues --   -0.87654  -0.80955  -0.70527  -0.55068  -0.41208
 Alpha  occ. eigenvalues --   -0.36188  -0.31213
 Alpha virt. eigenvalues --   -0.00065   0.09575   0.19373   0.40361   0.43153
 Alpha virt. eigenvalues --    0.65857   0.72103

 Mulliken charges:
               1
     1  H    0.050719
     2  H    0.019235
     3  H   -0.112639
     4  H    0.065310
     5  H    0.109052
     6  H   -0.143151
     7  H    0.011474
     8  H    0.011474
     9  H   -0.143151
    10  H    0.109052
    11  H    0.065310
    12  H   -0.112639
    13  H    0.019235
    14  H    0.050719
 Sum of Mulliken charges =  -0.00000

 Dipole moment (field-independent basis, Debye):
    X=             -0.0000    Y=             -0.0000    Z=             -0.0000  Tot=              0.0000
 Quadrupole moment (field-independent basis, Debye-Ang):
   XX=            -17.0734   YY=            -20.6146   ZZ=            -18.1222
   XY=             -2.4064   XZ=              0.0000   YZ=             -0.0000

 Normal termination of Gaussian 09 at Wed Feb 15 13:07:11 2017.
