 Gaussian 09, Revision E.01,
 Gaussian 09:  ES64L-G09RevE.01 30-Nov-2015

 ----------------------------------------------------------------------
 #rhf/gen scf(symm,tight,novaracc,noincfock,fulldiag) stable(crhf) gues
 s=read geom=nocrowd test
 ----------------------------------------------------------------------

 hf stability analysis of h12 triangular lattice, y= 0.7631583969428945
 6 alpha= 45.250000000000000
 ----------------------------------------------------------------------
 Symbolic Z-matrix:
 Charge =  0 Multiplicity = 1

                         Standard orientation:
 ---------------------------------------------------------------------
 Center     Atomic      Atomic             Coordinates (Angstroms)
 Number     Number       Type             X           Y           Z
 ---------------------------------------------------------------------
      1          1           0        3.223648    0.565428    0.000000
      2          1           0        3.223648   -0.509163    0.000000
      3          1           0        2.149099    0.556050    0.000000
      4          1           0        2.149099   -0.518540    0.000000
      5          1           0        1.074549    0.546673    0.000000
      6          1           0        1.074549   -0.527918    0.000000
      7          1           0        0.000000    0.537295    0.000000
      8          1           0       -0.000000   -0.537295    0.000000
      9          1           0       -1.074549    0.527918   -0.000000
     10          1           0       -1.074549   -0.546673   -0.000000
     11          1           0       -2.149099    0.518540   -0.000000
     12          1           0       -2.149099   -0.556050   -0.000000
     13          1           0       -3.223648    0.509163   -0.000000
     14          1           0       -3.223648   -0.565428   -0.000000
 ---------------------------------------------------------------------

 SCF Done:  E(RHF) =  -6.89765357111     A.U. after    8 cycles
 E2 =    -0.1578045799D+00 EUMP2 =    -0.70554581510216D+01

 The electronic state is 1-AG.
 Alpha  occ. eigenvalues --   -0.89412  -0.82503  -0.70466  -0.54377  -0.46130
 Alpha  occ. eigenvalues --   -0.36474  -0.34100
 Alpha virt. eigenvalues --   -0.01668   0.14626   0.18331   0.42169   0.45231
 Alpha virt. eigenvalues --    0.72707   1.00027

 Mulliken charges:
               1
     1  H    0.021253
     2  H    0.023239
     3  H   -0.023219
     4  H   -0.027714
     5  H    0.002565
     6  H    0.008455
     7  H   -0.004578
     8  H   -0.004578
     9  H    0.008455
    10  H    0.002565
    11  H   -0.027714
    12  H   -0.023219
    13  H    0.023239
    14  H    0.021253
 Sum of Mulliken charges =  -0.00000

 Dipole moment (field-independent basis, Debye):
    X=             -0.0000    Y=              0.0000    Z=             -0.0000  Tot=              0.0000
 Quadrupole moment (field-independent basis, Debye-Ang):
   XX=            -19.5297   YY=            -21.2265   ZZ=            -17.9784
   XY=              0.0025   XZ=             -0.0000   YZ=              0.0000

 Normal termination of Gaussian 09 at Wed Feb 15 13:09:31 2017.
