 Gaussian 09, Revision E.01,
 Gaussian 09:  ES64L-G09RevE.01 30-Nov-2015

 ----------------------------------------------------------------------
 #rhf/gen scf(symm,tight,novaracc,noincfock,fulldiag) stable(crhf) gues
 s=read geom=nocrowd test
 ----------------------------------------------------------------------

 hf stability analysis of h12 triangular lattice, y= 0.9038427858540303
 3 alpha= 54.750000000000000
 ----------------------------------------------------------------------
 Symbolic Z-matrix:
 Charge =  0 Multiplicity = 1

                         Standard orientation:
 ---------------------------------------------------------------------
 Center     Atomic      Atomic             Coordinates (Angstroms)
 Number     Number       Type             X           Y           Z
 ---------------------------------------------------------------------
      1          1           0        3.129891    1.661743   -0.000000
      2          1           0        3.129891    0.554962   -0.000000
      3          1           0        2.086594    1.292292   -0.000000
      4          1           0        2.086594    0.185512   -0.000000
      5          1           0        1.043297    0.922841   -0.000000
      6          1           0        1.043297   -0.183939   -0.000000
      7          1           0       -0.000000    0.553390    0.000000
      8          1           0       -0.000000   -0.553390   -0.000000
      9          1           0       -1.043297    0.183939   -0.000000
     10          1           0       -1.043297   -0.922841   -0.000000
     11          1           0       -2.086594   -0.185512   -0.000000
     12          1           0       -2.086594   -1.292292   -0.000000
     13          1           0       -3.129891   -0.554962   -0.000000
     14          1           0       -3.129891   -1.661743   -0.000000
 ---------------------------------------------------------------------

 SCF Done:  E(RHF) =  -6.88188746812     A.U. after   10 cycles
 E2 =    -0.1586626701D+00 EUMP2 =    -0.70405501382383D+01

 The electronic state is 1-AG.
 Alpha  occ. eigenvalues --   -0.88389  -0.81592  -0.70557  -0.54836  -0.43187
 Alpha  occ. eigenvalues --   -0.35710  -0.33019
 Alpha virt. eigenvalues --   -0.00608   0.11286   0.19100   0.42575   0.42978
 Alpha virt. eigenvalues --    0.67597   0.81341

 Mulliken charges:
               1
     1  H    0.008120
     2  H    0.052206
     3  H    0.051533
     4  H   -0.100016
     5  H   -0.113390
     6  H    0.094710
     7  H    0.006836
     8  H    0.006836
     9  H    0.094710
    10  H   -0.113390
    11  H   -0.100016
    12  H    0.051533
    13  H    0.052206
    14  H    0.008120
 Sum of Mulliken charges =   0.00000

 Dipole moment (field-independent basis, Debye):
    X=             -0.0000    Y=              0.0000    Z=             -0.0000  Tot=              0.0000
 Quadrupole moment (field-independent basis, Debye-Ang):
   XX=            -17.9111   YY=            -21.2014   ZZ=            -18.0686
   XY=              1.2189   XZ=              0.0000   YZ=             -0.0000

 Normal termination of Gaussian 09 at Wed Feb 15 13:11:19 2017.
