 Gaussian 09, Revision E.01,
 Gaussian 09:  ES64L-G09RevE.01 30-Nov-2015

 ----------------------------------------------------------------------
 #rhf/gen scf(symm,tight,novaracc,noincfock,fulldiag) stable(crhf) gues
 s=read geom=nocrowd test
 ----------------------------------------------------------------------

 hf stability analysis of h12 triangular lattice, y= 1.8330252138232914
  alpha= 80.250000000000000
 ----------------------------------------------------------------------
 Symbolic Z-matrix:
 Charge =  0 Multiplicity = 1

                         Standard orientation:
 ---------------------------------------------------------------------
 Center     Atomic      Atomic             Coordinates (Angstroms)
 Number     Number       Type             X           Y           Z
 ---------------------------------------------------------------------
      1          1           0        1.862531    6.189571    0.000000
      2          1           0        1.862531    4.329682    0.000000
      3          1           0        1.241688    4.436362    0.000000
      4          1           0        1.241688    2.576473    0.000000
      5          1           0        0.620844    2.683154    0.000000
      6          1           0        0.620844    0.823264    0.000000
      7          1           0        0.000000    0.929945    0.000000
      8          1           0       -0.000000   -0.929945    0.000000
      9          1           0       -0.620844   -0.823264    0.000000
     10          1           0       -0.620844   -2.683154    0.000000
     11          1           0       -1.241688   -2.576473    0.000000
     12          1           0       -1.241688   -4.436362    0.000000
     13          1           0       -1.862531   -4.329682    0.000000
     14          1           0       -1.862531   -6.189571    0.000000
 ---------------------------------------------------------------------

 SCF Done:  E(RHF) =  -6.97111772288     A.U. after    5 cycles
 E2 =    -0.1087314219D+01 EUMP2 =    -0.80584319423500D+01

 The electronic state is 1-AG.
 Alpha  occ. eigenvalues --   -0.73910  -0.72318  -0.69261  -0.65259  -0.60790
 Alpha  occ. eigenvalues --   -0.56559  -0.18158
 Alpha virt. eigenvalues --   -0.14026   0.34634   0.38683   0.45590   0.54247
 Alpha virt. eigenvalues --    0.63083   0.70113

 Mulliken charges:
               1
     1  H   -0.013902
     2  H    0.005504
     3  H    0.006493
     4  H   -0.000460
     5  H    0.002142
     6  H   -0.000100
     7  H    0.000322
     8  H    0.000322
     9  H   -0.000100
    10  H    0.002142
    11  H   -0.000460
    12  H    0.006493
    13  H    0.005504
    14  H   -0.013902
 Sum of Mulliken charges =  -0.00000

 Dipole moment (field-independent basis, Debye):
    X=              0.0000    Y=              0.0000    Z=             -0.0000  Tot=              0.0000
 Quadrupole moment (field-independent basis, Debye-Ang):
   XX=            -17.1618   YY=            -26.8058   ZZ=            -18.3650
   XY=             -2.8731   XZ=             -0.0000   YZ=             -0.0000

 Normal termination of Gaussian 09 at Wed Feb 15 13:15:56 2017.
