 Gaussian 09, Revision E.01,
 Gaussian 09:  ES64L-G09RevE.01 30-Nov-2015

 ----------------------------------------------------------------------
 #rhf/gen scf(symm,tight,novaracc,noincfock,fulldiag) stable(crhf) gues
 s=read geom=nocrowd test
 ----------------------------------------------------------------------

 hf stability analysis of h12 triangular lattice, y= 0.6686047848167678
 8 alpha= 37.750000000000000
 ----------------------------------------------------------------------
 Symbolic Z-matrix:
 Charge =  0 Multiplicity = 1

                         Standard orientation:
 ---------------------------------------------------------------------
 Center     Atomic      Atomic             Coordinates (Angstroms)
 Number     Number       Type             X           Y           Z
 ---------------------------------------------------------------------
      1          1           0        3.171953   -0.274271   -0.000000
      2          1           0        3.171953   -1.366375   -0.000000
      3          1           0        2.114635   -0.000830   -0.000000
      4          1           0        2.114635   -1.092934   -0.000000
      5          1           0        1.057318    0.272611    0.000000
      6          1           0        1.057318   -0.819493   -0.000000
      7          1           0        0.000000    0.546052    0.000000
      8          1           0       -0.000000   -0.546052    0.000000
      9          1           0       -1.057318    0.819493   -0.000000
     10          1           0       -1.057318   -0.272611    0.000000
     11          1           0       -2.114635    1.092934    0.000000
     12          1           0       -2.114635    0.000830    0.000000
     13          1           0       -3.171953    1.366375    0.000000
     14          1           0       -3.171953    0.274271    0.000000
 ---------------------------------------------------------------------

 SCF Done:  E(RHF) =  -6.89108654247     A.U. after   10 cycles
 E2 =    -0.1579942642D+00 EUMP2 =    -0.70490808066830D+01

 The electronic state is 1-AG.
 Alpha  occ. eigenvalues --   -0.88866  -0.82011  -0.70538  -0.54648  -0.44521
 Alpha  occ. eigenvalues --   -0.35610  -0.33980
 Alpha virt. eigenvalues --   -0.01072   0.12692   0.18797   0.42678   0.43919
 Alpha virt. eigenvalues --    0.69470   0.88957

 Mulliken charges:
               1
     1  H    0.048404
     2  H    0.004918
     3  H   -0.084741
     4  H    0.035365
     5  H    0.077526
     6  H   -0.083933
     7  H    0.002461
     8  H    0.002461
     9  H   -0.083933
    10  H    0.077526
    11  H    0.035365
    12  H   -0.084741
    13  H    0.004918
    14  H    0.048404
 Sum of Mulliken charges =   0.00000

 Dipole moment (field-independent basis, Debye):
    X=              0.0000    Y=              0.0000    Z=              0.0000  Tot=              0.0000
 Quadrupole moment (field-independent basis, Debye-Ang):
   XX=            -18.5875   YY=            -21.3476   ZZ=            -18.0293
   XY=             -0.5444   XZ=              0.0000   YZ=              0.0000

 Normal termination of Gaussian 09 at Wed Feb 15 13:08:09 2017.
