 Gaussian 09, Revision E.01,
 Gaussian 09:  ES64L-G09RevE.01 30-Nov-2015

 ----------------------------------------------------------------------
 #rhf/gen scf(symm,tight,novaracc,noincfock,fulldiag) stable(crhf) gues
 s=read geom=nocrowd test
 ----------------------------------------------------------------------

 hf stability analysis of h12 triangular lattice, y= 0.6807147699477958
 9 alpha= 38.750000000000000
 ----------------------------------------------------------------------
 Symbolic Z-matrix:
 Charge =  0 Multiplicity = 1

                         Standard orientation:
 ---------------------------------------------------------------------
 Center     Atomic      Atomic             Coordinates (Angstroms)
 Number     Number       Type             X           Y           Z
 ---------------------------------------------------------------------
      1          1           0        3.185273   -0.162390    0.000000
      2          1           0        3.185273   -1.249926    0.000000
      3          1           0        2.123515    0.072996    0.000000
      4          1           0        2.123515   -1.014540    0.000000
      5          1           0        1.061758    0.308382    0.000000
      6          1           0        1.061758   -0.779154    0.000000
      7          1           0        0.000000    0.543768    0.000000
      8          1           0       -0.000000   -0.543768    0.000000
      9          1           0       -1.061758    0.779154   -0.000000
     10          1           0       -1.061758   -0.308382   -0.000000
     11          1           0       -2.123515    1.014540   -0.000000
     12          1           0       -2.123515   -0.072996   -0.000000
     13          1           0       -3.185273    1.249926   -0.000000
     14          1           0       -3.185273    0.162390   -0.000000
 ---------------------------------------------------------------------

 SCF Done:  E(RHF) =  -6.89328000951     A.U. after   10 cycles
 E2 =    -0.1578747169D+00 EUMP2 =    -0.70511547263988D+01

 The electronic state is 1-AG.
 Alpha  occ. eigenvalues --   -0.89011  -0.82141  -0.70525  -0.54583  -0.44939
 Alpha  occ. eigenvalues --   -0.35717  -0.34134
 Alpha virt. eigenvalues --   -0.01225   0.13169   0.18686   0.42561   0.44296
 Alpha virt. eigenvalues --    0.70199   0.91613

 Mulliken charges:
               1
     1  H    0.045795
     2  H    0.005268
     3  H   -0.077711
     4  H    0.027997
     5  H    0.069485
     6  H   -0.071675
     7  H    0.000840
     8  H    0.000840
     9  H   -0.071675
    10  H    0.069485
    11  H    0.027997
    12  H   -0.077711
    13  H    0.005268
    14  H    0.045795
 Sum of Mulliken charges =   0.00000

 Dipole moment (field-independent basis, Debye):
    X=              0.0000    Y=              0.0000    Z=             -0.0000  Tot=              0.0000
 Quadrupole moment (field-independent basis, Debye-Ang):
   XX=            -18.8185   YY=            -21.3486   ZZ=            -18.0165
   XY=             -0.3669   XZ=             -0.0000   YZ=             -0.0000

 Normal termination of Gaussian 09 at Wed Feb 15 13:08:20 2017.
