 Gaussian 09, Revision E.01,
 Gaussian 09:  ES64L-G09RevE.01 30-Nov-2015

 ----------------------------------------------------------------------
 #rhf/gen scf(symm,tight,novaracc,noincfock,fulldiag) stable(crhf) gues
 s=read geom=nocrowd test
 ----------------------------------------------------------------------

 hf stability analysis of h12 triangular lattice, y= 0.6123199016056329
 9 alpha= 33.000000000000000
 ----------------------------------------------------------------------
 Symbolic Z-matrix:
 Charge =  0 Multiplicity = 1

                         Standard orientation:
 ---------------------------------------------------------------------
 Center     Atomic      Atomic             Coordinates (Angstroms)
 Number     Number       Type             X           Y           Z
 ---------------------------------------------------------------------
      1          1           0        3.081208   -0.809709    0.000000
      2          1           0        3.081208   -1.933976    0.000000
      3          1           0        2.054139   -0.352428    0.000000
      4          1           0        2.054139   -1.476695    0.000000
      5          1           0        1.027069    0.104853    0.000000
      6          1           0        1.027069   -1.019414    0.000000
      7          1           0        0.000000    0.562134    0.000000
      8          1           0       -0.000000   -0.562134   -0.000000
      9          1           0       -1.027069    1.019414    0.000000
     10          1           0       -1.027069   -0.104853    0.000000
     11          1           0       -2.054139    1.476695    0.000000
     12          1           0       -2.054139    0.352428    0.000000
     13          1           0       -3.081208    1.933976    0.000000
     14          1           0       -3.081208    0.809709    0.000000
 ---------------------------------------------------------------------

 SCF Done:  E(RHF) =  -6.86694747304     A.U. after   10 cycles
 E2 =    -0.1599378297D+00 EUMP2 =    -0.70268853027295D+01

 The electronic state is 1-AG.
 Alpha  occ. eigenvalues --   -0.87805  -0.81086  -0.70538  -0.55024  -0.41610
 Alpha  occ. eigenvalues --   -0.36085  -0.31589
 Alpha virt. eigenvalues --   -0.00155   0.09882   0.19337   0.40818   0.43149
 Alpha virt. eigenvalues --    0.66129   0.73802

 Mulliken charges:
               1
     1  H    0.051498
     2  H    0.016584
     3  H   -0.110684
     4  H    0.063115
     5  H    0.106768
     6  H   -0.137969
     7  H    0.010688
     8  H    0.010688
     9  H   -0.137969
    10  H    0.106768
    11  H    0.063115
    12  H   -0.110684
    13  H    0.016584
    14  H    0.051498
 Sum of Mulliken charges =  -0.00000

 Dipole moment (field-independent basis, Debye):
    X=              0.0000    Y=              0.0000    Z=              0.0000  Tot=              0.0000
 Quadrupole moment (field-independent basis, Debye-Ang):
   XX=            -17.2283   YY=            -20.7673   ZZ=            -18.1117
   XY=             -2.1529   XZ=             -0.0000   YZ=             -0.0000

 Normal termination of Gaussian 09 at Wed Feb 15 13:07:17 2017.
