 Gaussian 09, Revision E.01,
 Gaussian 09:  ES64L-G09RevE.01 30-Nov-2015

 ----------------------------------------------------------------------
 #rhf/gen scf(symm,tight,novaracc,noincfock,fulldiag) stable(crhf) gues
 s=read geom=nocrowd test
 ----------------------------------------------------------------------

 hf stability analysis of h12 triangular lattice, y= 0.4646099728787273
 0 alpha= 20.500000000000000
 ----------------------------------------------------------------------
 Symbolic Z-matrix:
 Charge =  0 Multiplicity = 1

                         Standard orientation:
 ---------------------------------------------------------------------
 Center     Atomic      Atomic             Coordinates (Angstroms)
 Number     Number       Type             X           Y           Z
 ---------------------------------------------------------------------
      1          1           0        2.611123   -2.340418    0.000000
      2          1           0        2.611123   -3.667089    0.000000
      3          1           0        1.740749   -1.339167    0.000000
      4          1           0        1.740749   -2.665838    0.000000
      5          1           0        0.870374   -0.337916    0.000000
      6          1           0        0.870374   -1.664587    0.000000
      7          1           0        0.000000    0.663335   -0.000000
      8          1           0       -0.000000   -0.663335   -0.000000
      9          1           0       -0.870374    1.664587    0.000000
     10          1           0       -0.870374    0.337916   -0.000000
     11          1           0       -1.740749    2.665838    0.000000
     12          1           0       -1.740749    1.339167    0.000000
     13          1           0       -2.611123    3.667089    0.000000
     14          1           0       -2.611123    2.340418    0.000000
 ---------------------------------------------------------------------

 SCF Done:  E(RHF) =  -6.58490708732     A.U. after   12 cycles
 E2 =    -0.2311066386D+00 EUMP2 =    -0.68160137259477D+01

 The electronic state is 1-AG.
 Alpha  occ. eigenvalues --   -0.82726  -0.77203  -0.70094  -0.58630  -0.43215
 Alpha  occ. eigenvalues --   -0.27723  -0.11099
 Alpha virt. eigenvalues --   -0.01431   0.10258   0.12867   0.22767   0.35798
 Alpha virt. eigenvalues --    0.52581   0.62321

 Mulliken charges:
               1
     1  H   -0.016407
     2  H   -0.132559
     3  H   -0.078790
     4  H    0.177739
     5  H    0.108132
     6  H   -0.091705
     7  H    0.033590
     8  H    0.033590
     9  H   -0.091705
    10  H    0.108132
    11  H    0.177739
    12  H   -0.078790
    13  H   -0.132559
    14  H   -0.016407
 Sum of Mulliken charges =   0.00000

 Dipole moment (field-independent basis, Debye):
    X=             -0.0000    Y=              0.0000    Z=             -0.0000  Tot=              0.0000
 Quadrupole moment (field-independent basis, Debye-Ang):
   XX=            -26.6544   YY=            -32.0566   ZZ=            -17.8690
   XY=             11.2349   XZ=              0.0000   YZ=             -0.0000

 Normal termination of Gaussian 09 at Wed Feb 15 13:04:57 2017.
