 Gaussian 09, Revision E.01,
 Gaussian 09:  ES64L-G09RevE.01 30-Nov-2015

 ----------------------------------------------------------------------
 #rhf/gen scf(symm,tight,novaracc,noincfock,fulldiag) stable(crhf) gues
 s=read geom=nocrowd test
 ----------------------------------------------------------------------

 hf stability analysis of h12 triangular lattice, y= 1.1002000313062268
  alpha= 64.500000000000000
 ----------------------------------------------------------------------
 Symbolic Z-matrix:
 Charge =  0 Multiplicity = 1

                         Standard orientation:
 ---------------------------------------------------------------------
 Center     Atomic      Atomic             Coordinates (Angstroms)
 Number     Number       Type             X           Y           Z
 ---------------------------------------------------------------------
      1          1           0        2.841890    2.910789   -0.000000
      2          1           0        2.841890    1.691846   -0.000000
      3          1           0        1.894593    2.143683   -0.000000
      4          1           0        1.894593    0.924740   -0.000000
      5          1           0        0.947297    1.376577   -0.000000
      6          1           0        0.947297    0.157634   -0.000000
      7          1           0       -0.000000    0.609472   -0.000000
      8          1           0       -0.000000   -0.609472   -0.000000
      9          1           0       -0.947297   -0.157634    0.000000
     10          1           0       -0.947297   -1.376577   -0.000000
     11          1           0       -1.894593   -0.924740   -0.000000
     12          1           0       -1.894593   -2.143683   -0.000000
     13          1           0       -2.841890   -1.691846   -0.000000
     14          1           0       -2.841890   -2.910789   -0.000000
 ---------------------------------------------------------------------

 SCF Done:  E(RHF) =  -6.72725791718     A.U. after   11 cycles
 E2 =    -0.1728642323D+00 EUMP2 =    -0.69001221494293D+01

 The electronic state is 1-AG.
 Alpha  occ. eigenvalues --   -0.84638  -0.78353  -0.69979  -0.55679  -0.37980
 Alpha  occ. eigenvalues --   -0.33332  -0.23735
 Alpha virt. eigenvalues --   -0.01885   0.08505   0.17144   0.34103   0.36593
 Alpha virt. eigenvalues --    0.54772   0.64574

 Mulliken charges:
               1
     1  H    0.084770
     2  H    0.007038
     3  H    0.089565
     4  H   -0.124355
     5  H   -0.207049
     6  H    0.138126
     7  H    0.011905
     8  H    0.011905
     9  H    0.138126
    10  H   -0.207049
    11  H   -0.124355
    12  H    0.089565
    13  H    0.007038
    14  H    0.084770
 Sum of Mulliken charges =  -0.00000

 Dipole moment (field-independent basis, Debye):
    X=             -0.0000    Y=             -0.0000    Z=             -0.0000  Tot=              0.0000
 Quadrupole moment (field-independent basis, Debye-Ang):
   XX=            -15.5392   YY=            -14.8975   ZZ=            -18.2896
   XY=              7.5340   XZ=              0.0000   YZ=             -0.0000

 Normal termination of Gaussian 09 at Wed Feb 15 13:13:07 2017.
