 Gaussian 09, Revision E.01,
 Gaussian 09:  ES64L-G09RevE.01 30-Nov-2015

 ----------------------------------------------------------------------
 #rhf/gen scf(symm,tight,novaracc,noincfock,fulldiag) stable(crhf) gues
 s=read geom=nocrowd test
 ----------------------------------------------------------------------

 hf stability analysis of h12 triangular lattice, y= 0.6746452920691223
 8 alpha= 38.250000000000000
 ----------------------------------------------------------------------
 Symbolic Z-matrix:
 Charge =  0 Multiplicity = 1

                         Standard orientation:
 ---------------------------------------------------------------------
 Center     Atomic      Atomic             Coordinates (Angstroms)
 Number     Number       Type             X           Y           Z
 ---------------------------------------------------------------------
      1          1           0        3.178862   -0.218312    0.000000
      2          1           0        3.178862   -1.308042    0.000000
      3          1           0        2.119241    0.036080    0.000000
      4          1           0        2.119241   -1.053650    0.000000
      5          1           0        1.059621    0.290473    0.000000
      6          1           0        1.059621   -0.799257    0.000000
      7          1           0       -0.000000    0.544865   -0.000000
      8          1           0       -0.000000   -0.544865   -0.000000
      9          1           0       -1.059621    0.799257    0.000000
     10          1           0       -1.059621   -0.290473    0.000000
     11          1           0       -2.119241    1.053650    0.000000
     12          1           0       -2.119241   -0.036080    0.000000
     13          1           0       -3.178862    1.308042    0.000000
     14          1           0       -3.178862    0.218312    0.000000
 ---------------------------------------------------------------------

 SCF Done:  E(RHF) =  -6.89226761117     A.U. after   10 cycles
 E2 =    -0.1579264402D+00 EUMP2 =    -0.70501940513678D+01

 The electronic state is 1-AG.
 Alpha  occ. eigenvalues --   -0.88941  -0.82079  -0.70532  -0.54615  -0.44738
 Alpha  occ. eigenvalues --   -0.35653  -0.34072
 Alpha virt. eigenvalues --   -0.01151   0.12938   0.18740   0.42619   0.44118
 Alpha virt. eigenvalues --    0.69839   0.90319

 Mulliken charges:
               1
     1  H    0.047167
     2  H    0.004986
     3  H   -0.081287
     4  H    0.031741
     5  H    0.073589
     6  H   -0.077830
     7  H    0.001635
     8  H    0.001635
     9  H   -0.077830
    10  H    0.073589
    11  H    0.031741
    12  H   -0.081287
    13  H    0.004986
    14  H    0.047167
 Sum of Mulliken charges =  -0.00000

 Dipole moment (field-independent basis, Debye):
    X=             -0.0000    Y=              0.0000    Z=              0.0000  Tot=              0.0000
 Quadrupole moment (field-independent basis, Debye-Ang):
   XX=            -18.7063   YY=            -21.3509   ZZ=            -18.0227
   XY=             -0.4497   XZ=              0.0000   YZ=              0.0000

 Normal termination of Gaussian 09 at Wed Feb 15 13:08:15 2017.
