 Gaussian 09, Revision E.01,
 Gaussian 09:  ES64L-G09RevE.01 30-Nov-2015

 ----------------------------------------------------------------------
 #rhf/gen scf(symm,tight,novaracc,noincfock,fulldiag) stable(crhf) gues
 s=read geom=nocrowd test
 ----------------------------------------------------------------------

 hf stability analysis of h12 triangular lattice, y= 0.4427008172522774
 5 alpha= 18.750000000000000
 ----------------------------------------------------------------------
 Symbolic Z-matrix:
 Charge =  0 Multiplicity = 1

                         Standard orientation:
 ---------------------------------------------------------------------
 Center     Atomic      Atomic             Coordinates (Angstroms)
 Number     Number       Type             X           Y           Z
 ---------------------------------------------------------------------
      1          1           0        2.515240   -2.589303    0.000000
      2          1           0        2.515240   -3.966547    0.000000
      3          1           0        1.676827   -1.496661    0.000000
      4          1           0        1.676827   -2.873906    0.000000
      5          1           0        0.838413   -0.404019    0.000000
      6          1           0        0.838413   -1.781264    0.000000
      7          1           0        0.000000    0.688622   -0.000000
      8          1           0       -0.000000   -0.688622   -0.000000
      9          1           0       -0.838413    1.781264    0.000000
     10          1           0       -0.838413    0.404019    0.000000
     11          1           0       -1.676827    2.873906    0.000000
     12          1           0       -1.676827    1.496661    0.000000
     13          1           0       -2.515240    3.966547    0.000000
     14          1           0       -2.515240    2.589303    0.000000
 ---------------------------------------------------------------------

 SCF Done:  E(RHF) =  -6.65350965846     A.U. after   11 cycles
 E2 =    -0.2986093265D+00 EUMP2 =    -0.69521189849567D+01

 The electronic state is 1-AG.
 Alpha  occ. eigenvalues --   -0.81477  -0.77068  -0.69933  -0.59559  -0.46526
 Alpha  occ. eigenvalues --   -0.31757  -0.08101
 Alpha virt. eigenvalues --    0.00656   0.08257   0.14250   0.24855   0.38461
 Alpha virt. eigenvalues --    0.52993   0.62977

 Mulliken charges:
               1
     1  H   -0.010439
     2  H   -0.198513
     3  H    0.020083
     4  H    0.151731
     5  H    0.030208
     6  H   -0.036678
     7  H    0.043608
     8  H    0.043608
     9  H   -0.036678
    10  H    0.030208
    11  H    0.151731
    12  H    0.020083
    13  H   -0.198513
    14  H   -0.010439
 Sum of Mulliken charges =  -0.00000

 Dipole moment (field-independent basis, Debye):
    X=              0.0000    Y=              0.0000    Z=             -0.0000  Tot=              0.0000
 Quadrupole moment (field-independent basis, Debye-Ang):
   XX=            -26.7145   YY=            -43.1418   ZZ=            -17.6803
   XY=             17.5793   XZ=              0.0000   YZ=             -0.0000

 Normal termination of Gaussian 09 at Wed Feb 15 13:04:39 2017.
