 Gaussian 09, Revision E.01,
 Gaussian 09:  ES64L-G09RevE.01 30-Nov-2015

 ----------------------------------------------------------------------
 #rhf/gen scf(symm,tight,novaracc,noincfock,fulldiag) stable(crhf) gues
 s=read geom=nocrowd test
 ----------------------------------------------------------------------

 hf stability analysis of h12 triangular lattice, y= 0.5335894054604231
 1 alpha= 26.250000000000000
 ----------------------------------------------------------------------
 Symbolic Z-matrix:
 Charge =  0 Multiplicity = 1

                         Standard orientation:
 ---------------------------------------------------------------------
 Center     Atomic      Atomic             Coordinates (Angstroms)
 Number     Number       Type             X           Y           Z
 ---------------------------------------------------------------------
      1          1           0        2.871371   -1.600066   -0.000000
      2          1           0        2.871371   -2.806494   -0.000000
      3          1           0        1.914247   -0.865640   -0.000000
      4          1           0        1.914247   -2.072067   -0.000000
      5          1           0        0.957124   -0.131213   -0.000000
      6          1           0        0.957124   -1.337641   -0.000000
      7          1           0        0.000000    0.603214    0.000000
      8          1           0       -0.000000   -0.603214    0.000000
      9          1           0       -0.957124    1.337641   -0.000000
     10          1           0       -0.957124    0.131213   -0.000000
     11          1           0       -1.914247    2.072067   -0.000000
     12          1           0       -1.914247    0.865640   -0.000000
     13          1           0       -2.871371    2.806494   -0.000000
     14          1           0       -2.871371    1.600066   -0.000000
 ---------------------------------------------------------------------

 SCF Done:  E(RHF) =  -6.75029743091     A.U. after   11 cycles
 E2 =    -0.1706792442D+00 EUMP2 =    -0.69209766751209D+01

 The electronic state is 1-AG.
 Alpha  occ. eigenvalues --   -0.85034  -0.78704  -0.70080  -0.55609  -0.37763
 Alpha  occ. eigenvalues --   -0.34396  -0.24743
 Alpha virt. eigenvalues --   -0.01293   0.08196   0.17804   0.34502   0.38330
 Alpha virt. eigenvalues --    0.55527   0.64525

 Mulliken charges:
               1
     1  H    0.015621
     2  H    0.075859
     3  H   -0.124309
     4  H    0.086257
     5  H    0.133225
     6  H   -0.200661
     7  H    0.014009
     8  H    0.014009
     9  H   -0.200661
    10  H    0.133225
    11  H    0.086257
    12  H   -0.124309
    13  H    0.075859
    14  H    0.015621
 Sum of Mulliken charges =   0.00000

 Dipole moment (field-independent basis, Debye):
    X=              0.0000    Y=             -0.0000    Z=             -0.0000  Tot=              0.0000
 Quadrupole moment (field-independent basis, Debye-Ang):
   XX=            -15.5610   YY=            -15.8980   ZZ=            -18.2713
   XY=             -6.9103   XZ=              0.0000   YZ=             -0.0000

 Normal termination of Gaussian 09 at Wed Feb 15 13:06:02 2017.
