 Gaussian 09, Revision E.01,
 Gaussian 09:  ES64L-G09RevE.01 30-Nov-2015

 ----------------------------------------------------------------------
 #rhf/gen scf(symm,tight,novaracc,noincfock,fulldiag) stable(crhf) gues
 s=read geom=nocrowd test
 ----------------------------------------------------------------------

 hf stability analysis of h12 triangular lattice, y= 1.3531893207273342
  alpha= 72.500000000000000
 ----------------------------------------------------------------------
 Symbolic Z-matrix:
 Charge =  0 Multiplicity = 1

                         Standard orientation:
 ---------------------------------------------------------------------
 Center     Atomic      Atomic             Coordinates (Angstroms)
 Number     Number       Type             X           Y           Z
 ---------------------------------------------------------------------
      1          1           0        2.441471    4.196211    0.000000
      2          1           0        2.441471    2.777353    0.000000
      3          1           0        1.627647    3.033951    0.000000
      4          1           0        1.627647    1.615092    0.000000
      5          1           0        0.813824    1.871690    0.000000
      6          1           0        0.813824    0.452832    0.000000
      7          1           0        0.000000    0.709429    0.000000
      8          1           0       -0.000000   -0.709429   -0.000000
      9          1           0       -0.813824   -0.452832   -0.000000
     10          1           0       -0.813824   -1.871690   -0.000000
     11          1           0       -1.627647   -1.615092   -0.000000
     12          1           0       -1.627647   -3.033951   -0.000000
     13          1           0       -2.441471   -2.777353   -0.000000
     14          1           0       -2.441471   -4.196211   -0.000000
 ---------------------------------------------------------------------

 SCF Done:  E(RHF) =  -6.73524072177     A.U. after   10 cycles
 E2 =    -0.4331934936D+00 EUMP2 =    -0.71684342154196D+01

 The electronic state is 1-AG.
 Alpha  occ. eigenvalues --   -0.80314  -0.76517  -0.69607  -0.60120  -0.48477
 Alpha  occ. eigenvalues --   -0.34923  -0.08515
 Alpha virt. eigenvalues --   -0.01030   0.10334   0.16606   0.27138   0.40327
 Alpha virt. eigenvalues --    0.53957   0.64097

 Mulliken charges:
               1
     1  H   -0.197360
     2  H    0.015869
     3  H    0.108944
     4  H    0.024600
     5  H    0.005689
     6  H    0.015560
     7  H    0.026697
     8  H    0.026697
     9  H    0.015560
    10  H    0.005689
    11  H    0.024600
    12  H    0.108944
    13  H    0.015869
    14  H   -0.197360
 Sum of Mulliken charges =  -0.00000

 Dipole moment (field-independent basis, Debye):
    X=              0.0000    Y=              0.0000    Z=              0.0000  Tot=              0.0000
 Quadrupole moment (field-independent basis, Debye-Ang):
   XX=            -24.8278   YY=            -46.2685   ZZ=            -17.6658
   XY=            -17.7405   XZ=             -0.0000   YZ=             -0.0000

 Normal termination of Gaussian 09 at Wed Feb 15 13:14:34 2017.
