 Gaussian 09, Revision E.01,
 Gaussian 09:  ES64L-G09RevE.01 30-Nov-2015

 ----------------------------------------------------------------------
 #rhf/gen scf(symm,tight,novaracc,noincfock,fulldiag) stable(crhf) gues
 s=read geom=nocrowd test
 ----------------------------------------------------------------------

 hf stability analysis of h12 triangular lattice, y= 0.3614429856522110
 0 alpha= 12.750000000000000
 ----------------------------------------------------------------------
 Symbolic Z-matrix:
 Charge =  0 Multiplicity = 1

                         Standard orientation:
 ---------------------------------------------------------------------
 Center     Atomic      Atomic             Coordinates (Angstroms)
 Number     Number       Type             X           Y           Z
 ---------------------------------------------------------------------
      1          1           0        2.115184   -3.615710   -0.000000
      2          1           0        2.115184   -5.253440   -0.000000
      3          1           0        1.410123   -2.137518   -0.000000
      4          1           0        1.410123   -3.775249   -0.000000
      5          1           0        0.705061   -0.659326   -0.000000
      6          1           0        0.705061   -2.297057   -0.000000
      7          1           0        0.000000    0.818865    0.000000
      8          1           0       -0.000000   -0.818865    0.000000
      9          1           0       -0.705061    2.297057   -0.000000
     10          1           0       -0.705061    0.659326   -0.000000
     11          1           0       -1.410123    3.775249   -0.000000
     12          1           0       -1.410123    2.137518   -0.000000
     13          1           0       -2.115184    5.253440   -0.000000
     14          1           0       -2.115184    3.615710   -0.000000
 ---------------------------------------------------------------------

 SCF Done:  E(RHF) =  -6.99566486607     A.U. after    7 cycles
 E2 =    -0.8559395701D+00 EUMP2 =    -0.78516044361937D+01

 The electronic state is 1-AG.
 Alpha  occ. eigenvalues --   -0.75470  -0.73237  -0.68592  -0.62391  -0.55040
 Alpha  occ. eigenvalues --   -0.47199  -0.15166
 Alpha virt. eigenvalues --   -0.10253   0.24217   0.28970   0.37541   0.48378
 Alpha virt. eigenvalues --    0.59591   0.68730

 Mulliken charges:
               1
     1  H    0.016028
     2  H   -0.058886
     3  H    0.001928
     4  H    0.029149
     5  H    0.000690
     6  H    0.008548
     7  H    0.002543
     8  H    0.002543
     9  H    0.008548
    10  H    0.000690
    11  H    0.029149
    12  H    0.001928
    13  H   -0.058886
    14  H    0.016028
 Sum of Mulliken charges =   0.00000

 Dipole moment (field-independent basis, Debye):
    X=             -0.0000    Y=             -0.0000    Z=              0.0000  Tot=              0.0000
 Quadrupole moment (field-independent basis, Debye-Ang):
   XX=            -18.1458   YY=            -34.0087   ZZ=            -18.0179
   XY=              6.9614   XZ=              0.0000   YZ=             -0.0000

 Normal termination of Gaussian 09 at Wed Feb 15 13:03:36 2017.
