 Gaussian 09, Revision E.01,
 Gaussian 09:  ES64L-G09RevE.01 30-Nov-2015

 ----------------------------------------------------------------------
 #rhf/gen scf(symm,tight,novaracc,noincfock,fulldiag) stable(crhf) gues
 s=read geom=nocrowd test
 ----------------------------------------------------------------------

 hf stability analysis of h12 triangular lattice, y= 1.0311871763068714
  alpha= 61.500000000000000
 ----------------------------------------------------------------------
 Symbolic Z-matrix:
 Charge =  0 Multiplicity = 1

                         Standard orientation:
 ---------------------------------------------------------------------
 Center     Atomic      Atomic             Coordinates (Angstroms)
 Number     Number       Type             X           Y           Z
 ---------------------------------------------------------------------
      1          1           0        2.952240    2.503897    0.000000
      2          1           0        2.952240    1.330517    0.000000
      3          1           0        1.968160    1.864828    0.000000
      4          1           0        1.968160    0.691448    0.000000
      5          1           0        0.984080    1.225759    0.000000
      6          1           0        0.984080    0.052379    0.000000
      7          1           0       -0.000000    0.586690    0.000000
      8          1           0       -0.000000   -0.586690    0.000000
      9          1           0       -0.984080   -0.052379    0.000000
     10          1           0       -0.984080   -1.225759    0.000000
     11          1           0       -1.968160   -0.691448    0.000000
     12          1           0       -1.968160   -1.864828    0.000000
     13          1           0       -2.952240   -1.330517    0.000000
     14          1           0       -2.952240   -2.503897    0.000000
 ---------------------------------------------------------------------

 SCF Done:  E(RHF) =  -6.80522690365     A.U. after   10 cycles
 E2 =    -0.1655738194D+00 EUMP2 =    -0.69708007230245D+01

 The electronic state is 1-AG.
 Alpha  occ. eigenvalues --   -0.86133  -0.79654  -0.70318  -0.55415  -0.37255
 Alpha  occ. eigenvalues --   -0.37147  -0.27458
 Alpha virt. eigenvalues --   -0.00111   0.07903   0.19024   0.36324   0.41750
 Alpha virt. eigenvalues --    0.59729   0.64587

 Mulliken charges:
               1
     1  H    0.050809
     2  H    0.034597
     3  H    0.079036
     4  H   -0.122754
     5  H   -0.181157
     6  H    0.123893
     7  H    0.015576
     8  H    0.015576
     9  H    0.123893
    10  H   -0.181157
    11  H   -0.122754
    12  H    0.079036
    13  H    0.034597
    14  H    0.050809
 Sum of Mulliken charges =   0.00000

 Dipole moment (field-independent basis, Debye):
    X=             -0.0000    Y=             -0.0000    Z=              0.0000  Tot=              0.0000
 Quadrupole moment (field-independent basis, Debye-Ang):
   XX=            -15.9374   YY=            -18.3104   ZZ=            -18.2152
   XY=              5.0441   XZ=             -0.0000   YZ=             -0.0000

 Normal termination of Gaussian 09 at Wed Feb 15 13:12:34 2017.
