 Gaussian 09, Revision E.01,
 Gaussian 09:  ES64L-G09RevE.01 30-Nov-2015

 ----------------------------------------------------------------------
 #rhf/gen scf(symm,tight,novaracc,noincfock,fulldiag) stable(crhf) gues
 s=read geom=nocrowd test
 ----------------------------------------------------------------------

 hf stability analysis of h12 triangular lattice, y= 1.3330047374615932
  alpha= 72.000000000000000
 ----------------------------------------------------------------------
 Symbolic Z-matrix:
 Charge =  0 Multiplicity = 1

                         Standard orientation:
 ---------------------------------------------------------------------
 Center     Atomic      Atomic             Coordinates (Angstroms)
 Number     Number       Type             X           Y           Z
 ---------------------------------------------------------------------
      1          1           0        2.471527    4.102567   -0.000000
      2          1           0        2.471527    2.700963   -0.000000
      3          1           0        1.647684    2.968645   -0.000000
      4          1           0        1.647684    1.567041   -0.000000
      5          1           0        0.823842    1.834724   -0.000000
      6          1           0        0.823842    0.433119   -0.000000
      7          1           0        0.000000    0.700802   -0.000000
      8          1           0       -0.000000   -0.700802    0.000000
      9          1           0       -0.823842   -0.433119    0.000000
     10          1           0       -0.823842   -1.834724    0.000000
     11          1           0       -1.647684   -1.567041    0.000000
     12          1           0       -1.647684   -2.968645    0.000000
     13          1           0       -2.471527   -2.700963    0.000000
     14          1           0       -2.471527   -4.102567    0.000000
 ---------------------------------------------------------------------

 SCF Done:  E(RHF) =  -6.70111200870     A.U. after   10 cycles
 E2 =    -0.3791748382D+00 EUMP2 =    -0.70802868468984D+01

 The electronic state is 1-AG.
 Alpha  occ. eigenvalues --   -0.80843  -0.76815  -0.69765  -0.59925  -0.47774
 Alpha  occ. eigenvalues --   -0.33701  -0.08123
 Alpha virt. eigenvalues --   -0.00143   0.09231   0.15577   0.26197   0.39566
 Alpha virt. eigenvalues --    0.53484   0.63567

 Mulliken charges:
               1
     1  H   -0.204647
     2  H    0.007659
     3  H    0.124726
     4  H    0.026098
     5  H   -0.006463
     6  H    0.019735
     7  H    0.032892
     8  H    0.032892
     9  H    0.019735
    10  H   -0.006463
    11  H    0.026098
    12  H    0.124726
    13  H    0.007659
    14  H   -0.204647
 Sum of Mulliken charges =  -0.00000

 Dipole moment (field-independent basis, Debye):
    X=             -0.0000    Y=              0.0000    Z=             -0.0000  Tot=              0.0000
 Quadrupole moment (field-independent basis, Debye-Ang):
   XX=            -25.7265   YY=            -45.8719   ZZ=            -17.6583
   XY=            -18.2225   XZ=              0.0000   YZ=              0.0000

 Normal termination of Gaussian 09 at Wed Feb 15 13:14:28 2017.
