 Gaussian 09, Revision E.01,
 Gaussian 09:  ES64L-G09RevE.01 30-Nov-2015

 ----------------------------------------------------------------------
 #rhf/gen scf(symm,tight,novaracc,noincfock,fulldiag) stable(crhf) gues
 s=read geom=nocrowd test
 ----------------------------------------------------------------------

 hf stability analysis of h12 triangular lattice, y= 0.4521619835073459
 3 alpha= 19.500000000000000
 ----------------------------------------------------------------------
 Symbolic Z-matrix:
 Charge =  0 Multiplicity = 1

                         Standard orientation:
 ---------------------------------------------------------------------
 Center     Atomic      Atomic             Coordinates (Angstroms)
 Number     Number       Type             X           Y           Z
 ---------------------------------------------------------------------
      1          1           0        2.557360   -2.480796   -0.000000
      2          1           0        2.557360   -3.835357   -0.000000
      3          1           0        1.704907   -1.428103   -0.000000
      4          1           0        1.704907   -2.782665   -0.000000
      5          1           0        0.852453   -0.375411   -0.000000
      6          1           0        0.852453   -1.729973    0.000000
      7          1           0        0.000000    0.677281   -0.000000
      8          1           0       -0.000000   -0.677281    0.000000
      9          1           0       -0.852453    1.729973   -0.000000
     10          1           0       -0.852453    0.375411   -0.000000
     11          1           0       -1.704907    2.782665   -0.000000
     12          1           0       -1.704907    1.428103   -0.000000
     13          1           0       -2.557360    3.835357   -0.000000
     14          1           0       -2.557360    2.480796   -0.000000
 ---------------------------------------------------------------------

 SCF Done:  E(RHF) =  -6.61524970710     A.U. after   11 cycles
 E2 =    -0.2468062029D+00 EUMP2 =    -0.68620559100329D+01

 The electronic state is 1-AG.
 Alpha  occ. eigenvalues --   -0.81950  -0.77106  -0.70014  -0.59119  -0.45059
 Alpha  occ. eigenvalues --   -0.29802  -0.08934
 Alpha virt. eigenvalues --    0.00357   0.08618   0.13268   0.23627   0.37341
 Alpha virt. eigenvalues --    0.52776   0.62662

 Mulliken charges:
               1
     1  H   -0.026445
     2  H   -0.170960
     3  H   -0.006036
     4  H    0.174486
     5  H    0.051242
     6  H   -0.072824
     7  H    0.050537
     8  H    0.050537
     9  H   -0.072824
    10  H    0.051242
    11  H    0.174486
    12  H   -0.006036
    13  H   -0.170960
    14  H   -0.026445
 Sum of Mulliken charges =  -0.00000

 Dipole moment (field-independent basis, Debye):
    X=             -0.0000    Y=             -0.0000    Z=              0.0000  Tot=              0.0000
 Quadrupole moment (field-independent basis, Debye-Ang):
   XX=            -27.0171   YY=            -38.1361   ZZ=            -17.7501
   XY=             15.1238   XZ=             -0.0000   YZ=              0.0000

 Normal termination of Gaussian 09 at Wed Feb 15 13:04:47 2017.
