 Gaussian 09, Revision E.01,
 Gaussian 09:  ES64L-G09RevE.01 30-Nov-2015

 ----------------------------------------------------------------------
 #rhf/gen scf(symm,tight,novaracc,noincfock,fulldiag) stable(crhf) gues
 s=read geom=nocrowd test
 ----------------------------------------------------------------------

 hf stability analysis of h12 triangular lattice, y= 0.8078216382370341
 2 alpha= 48.500000000000000
 ----------------------------------------------------------------------
 Symbolic Z-matrix:
 Charge =  0 Multiplicity = 1

                         Standard orientation:
 ---------------------------------------------------------------------
 Center     Atomic      Atomic             Coordinates (Angstroms)
 Number     Number       Type             X           Y           Z
 ---------------------------------------------------------------------
      1          1           0        3.211673    0.933642    0.000000
      2          1           0        3.211673   -0.144955    0.000000
      3          1           0        2.141115    0.802195    0.000000
      4          1           0        2.141115   -0.276403    0.000000
      5          1           0        1.070558    0.670747    0.000000
      6          1           0        1.070558   -0.407851    0.000000
      7          1           0        0.000000    0.539299    0.000000
      8          1           0       -0.000000   -0.539299    0.000000
      9          1           0       -1.070558    0.407851    0.000000
     10          1           0       -1.070558   -0.670747    0.000000
     11          1           0       -2.141115    0.276403    0.000000
     12          1           0       -2.141115   -0.802195    0.000000
     13          1           0       -3.211673    0.144955    0.000000
     14          1           0       -3.211673   -0.933642    0.000000
 ---------------------------------------------------------------------

 SCF Done:  E(RHF) =  -6.89659965725     A.U. after    9 cycles
 E2 =    -0.1577806780D+00 EUMP2 =    -0.70543803352940D+01

 The electronic state is 1-AG.
 Alpha  occ. eigenvalues --   -0.89290  -0.82391  -0.70488  -0.54445  -0.45760
 Alpha  occ. eigenvalues --   -0.36187  -0.34166
 Alpha virt. eigenvalues --   -0.01530   0.14159   0.18447   0.42299   0.44965
 Alpha virt. eigenvalues --    0.71857   0.97271

 Mulliken charges:
               1
     1  H    0.010189
     2  H    0.036360
     3  H    0.005611
     4  H   -0.056117
     5  H   -0.037320
     6  H    0.044035
     7  H   -0.002759
     8  H   -0.002759
     9  H    0.044035
    10  H   -0.037320
    11  H   -0.056117
    12  H    0.005611
    13  H    0.036360
    14  H    0.010189
 Sum of Mulliken charges =  -0.00000

 Dipole moment (field-independent basis, Debye):
    X=              0.0000    Y=             -0.0000    Z=              0.0000  Tot=              0.0000
 Quadrupole moment (field-independent basis, Debye-Ang):
   XX=            -19.3005   YY=            -21.2847   ZZ=            -17.9905
   XY=              0.0888   XZ=              0.0000   YZ=             -0.0000

 Normal termination of Gaussian 09 at Wed Feb 15 13:10:11 2017.
