 Gaussian 09, Revision E.01,
 Gaussian 09:  ES64L-G09RevE.01 30-Nov-2015

 ----------------------------------------------------------------------
 #rhf/gen scf(symm,tight,novaracc,noincfock,fulldiag) stable(crhf) gues
 s=read geom=nocrowd test
 ----------------------------------------------------------------------

 hf stability analysis of h12 triangular lattice, y= 1.3232044396011293
  alpha= 71.750000000000000
 ----------------------------------------------------------------------
 Symbolic Z-matrix:
 Charge =  0 Multiplicity = 1

                         Standard orientation:
 ---------------------------------------------------------------------
 Center     Atomic      Atomic             Coordinates (Angstroms)
 Number     Number       Type             X           Y           Z
 ---------------------------------------------------------------------
      1          1           0        2.486278    4.056656    0.000000
      2          1           0        2.486278    2.663368    0.000000
      3          1           0        1.657519    2.936652    0.000000
      4          1           0        1.657519    1.543364    0.000000
      5          1           0        0.828759    1.816648    0.000000
      6          1           0        0.828759    0.423360    0.000000
      7          1           0        0.000000    0.696644    0.000000
      8          1           0       -0.000000   -0.696644    0.000000
      9          1           0       -0.828759   -0.423360    0.000000
     10          1           0       -0.828759   -1.816648    0.000000
     11          1           0       -1.657519   -1.543364    0.000000
     12          1           0       -1.657519   -2.936652    0.000000
     13          1           0       -2.486278   -2.663368    0.000000
     14          1           0       -2.486278   -4.056656    0.000000
 ---------------------------------------------------------------------

 SCF Done:  E(RHF) =  -6.68457019711     A.U. after   11 cycles
 E2 =    -0.3513388389D+00 EUMP2 =    -0.70359090359627D+01

 The electronic state is 1-AG.
 Alpha  occ. eigenvalues --   -0.81078  -0.76929  -0.69832  -0.59814  -0.47387
 Alpha  occ. eigenvalues --   -0.33068  -0.08028
 Alpha virt. eigenvalues --    0.00216   0.08790   0.15103   0.25741   0.39194
 Alpha virt. eigenvalues --    0.53287   0.63338

 Mulliken charges:
               1
     1  H   -0.205210
     2  H    0.002253
     3  H    0.133468
     4  H    0.025602
     5  H   -0.014968
     6  H    0.022474
     7  H    0.036382
     8  H    0.036382
     9  H    0.022474
    10  H   -0.014968
    11  H    0.025602
    12  H    0.133468
    13  H    0.002253
    14  H   -0.205210
 Sum of Mulliken charges =  -0.00000

 Dipole moment (field-independent basis, Debye):
    X=             -0.0000    Y=             -0.0000    Z=             -0.0000  Tot=              0.0000
 Quadrupole moment (field-independent basis, Debye-Ang):
   XX=            -26.1185   YY=            -45.2707   ZZ=            -17.6605
   XY=            -18.2176   XZ=              0.0000   YZ=              0.0000

 Normal termination of Gaussian 09 at Wed Feb 15 13:14:25 2017.
