 Gaussian 09, Revision E.01,
 Gaussian 09:  ES64L-G09RevE.01 30-Nov-2015

 ----------------------------------------------------------------------
 #rhf/gen scf(symm,tight,novaracc,noincfock,fulldiag) stable(crhf) gues
 s=read geom=nocrowd test
 ----------------------------------------------------------------------

 hf stability analysis of h12 triangular lattice, y= 1.3961024673370386
  alpha= 73.500000000000000
 ----------------------------------------------------------------------
 Symbolic Z-matrix:
 Charge =  0 Multiplicity = 1

                         Standard orientation:
 ---------------------------------------------------------------------
 Center     Atomic      Atomic             Coordinates (Angstroms)
 Number     Number       Type             X           Y           Z
 ---------------------------------------------------------------------
      1          1           0        2.379087    4.391505    0.000000
      2          1           0        2.379087    2.935441    0.000000
      3          1           0        1.586058    3.170347    0.000000
      4          1           0        1.586058    1.714283    0.000000
      5          1           0        0.793029    1.949189    0.000000
      6          1           0        0.793029    0.493126    0.000000
      7          1           0        0.000000    0.728032    0.000000
      8          1           0       -0.000000   -0.728032    0.000000
      9          1           0       -0.793029   -0.493126    0.000000
     10          1           0       -0.793029   -1.949189    0.000000
     11          1           0       -1.586058   -1.714283    0.000000
     12          1           0       -1.586058   -3.170347    0.000000
     13          1           0       -2.379087   -2.935441    0.000000
     14          1           0       -2.379087   -4.391505    0.000000
 ---------------------------------------------------------------------

 SCF Done:  E(RHF) =  -6.80388173007     A.U. after    8 cycles
 E2 =    -0.5308914013D+00 EUMP2 =    -0.73347731313364D+01

 The electronic state is 1-AG.
 Alpha  occ. eigenvalues --   -0.79142  -0.75767  -0.69259  -0.60468  -0.49743
 Alpha  occ. eigenvalues --   -0.37291  -0.09775
 Alpha virt. eigenvalues --   -0.03101   0.12985   0.18903   0.29129   0.41919
 Alpha virt. eigenvalues --    0.55089   0.65280

 Mulliken charges:
               1
     1  H   -0.169213
     2  H    0.023619
     3  H    0.084159
     4  H    0.018157
     5  H    0.015990
     6  H    0.009831
     7  H    0.017457
     8  H    0.017457
     9  H    0.009831
    10  H    0.015990
    11  H    0.018157
    12  H    0.084159
    13  H    0.023619
    14  H   -0.169213
 Sum of Mulliken charges =  -0.00000

 Dipole moment (field-independent basis, Debye):
    X=              0.0000    Y=             -0.0000    Z=             -0.0000  Tot=              0.0000
 Quadrupole moment (field-independent basis, Debye-Ang):
   XX=            -22.9142   YY=            -44.9610   ZZ=            -17.7104
   XY=            -15.6676   XZ=             -0.0000   YZ=             -0.0000

 Normal termination of Gaussian 09 at Wed Feb 15 13:14:44 2017.
