 Gaussian 09, Revision E.01,
 Gaussian 09:  ES64L-G09RevE.01 30-Nov-2015

 ----------------------------------------------------------------------
 #rhf/gen scf(symm,tight,novaracc,noincfock,fulldiag) stable(crhf) gues
 s=read geom=nocrowd test
 ----------------------------------------------------------------------

 hf stability analysis of h12 triangular lattice, y= 0.9384058608233425
 4 alpha= 56.750000000000000
 ----------------------------------------------------------------------
 Symbolic Z-matrix:
 Charge =  0 Multiplicity = 1

                         Standard orientation:
 ---------------------------------------------------------------------
 Center     Atomic      Atomic             Coordinates (Angstroms)
 Number     Number       Type             X           Y           Z
 ---------------------------------------------------------------------
      1          1           0        3.087129    1.903378   -0.000000
      2          1           0        3.087129    0.781267    0.000000
      3          1           0        2.058086    1.455937   -0.000000
      4          1           0        2.058086    0.333826    0.000000
      5          1           0        1.029043    1.008496   -0.000000
      6          1           0        1.029043   -0.113615    0.000000
      7          1           0       -0.000000    0.561055   -0.000000
      8          1           0       -0.000000   -0.561055   -0.000000
      9          1           0       -1.029043    0.113615    0.000000
     10          1           0       -1.029043   -1.008496   -0.000000
     11          1           0       -2.058086   -0.333826    0.000000
     12          1           0       -2.058086   -1.455937    0.000000
     13          1           0       -3.087129   -0.781267    0.000000
     14          1           0       -3.087129   -1.903378    0.000000
 ---------------------------------------------------------------------

 SCF Done:  E(RHF) =  -6.86901009307     A.U. after   10 cycles
 E2 =    -0.1597559129D+00 EUMP2 =    -0.70287660059461D+01

 The electronic state is 1-AG.
 Alpha  occ. eigenvalues --   -0.87878  -0.81148  -0.70542  -0.55003  -0.41804
 Alpha  occ. eigenvalues --   -0.36036  -0.31770
 Alpha virt. eigenvalues --   -0.00202   0.10038   0.19316   0.41039   0.43141
 Alpha virt. eigenvalues --    0.66273   0.74652

 Mulliken charges:
               1
     1  H    0.015365
     2  H    0.051799
     3  H    0.061967
     4  H   -0.109649
     5  H   -0.135339
     6  H    0.105575
     7  H    0.010282
     8  H    0.010282
     9  H    0.105575
    10  H   -0.135339
    11  H   -0.109649
    12  H    0.061967
    13  H    0.051799
    14  H    0.015365
 Sum of Mulliken charges =  -0.00000

 Dipole moment (field-independent basis, Debye):
    X=             -0.0000    Y=             -0.0000    Z=              0.0000  Tot=              0.0000
 Quadrupole moment (field-independent basis, Debye-Ang):
   XX=            -17.3056   YY=            -20.8350   ZZ=            -18.1066
   XY=              2.0326   XZ=             -0.0000   YZ=              0.0000

 Normal termination of Gaussian 09 at Wed Feb 15 13:11:41 2017.
