 Gaussian 09, Revision E.01,
 Gaussian 09:  ES64L-G09RevE.01 30-Nov-2015

 ----------------------------------------------------------------------
 #rhf/gen scf(symm,tight,novaracc,noincfock,fulldiag) stable(crhf) gues
 s=read geom=nocrowd test
 ----------------------------------------------------------------------

 hf stability analysis of h12 triangular lattice, y= 0.4860043606964989
 9 alpha= 22.250000000000000
 ----------------------------------------------------------------------
 Symbolic Z-matrix:
 Charge =  0 Multiplicity = 1

                         Standard orientation:
 ---------------------------------------------------------------------
 Center     Atomic      Atomic             Coordinates (Angstroms)
 Number     Number       Type             X           Y           Z
 ---------------------------------------------------------------------
      1          1           0        2.698900   -2.104659    0.000000
      2          1           0        2.698900   -3.388183    0.000000
      3          1           0        1.799267   -1.189186    0.000000
      4          1           0        1.799267   -2.472709    0.000000
      5          1           0        0.899633   -0.273712    0.000000
      6          1           0        0.899633   -1.557235    0.000000
      7          1           0        0.000000    0.641762    0.000000
      8          1           0       -0.000000   -0.641762   -0.000000
      9          1           0       -0.899633    1.557235    0.000000
     10          1           0       -0.899633    0.273712   -0.000000
     11          1           0       -1.799267    2.472709    0.000000
     12          1           0       -1.799267    1.189186   -0.000000
     13          1           0       -2.698900    3.388183    0.000000
     14          1           0       -2.698900    2.104659    0.000000
 ---------------------------------------------------------------------

 SCF Done:  E(RHF) =  -6.59964370677     A.U. after   13 cycles
 E2 =    -0.1882967341D+00 EUMP2 =    -0.67879404409001D+01

 The electronic state is 1-AG.
 Alpha  occ. eigenvalues --   -0.83620  -0.76934  -0.69591  -0.56650  -0.39369
 Alpha  occ. eigenvalues --   -0.28071  -0.18471
 Alpha virt. eigenvalues --   -0.04844   0.10232   0.13155   0.26683   0.33744
 Alpha virt. eigenvalues --    0.53468   0.63905

 Mulliken charges:
               1
     1  H   -0.043303
     2  H    0.071735
     3  H   -0.148490
     4  H    0.133838
     5  H    0.239539
     6  H   -0.204692
     7  H   -0.048626
     8  H   -0.048626
     9  H   -0.204692
    10  H    0.239539
    11  H    0.133838
    12  H   -0.148490
    13  H    0.071735
    14  H   -0.043303
 Sum of Mulliken charges =  -0.00000

 Dipole moment (field-independent basis, Debye):
    X=              0.0000    Y=             -0.0000    Z=              0.0000  Tot=              0.0000
 Quadrupole moment (field-independent basis, Debye-Ang):
   XX=            -18.9661   YY=            -13.9693   ZZ=            -18.2943
   XY=             -5.6298   XZ=             -0.0000   YZ=              0.0000

 Normal termination of Gaussian 09 at Wed Feb 15 13:05:18 2017.
