 Gaussian 09, Revision E.01,
 Gaussian 09:  ES64L-G09RevE.01 30-Nov-2015

 ----------------------------------------------------------------------
 #rhf/gen scf(symm,tight,novaracc,noincfock,fulldiag) stable(crhf) gues
 s=read geom=nocrowd test
 ----------------------------------------------------------------------

 hf stability analysis of h12 triangular lattice, y= 0.3388836262365067
 0 alpha= 11.250000000000000
 ----------------------------------------------------------------------
 Symbolic Z-matrix:
 Charge =  0 Multiplicity = 1

                         Standard orientation:
 ---------------------------------------------------------------------
 Center     Atomic      Atomic             Coordinates (Angstroms)
 Number     Number       Type             X           Y           Z
 ---------------------------------------------------------------------
      1          1           0        1.994232   -3.945973   -0.000000
      2          1           0        1.994232   -5.683033   -0.000000
      3          1           0        1.329488   -2.341139   -0.000000
      4          1           0        1.329488   -4.078199   -0.000000
      5          1           0        0.664744   -0.736304   -0.000000
      6          1           0        0.664744   -2.473364   -0.000000
      7          1           0        0.000000    0.868530    0.000000
      8          1           0       -0.000000   -0.868530    0.000000
      9          1           0       -0.664744    2.473364    0.000000
     10          1           0       -0.664744    0.736304    0.000000
     11          1           0       -1.329488    4.078199    0.000000
     12          1           0       -1.329488    2.341139    0.000000
     13          1           0       -1.994232    5.683033    0.000000
     14          1           0       -1.994232    3.945973    0.000000
 ---------------------------------------------------------------------

 SCF Done:  E(RHF) =  -7.01284195768     A.U. after    6 cycles
 E2 =    -0.9735355245D+00 EUMP2 =    -0.79863774822275D+01

 The electronic state is 1-AG.
 Alpha  occ. eigenvalues --   -0.74548  -0.72637  -0.68780  -0.63660  -0.57742
 Alpha  occ. eigenvalues --   -0.51772  -0.16852
 Alpha virt. eigenvalues --   -0.12357   0.29155   0.33569   0.41353   0.51181
 Alpha virt. eigenvalues --    0.61307   0.69498

 Mulliken charges:
               1
     1  H    0.010243
     2  H   -0.031584
     3  H    0.000075
     4  H    0.015708
     5  H    0.000021
     6  H    0.004590
     7  H    0.000948
     8  H    0.000948
     9  H    0.004590
    10  H    0.000021
    11  H    0.015708
    12  H    0.000075
    13  H   -0.031584
    14  H    0.010243
 Sum of Mulliken charges =  -0.00000

 Dipole moment (field-independent basis, Debye):
    X=             -0.0000    Y=             -0.0000    Z=             -0.0000  Tot=              0.0000
 Quadrupole moment (field-independent basis, Debye-Ang):
   XX=            -17.4246   YY=            -30.0728   ZZ=            -18.1822
   XY=              4.5957   XZ=             -0.0000   YZ=             -0.0000

 Normal termination of Gaussian 09 at Wed Feb 15 13:03:22 2017.
