 Gaussian 09, Revision E.01,
 Gaussian 09:  ES64L-G09RevE.01 30-Nov-2015

 ----------------------------------------------------------------------
 #rhf/gen scf(symm,tight,novaracc,noincfock,fulldiag) stable(crhf) gues
 s=read geom=nocrowd test
 ----------------------------------------------------------------------

 hf stability analysis of h12 triangular lattice, y= 0.8368882343931486
 3 alpha= 50.500000000000000
 ----------------------------------------------------------------------
 Symbolic Z-matrix:
 Charge =  0 Multiplicity = 1

                         Standard orientation:
 ---------------------------------------------------------------------
 Center     Atomic      Atomic             Coordinates (Angstroms)
 Number     Number       Type             X           Y           Z
 ---------------------------------------------------------------------
      1          1           0        3.193958    1.163132    0.000000
      2          1           0        3.193958    0.078553    0.000000
      3          1           0        2.129305    0.956185    0.000000
      4          1           0        2.129305   -0.128395   -0.000000
      5          1           0        1.064653    0.749237    0.000000
      6          1           0        1.064653   -0.335342   -0.000000
      7          1           0        0.000000    0.542290    0.000000
      8          1           0       -0.000000   -0.542290   -0.000000
      9          1           0       -1.064653    0.335342   -0.000000
     10          1           0       -1.064653   -0.749237   -0.000000
     11          1           0       -2.129305    0.128395   -0.000000
     12          1           0       -2.129305   -0.956185   -0.000000
     13          1           0       -3.193958   -0.078553   -0.000000
     14          1           0       -3.193958   -1.163132   -0.000000
 ---------------------------------------------------------------------

 SCF Done:  E(RHF) =  -6.89452309849     A.U. after    9 cycles
 E2 =    -0.1578222860D+00 EUMP2 =    -0.70523453844601D+01

 The electronic state is 1-AG.
 Alpha  occ. eigenvalues --   -0.89104  -0.82224  -0.70515  -0.54539  -0.45210
 Alpha  occ. eigenvalues --   -0.35838  -0.34181
 Alpha virt. eigenvalues --   -0.01325   0.13489   0.18610   0.42479   0.44528
 Alpha virt. eigenvalues --    0.70712   0.93414

 Mulliken charges:
               1
     1  H    0.006074
     2  H    0.043509
     3  H    0.022174
     4  H   -0.072128
     5  H   -0.062364
     6  H    0.063021
     7  H   -0.000285
     8  H   -0.000285
     9  H    0.063021
    10  H   -0.062364
    11  H   -0.072128
    12  H    0.022174
    13  H    0.043509
    14  H    0.006074
 Sum of Mulliken charges =  -0.00000

 Dipole moment (field-independent basis, Debye):
    X=             -0.0000    Y=              0.0000    Z=             -0.0000  Tot=              0.0000
 Quadrupole moment (field-independent basis, Debye-Ang):
   XX=            -18.9735   YY=            -21.3373   ZZ=            -18.0080
   XY=              0.2633   XZ=             -0.0000   YZ=             -0.0000

 Normal termination of Gaussian 09 at Wed Feb 15 13:10:32 2017.
