 Gaussian 09, Revision E.01,
 Gaussian 09:  ES64L-G09RevE.01 30-Nov-2015

 ----------------------------------------------------------------------
 #rhf/gen scf(symm,tight,novaracc,noincfock,fulldiag) stable(crhf) gues
 s=read geom=nocrowd test
 ----------------------------------------------------------------------

 hf stability analysis of h12 triangular lattice, y= 0.6328681913590388
 2 alpha= 34.750000000000000
 ----------------------------------------------------------------------
 Symbolic Z-matrix:
 Charge =  0 Multiplicity = 1

                         Standard orientation:
 ---------------------------------------------------------------------
 Center     Atomic      Atomic             Coordinates (Angstroms)
 Number     Number       Type             X           Y           Z
 ---------------------------------------------------------------------
      1          1           0        3.119965   -0.611357    0.000000
      2          1           0        3.119965   -1.721658    0.000000
      3          1           0        2.079977   -0.222521    0.000000
      4          1           0        2.079977   -1.332822    0.000000
      5          1           0        1.039988    0.166315   -0.000000
      6          1           0        1.039988   -0.943986    0.000000
      7          1           0        0.000000    0.555151   -0.000000
      8          1           0       -0.000000   -0.555151   -0.000000
      9          1           0       -1.039988    0.943986    0.000000
     10          1           0       -1.039988   -0.166315   -0.000000
     11          1           0       -2.079977    1.332822   -0.000000
     12          1           0       -2.079977    0.222521   -0.000000
     13          1           0       -3.119965    1.721658   -0.000000
     14          1           0       -3.119965    0.611357   -0.000000
 ---------------------------------------------------------------------

 SCF Done:  E(RHF) =  -6.87921458969     A.U. after   10 cycles
 E2 =    -0.1588808959D+00 EUMP2 =    -0.70380954855551D+01

 The electronic state is 1-AG.
 Alpha  occ. eigenvalues --   -0.88272  -0.81490  -0.70556  -0.54876  -0.42868
 Alpha  occ. eigenvalues --   -0.35778  -0.32741
 Alpha virt. eigenvalues --   -0.00506   0.10979   0.19159   0.42230   0.43031
 Alpha virt. eigenvalues --    0.67243   0.79699

 Mulliken charges:
               1
     1  H    0.052420
     2  H    0.009522
     3  H   -0.102647
     4  H    0.054353
     5  H    0.097657
     6  H   -0.119025
     7  H    0.007720
     8  H    0.007720
     9  H   -0.119025
    10  H    0.097657
    11  H    0.054353
    12  H   -0.102647
    13  H    0.009522
    14  H    0.052420
 Sum of Mulliken charges =  -0.00000

 Dipole moment (field-independent basis, Debye):
    X=              0.0000    Y=              0.0000    Z=             -0.0000  Tot=              0.0000
 Quadrupole moment (field-independent basis, Debye-Ang):
   XX=            -17.7633   YY=            -21.1357   ZZ=            -18.0776
   XY=             -1.3981   XZ=             -0.0000   YZ=             -0.0000

 Normal termination of Gaussian 09 at Wed Feb 15 13:07:36 2017.
