 Gaussian 09, Revision E.01,
 Gaussian 09:  ES64L-G09RevE.01 30-Nov-2015

 ----------------------------------------------------------------------
 #rhf/gen scf(symm,tight,novaracc,noincfock,fulldiag) stable(crhf) gues
 s=read geom=nocrowd test
 ----------------------------------------------------------------------

 hf stability analysis of h12 triangular lattice, y= 0.3577645550249273
 8 alpha= 12.500000000000000
 ----------------------------------------------------------------------
 Symbolic Z-matrix:
 Charge =  0 Multiplicity = 1

                         Standard orientation:
 ---------------------------------------------------------------------
 Center     Atomic      Atomic             Coordinates (Angstroms)
 Number     Number       Type             X           Y           Z
 ---------------------------------------------------------------------
      1          1           0        2.095705   -3.667776   -0.000000
      2          1           0        2.095705   -5.320730   -0.000000
      3          1           0        1.397136   -2.169692   -0.000000
      4          1           0        1.397136   -3.822645   -0.000000
      5          1           0        0.698568   -0.671608   -0.000000
      6          1           0        0.698568   -2.324561   -0.000000
      7          1           0        0.000000    0.826477    0.000000
      8          1           0       -0.000000   -0.826477   -0.000000
      9          1           0       -0.698568    2.324561    0.000000
     10          1           0       -0.698568    0.671608    0.000000
     11          1           0       -1.397136    3.822645    0.000000
     12          1           0       -1.397136    2.169692    0.000000
     13          1           0       -2.095705    5.320730    0.000000
     14          1           0       -2.095705    3.667776    0.000000
 ---------------------------------------------------------------------

 SCF Done:  E(RHF) =  -7.00176921876     A.U. after    6 cycles
 E2 =    -0.8760414637D+00 EUMP2 =    -0.78778106824779D+01

 The electronic state is 1-AG.
 Alpha  occ. eigenvalues --   -0.75296  -0.73118  -0.68604  -0.62580  -0.55465
 Alpha  occ. eigenvalues --   -0.47941  -0.15472
 Alpha virt. eigenvalues --   -0.10636   0.25013   0.29708   0.38153   0.48832
 Alpha virt. eigenvalues --    0.59878   0.68877

 Mulliken charges:
               1
     1  H    0.015027
     2  H   -0.053600
     3  H    0.001488
     4  H    0.026612
     5  H    0.000513
     6  H    0.007784
     7  H    0.002175
     8  H    0.002175
     9  H    0.007784
    10  H    0.000513
    11  H    0.026612
    12  H    0.001488
    13  H   -0.053600
    14  H    0.015027
 Sum of Mulliken charges =   0.00000

 Dipole moment (field-independent basis, Debye):
    X=             -0.0000    Y=              0.0000    Z=             -0.0000  Tot=              0.0000
 Quadrupole moment (field-independent basis, Debye-Ang):
   XX=            -17.9867   YY=            -33.3071   ZZ=            -18.0438
   XY=              6.5173   XZ=              0.0000   YZ=             -0.0000

 Normal termination of Gaussian 09 at Wed Feb 15 13:03:34 2017.
