 Gaussian 09, Revision E.01,
 Gaussian 09:  ES64L-G09RevE.01 30-Nov-2015

 ----------------------------------------------------------------------
 #rhf/gen scf(symm,tight,novaracc,noincfock,fulldiag) stable(crhf) gues
 s=read geom=nocrowd test
 ----------------------------------------------------------------------

 hf stability analysis of h12 triangular lattice, y= 1.2184637462790018
  alpha= 68.750000000000000
 ----------------------------------------------------------------------
 Symbolic Z-matrix:
 Charge =  0 Multiplicity = 1

                         Standard orientation:
 ---------------------------------------------------------------------
 Center     Atomic      Atomic             Coordinates (Angstroms)
 Number     Number       Type             X           Y           Z
 ---------------------------------------------------------------------
      1          1           0        2.649706    3.545323   -0.000000
      2          1           0        2.649706    2.237970   -0.000000
      3          1           0        1.766470    2.581441   -0.000000
      4          1           0        1.766470    1.274087   -0.000000
      5          1           0        0.883235    1.617559   -0.000000
      6          1           0        0.883235    0.310205   -0.000000
      7          1           0       -0.000000    0.653677    0.000000
      8          1           0       -0.000000   -0.653677   -0.000000
      9          1           0       -0.883235   -0.310205   -0.000000
     10          1           0       -0.883235   -1.617559   -0.000000
     11          1           0       -1.766470   -1.274087   -0.000000
     12          1           0       -1.766470   -2.581441   -0.000000
     13          1           0       -2.649706   -2.237970   -0.000000
     14          1           0       -2.649706   -3.545323   -0.000000
 ---------------------------------------------------------------------

 SCF Done:  E(RHF) =  -6.57663318120     A.U. after   14 cycles
 E2 =    -0.2178565131D+00 EUMP2 =    -0.67944896943237D+01

 The electronic state is 1-AG.
 Alpha  occ. eigenvalues --   -0.83851  -0.77427  -0.70114  -0.58367  -0.41914
 Alpha  occ. eigenvalues --   -0.26813  -0.13652
 Alpha virt. eigenvalues --   -0.03173   0.10489   0.13125   0.23398   0.34616
 Alpha virt. eigenvalues --    0.52367   0.61866

 Mulliken charges:
               1
     1  H   -0.105343
     2  H    0.003321
     3  H    0.164415
     4  H   -0.157294
     5  H   -0.089762
     6  H    0.204792
     7  H   -0.020130
     8  H   -0.020130
     9  H    0.204792
    10  H   -0.089762
    11  H   -0.157294
    12  H    0.164415
    13  H    0.003321
    14  H   -0.105343
 Sum of Mulliken charges =  -0.00000

 Dipole moment (field-independent basis, Debye):
    X=             -0.0000    Y=              0.0000    Z=              0.0000  Tot=              0.0000
 Quadrupole moment (field-independent basis, Debye-Ang):
   XX=            -26.0946   YY=            -28.7925   ZZ=            -17.9779
   XY=             -8.3746   XZ=             -0.0000   YZ=             -0.0000

 Normal termination of Gaussian 09 at Wed Feb 15 13:13:53 2017.
