 Gaussian 09, Revision E.01,
 Gaussian 09:  ES64L-G09RevE.01 30-Nov-2015

 ----------------------------------------------------------------------
 #rhf/gen scf(symm,tight,novaracc,noincfock,fulldiag) stable(crhf) gues
 s=read geom=nocrowd test
 ----------------------------------------------------------------------

 hf stability analysis of h12 triangular lattice, y= 0.4102222107631511
 3 alpha= 16.250000000000000
 ----------------------------------------------------------------------
 Symbolic Z-matrix:
 Charge =  0 Multiplicity = 1

                         Standard orientation:
 ---------------------------------------------------------------------
 Center     Atomic      Atomic             Coordinates (Angstroms)
 Number     Number       Type             X           Y           Z
 ---------------------------------------------------------------------
      1          1           0        2.363003   -2.976184   -0.000000
      2          1           0        2.363003   -4.442158   -0.000000
      3          1           0        1.575335   -1.739793   -0.000000
      4          1           0        1.575335   -3.205768   -0.000000
      5          1           0        0.787668   -0.503403   -0.000000
      6          1           0        0.787668   -1.969378   -0.000000
      7          1           0        0.000000    0.732987    0.000000
      8          1           0       -0.000000   -0.732987    0.000000
      9          1           0       -0.787668    1.969378   -0.000000
     10          1           0       -0.787668    0.503403   -0.000000
     11          1           0       -1.575335    3.205768   -0.000000
     12          1           0       -1.575335    1.739793   -0.000000
     13          1           0       -2.363003    4.442158   -0.000000
     14          1           0       -2.363003    2.976184   -0.000000
 ---------------------------------------------------------------------

 SCF Done:  E(RHF) =  -6.82057199503     A.U. after    8 cycles
 E2 =    -0.5538761949D+00 EUMP2 =    -0.73744481899100D+01

 The electronic state is 1-AG.
 Alpha  occ. eigenvalues --   -0.78846  -0.75570  -0.69175  -0.60556  -0.50052
 Alpha  occ. eigenvalues --   -0.37887  -0.10138
 Alpha virt. eigenvalues --   -0.03635   0.13692   0.19513   0.29647   0.42329
 Alpha virt. eigenvalues --    0.55390   0.65576

 Mulliken charges:
               1
     1  H    0.024319
     2  H   -0.161006
     3  H    0.016482
     4  H    0.079052
     5  H    0.008707
     6  H    0.016783
     7  H    0.015663
     8  H    0.015663
     9  H    0.016783
    10  H    0.008707
    11  H    0.079052
    12  H    0.016482
    13  H   -0.161006
    14  H    0.024319
 Sum of Mulliken charges =  -0.00000

 Dipole moment (field-independent basis, Debye):
    X=             -0.0000    Y=             -0.0000    Z=              0.0000  Tot=              0.0000
 Quadrupole moment (field-independent basis, Debye-Ang):
   XX=            -22.4564   YY=            -44.3826   ZZ=            -17.7253
   XY=             15.0465   XZ=              0.0000   YZ=             -0.0000

 Normal termination of Gaussian 09 at Wed Feb 15 13:04:13 2017.
