 Gaussian 09, Revision E.01,
 Gaussian 09:  ES64L-G09RevE.01 30-Nov-2015

 ----------------------------------------------------------------------
 #rhf/gen scf(symm,tight,novaracc,noincfock,fulldiag) stable(crhf) gues
 s=read geom=nocrowd test
 ----------------------------------------------------------------------

 hf stability analysis of h12 triangular lattice, y= 0.7937677784109760
 1 alpha= 47.500000000000000
 ----------------------------------------------------------------------
 Symbolic Z-matrix:
 Charge =  0 Multiplicity = 1

                         Standard orientation:
 ---------------------------------------------------------------------
 Center     Atomic      Atomic             Coordinates (Angstroms)
 Number     Number       Type             X           Y           Z
 ---------------------------------------------------------------------
      1          1           0        3.217570    0.819811   -0.000000
      2          1           0        3.217570   -0.256809   -0.000000
      3          1           0        2.145047    0.725977   -0.000000
      4          1           0        2.145047   -0.350643   -0.000000
      5          1           0        1.072523    0.632144   -0.000000
      6          1           0        1.072523   -0.444477   -0.000000
      7          1           0        0.000000    0.538310   -0.000000
      8          1           0       -0.000000   -0.538310   -0.000000
      9          1           0       -1.072523    0.444477   -0.000000
     10          1           0       -1.072523   -0.632144   -0.000000
     11          1           0       -2.145047    0.350643   -0.000000
     12          1           0       -2.145047   -0.725977   -0.000000
     13          1           0       -3.217570    0.256809   -0.000000
     14          1           0       -3.217570   -0.819811   -0.000000
 ---------------------------------------------------------------------

 SCF Done:  E(RHF) =  -6.89715401264     A.U. after    9 cycles
 E2 =    -0.1577870484D+00 EUMP2 =    -0.70549410610451D+01

 The electronic state is 1-AG.
 Alpha  occ. eigenvalues --   -0.89350  -0.82446  -0.70478  -0.54412  -0.45942
 Alpha  occ. eigenvalues --   -0.36325  -0.34138
 Alpha virt. eigenvalues --   -0.01598   0.14388   0.18390   0.42236   0.45099
 Alpha virt. eigenvalues --    0.72268   0.98612

 Mulliken charges:
               1
     1  H    0.013137
     2  H    0.032400
     3  H   -0.003099
     4  H   -0.047611
     5  H   -0.024841
     6  H    0.033654
     7  H   -0.003639
     8  H   -0.003639
     9  H    0.033654
    10  H   -0.024841
    11  H   -0.047611
    12  H   -0.003099
    13  H    0.032400
    14  H    0.013137
 Sum of Mulliken charges =  -0.00000

 Dipole moment (field-independent basis, Debye):
    X=              0.0000    Y=              0.0000    Z=             -0.0000  Tot=              0.0000
 Quadrupole moment (field-independent basis, Debye-Ang):
   XX=            -19.4125   YY=            -21.2584   ZZ=            -17.9846
   XY=              0.0445   XZ=             -0.0000   YZ=             -0.0000

 Normal termination of Gaussian 09 at Wed Feb 15 13:09:56 2017.
