 Gaussian 09, Revision E.01,
 Gaussian 09:  ES64L-G09RevE.01 30-Nov-2015

 ----------------------------------------------------------------------
 #rhf/gen scf(symm,tight,novaracc,noincfock,fulldiag) stable(crhf) gues
 s=read geom=nocrowd test
 ----------------------------------------------------------------------

 hf stability analysis of h12 triangular lattice, y= 0.2980984873290020
 2 alpha= 8.7500000000000000
 ----------------------------------------------------------------------
 Symbolic Z-matrix:
 Charge =  0 Multiplicity = 1

                         Standard orientation:
 ---------------------------------------------------------------------
 Center     Atomic      Atomic             Coordinates (Angstroms)
 Number     Number       Type             X           Y           Z
 ---------------------------------------------------------------------
      1          1           0        1.767774   -4.626872   -0.000000
      2          1           0        1.767774   -6.586456   -0.000000
      3          1           0        1.178516   -2.757984   -0.000000
      4          1           0        1.178516   -4.717568   -0.000000
      5          1           0        0.589258   -0.889096   -0.000000
      6          1           0        0.589258   -2.848680   -0.000000
      7          1           0        0.000000    0.979792    0.000000
      8          1           0       -0.000000   -0.979792    0.000000
      9          1           0       -0.589258    2.848680   -0.000000
     10          1           0       -0.589258    0.889096    0.000000
     11          1           0       -1.178516    4.717568   -0.000000
     12          1           0       -1.178516    2.757984    0.000000
     13          1           0       -1.767774    6.586456   -0.000000
     14          1           0       -1.767774    4.626872    0.000000
 ---------------------------------------------------------------------

 SCF Done:  E(RHF) =  -6.89783077122     A.U. after    5 cycles
 E2 =    -0.1165188033D+01 EUMP2 =    -0.80630188038933D+01

 The electronic state is 1-AG.
 Alpha  occ. eigenvalues --   -0.73645  -0.72280  -0.69762  -0.66516  -0.62991
 Alpha  occ. eigenvalues --   -0.59804  -0.18818
 Alpha virt. eigenvalues --   -0.14920   0.38738   0.42493   0.48749   0.56524
 Alpha virt. eigenvalues --    0.64388   0.70554

 Mulliken charges:
               1
     1  H    0.003156
     2  H   -0.006512
     3  H   -0.000460
     4  H    0.002560
     5  H   -0.000084
     6  H    0.001188
     7  H    0.000152
     8  H    0.000152
     9  H    0.001188
    10  H   -0.000084
    11  H    0.002560
    12  H   -0.000460
    13  H   -0.006512
    14  H    0.003156
 Sum of Mulliken charges =  -0.00000

 Dipole moment (field-independent basis, Debye):
    X=             -0.0000    Y=             -0.0000    Z=              0.0000  Tot=              0.0000
 Quadrupole moment (field-independent basis, Debye-Ang):
   XX=            -17.1687   YY=            -24.9793   ZZ=            -18.4939
   XY=              2.0179   XZ=             -0.0000   YZ=             -0.0000

 Normal termination of Gaussian 09 at Wed Feb 15 13:02:57 2017.
