 Gaussian 09, Revision E.01,
 Gaussian 09:  ES64L-G09RevE.01 30-Nov-2015

 ----------------------------------------------------------------------
 #rhf/gen scf(symm,tight,novaracc,noincfock,fulldiag) stable(crhf) gues
 s=read geom=nocrowd test
 ----------------------------------------------------------------------

 hf stability analysis of h12 triangular lattice, y= 0.8443744677903469
 7 alpha= 51.000000000000000
 ----------------------------------------------------------------------
 Symbolic Z-matrix:
 Charge =  0 Multiplicity = 1

                         Standard orientation:
 ---------------------------------------------------------------------
 Center     Atomic      Atomic             Coordinates (Angstroms)
 Number     Number       Type             X           Y           Z
 ---------------------------------------------------------------------
      1          1           0        3.188292    1.220946   -0.000000
      2          1           0        3.188292    0.134439   -0.000000
      3          1           0        2.125528    0.995048   -0.000000
      4          1           0        2.125528   -0.091458   -0.000000
      5          1           0        1.062764    0.769151   -0.000000
      6          1           0        1.062764   -0.317356   -0.000000
      7          1           0       -0.000000    0.543253    0.000000
      8          1           0       -0.000000   -0.543253   -0.000000
      9          1           0       -1.062764    0.317356    0.000000
     10          1           0       -1.062764   -0.769151   -0.000000
     11          1           0       -2.125528    0.091458   -0.000000
     12          1           0       -2.125528   -0.995048   -0.000000
     13          1           0       -3.188292   -0.134439   -0.000000
     14          1           0       -3.188292   -1.220946   -0.000000
 ---------------------------------------------------------------------

 SCF Done:  E(RHF) =  -6.89372890449     A.U. after    9 cycles
 E2 =    -0.1578541663D+00 EUMP2 =    -0.70515830707790D+01

 The electronic state is 1-AG.
 Alpha  occ. eigenvalues --   -0.89043  -0.82170  -0.70522  -0.54568  -0.45033
 Alpha  occ. eigenvalues --   -0.35755  -0.34155
 Alpha virt. eigenvalues --   -0.01260   0.13280   0.18660   0.42533   0.44378
 Alpha virt. eigenvalues --    0.70374   0.92232

 Mulliken charges:
               1
     1  H    0.005487
     2  H    0.045062
     3  H    0.026083
     4  H   -0.075878
     5  H   -0.068581
     6  H    0.067371
     7  H    0.000455
     8  H    0.000455
     9  H    0.067371
    10  H   -0.068581
    11  H   -0.075878
    12  H    0.026083
    13  H    0.045062
    14  H    0.005487
 Sum of Mulliken charges =  -0.00000

 Dipole moment (field-independent basis, Debye):
    X=              0.0000    Y=              0.0000    Z=              0.0000  Tot=              0.0000
 Quadrupole moment (field-independent basis, Debye-Ang):
   XX=            -18.8720   YY=            -21.3457   ZZ=            -18.0136
   XY=              0.3297   XZ=              0.0000   YZ=             -0.0000

 Normal termination of Gaussian 09 at Wed Feb 15 13:10:38 2017.
