 Gaussian 09, Revision E.01,
 Gaussian 09:  ES64L-G09RevE.01 30-Nov-2015

 ----------------------------------------------------------------------
 #rhf/gen scf(symm,tight,novaracc,noincfock,fulldiag) stable(crhf) gues
 s=read geom=nocrowd test
 ----------------------------------------------------------------------

 hf stability analysis of h12 triangular lattice, y= 0.4676948326587840
 9 alpha= 20.750000000000000
 ----------------------------------------------------------------------
 Symbolic Z-matrix:
 Charge =  0 Multiplicity = 1

                         Standard orientation:
 ---------------------------------------------------------------------
 Center     Atomic      Atomic             Coordinates (Angstroms)
 Number     Number       Type             X           Y           Z
 ---------------------------------------------------------------------
      1          1           0        2.624147   -2.306016    0.000000
      2          1           0        2.624147   -3.626102    0.000000
      3          1           0        1.749432   -1.317329    0.000000
      4          1           0        1.749432   -2.637416    0.000000
      5          1           0        0.874716   -0.328643    0.000000
      6          1           0        0.874716   -1.648730    0.000000
      7          1           0       -0.000000    0.660043    0.000000
      8          1           0       -0.000000   -0.660043   -0.000000
      9          1           0       -0.874716    1.648730    0.000000
     10          1           0       -0.874716    0.328643    0.000000
     11          1           0       -1.749432    2.637416    0.000000
     12          1           0       -1.749432    1.317329    0.000000
     13          1           0       -2.624147    3.626102    0.000000
     14          1           0       -2.624147    2.306016    0.000000
 ---------------------------------------------------------------------

 SCF Done:  E(RHF) =  -6.58078110854     A.U. after   13 cycles
 E2 =    -0.2288689117D+00 EUMP2 =    -0.68096500202342D+01

 The electronic state is 1-AG.
 Alpha  occ. eigenvalues --   -0.83027  -0.77275  -0.70118  -0.58548  -0.42812
 Alpha  occ. eigenvalues --   -0.27341  -0.11798
 Alpha virt. eigenvalues --   -0.01978   0.10508   0.12943   0.22832   0.35415
 Alpha virt. eigenvalues --    0.52504   0.62178

 Mulliken charges:
               1
     1  H   -0.008743
     2  H   -0.126153
     3  H   -0.102495
     4  H    0.174202
     5  H    0.131733
     6  H   -0.090062
     7  H    0.021518
     8  H    0.021518
     9  H   -0.090062
    10  H    0.131733
    11  H    0.174202
    12  H   -0.102495
    13  H   -0.126153
    14  H   -0.008743
 Sum of Mulliken charges =   0.00000

 Dipole moment (field-independent basis, Debye):
    X=             -0.0000    Y=              0.0000    Z=             -0.0000  Tot=              0.0000
 Quadrupole moment (field-independent basis, Debye-Ang):
   XX=            -26.5500   YY=            -31.0743   ZZ=            -17.8974
   XY=             10.4620   XZ=              0.0000   YZ=             -0.0000

 Normal termination of Gaussian 09 at Wed Feb 15 13:05:00 2017.
