 Gaussian 09, Revision E.01,
 Gaussian 09:  ES64L-G09RevE.01 30-Nov-2015

 ----------------------------------------------------------------------
 #rhf/gen scf(symm,tight,novaracc,noincfock,fulldiag) stable(crhf) gues
 s=read geom=nocrowd test
 ----------------------------------------------------------------------

 hf stability analysis of h12 triangular lattice, y= 0.7800001708434697
 3 alpha= 46.500000000000000
 ----------------------------------------------------------------------
 Symbolic Z-matrix:
 Charge =  0 Multiplicity = 1

                         Standard orientation:
 ---------------------------------------------------------------------
 Center     Atomic      Atomic             Coordinates (Angstroms)
 Number     Number       Type             X           Y           Z
 ---------------------------------------------------------------------
      1          1           0        3.221500    0.706485    0.000000
      2          1           0        3.221500   -0.368822    0.000000
      3          1           0        2.147667    0.650208    0.000000
      4          1           0        2.147667   -0.425099    0.000000
      5          1           0        1.073833    0.593931    0.000000
      6          1           0        1.073833   -0.481376    0.000000
      7          1           0        0.000000    0.537654   -0.000000
      8          1           0       -0.000000   -0.537654   -0.000000
      9          1           0       -1.073833    0.481376    0.000000
     10          1           0       -1.073833   -0.593931    0.000000
     11          1           0       -2.147667    0.425099    0.000000
     12          1           0       -2.147667   -0.650208    0.000000
     13          1           0       -3.221500    0.368822    0.000000
     14          1           0       -3.221500   -0.706485    0.000000
 ---------------------------------------------------------------------

 SCF Done:  E(RHF) =  -6.89748532635     A.U. after    8 cycles
 E2 =    -0.1577970949D+00 EUMP2 =    -0.70552824212623D+01

 The electronic state is 1-AG.
 Alpha  occ. eigenvalues --   -0.89390  -0.82483  -0.70470  -0.54390  -0.46064
 Alpha  occ. eigenvalues --   -0.36421  -0.34114
 Alpha virt. eigenvalues --   -0.01643   0.14542   0.18352   0.42193   0.45185
 Alpha virt. eigenvalues --    0.72550   0.99523

 Mulliken charges:
               1
     1  H    0.016537
     2  H    0.028324
     3  H   -0.011988
     4  H   -0.038866
     5  H   -0.012509
     6  H    0.022743
     7  H   -0.004242
     8  H   -0.004242
     9  H    0.022743
    10  H   -0.012509
    11  H   -0.038866
    12  H   -0.011988
    13  H    0.028324
    14  H    0.016537
 Sum of Mulliken charges =   0.00000

 Dipole moment (field-independent basis, Debye):
    X=             -0.0000    Y=              0.0000    Z=              0.0000  Tot=              0.0000
 Quadrupole moment (field-independent basis, Debye-Ang):
   XX=            -19.4881   YY=            -21.2383   ZZ=            -17.9806
   XY=              0.0190   XZ=              0.0000   YZ=             -0.0000

 Normal termination of Gaussian 09 at Wed Feb 15 13:09:45 2017.
