 Gaussian 09, Revision E.01,
 Gaussian 09:  ES64L-G09RevE.01 30-Nov-2015

 ----------------------------------------------------------------------
 #rhf/gen scf(symm,tight,novaracc,noincfock,fulldiag) stable(crhf) gues
 s=read geom=nocrowd test
 ----------------------------------------------------------------------

 hf stability analysis of h12 triangular lattice, y= 0.6446958471815459
 3 alpha= 35.750000000000000
 ----------------------------------------------------------------------
 Symbolic Z-matrix:
 Charge =  0 Multiplicity = 1

                         Standard orientation:
 ---------------------------------------------------------------------
 Center     Atomic      Atomic             Coordinates (Angstroms)
 Number     Number       Type             X           Y           Z
 ---------------------------------------------------------------------
      1          1           0        3.139310   -0.498669   -0.000000
      2          1           0        3.139310   -1.602128   -0.000000
      3          1           0        2.092873   -0.148536   -0.000000
      4          1           0        2.092873   -1.251995   -0.000000
      5          1           0        1.046437    0.201597   -0.000000
      6          1           0        1.046437   -0.901863   -0.000000
      7          1           0        0.000000    0.551730    0.000000
      8          1           0       -0.000000   -0.551730    0.000000
      9          1           0       -1.046437    0.901863   -0.000000
     10          1           0       -1.046437   -0.201597   -0.000000
     11          1           0       -2.092873    1.251995   -0.000000
     12          1           0       -2.092873    0.148536   -0.000000
     13          1           0       -3.139310    1.602128   -0.000000
     14          1           0       -3.139310    0.498669   -0.000000
 ---------------------------------------------------------------------

 SCF Done:  E(RHF) =  -6.88424682172     A.U. after   10 cycles
 E2 =    -0.1584763054D+00 EUMP2 =    -0.70427231270917D+01

 The electronic state is 1-AG.
 Alpha  occ. eigenvalues --   -0.88498  -0.81687  -0.70555  -0.54796  -0.43488
 Alpha  occ. eigenvalues --   -0.35655  -0.33272
 Alpha virt. eigenvalues --   -0.00708   0.11586   0.19039   0.42894   0.42922
 Alpha virt. eigenvalues --    0.67963   0.82951

 Mulliken charges:
               1
     1  H    0.051797
     2  H    0.006980
     3  H   -0.097239
     4  H    0.048573
     5  H    0.091603
     6  H   -0.107662
     7  H    0.005948
     8  H    0.005948
     9  H   -0.107662
    10  H    0.091603
    11  H    0.048573
    12  H   -0.097239
    13  H    0.006980
    14  H    0.051797
 Sum of Mulliken charges =  -0.00000

 Dipole moment (field-independent basis, Debye):
    X=             -0.0000    Y=             -0.0000    Z=             -0.0000  Tot=              0.0000
 Quadrupole moment (field-independent basis, Debye-Ang):
   XX=            -18.0556   YY=            -21.2528   ZZ=            -18.0599
   XY=             -1.0552   XZ=             -0.0000   YZ=              0.0000

 Normal termination of Gaussian 09 at Wed Feb 15 13:07:46 2017.
