 Gaussian 09, Revision E.01,
 Gaussian 09:  ES64L-G09RevE.01 30-Nov-2015

 ----------------------------------------------------------------------
 #rhf/gen scf(symm,tight,novaracc,noincfock,fulldiag) stable(crhf) gues
 s=read geom=nocrowd test
 ----------------------------------------------------------------------

 hf stability analysis of h12 triangular lattice, y= 0.4980454386758799
 1 alpha= 23.250000000000000
 ----------------------------------------------------------------------
 Symbolic Z-matrix:
 Charge =  0 Multiplicity = 1

                         Standard orientation:
 ---------------------------------------------------------------------
 Center     Atomic      Atomic             Coordinates (Angstroms)
 Number     Number       Type             X           Y           Z
 ---------------------------------------------------------------------
      1          1           0        2.745599   -1.974629   -0.000000
      2          1           0        2.745599   -3.236322   -0.000000
      3          1           0        1.830399   -1.106137   -0.000000
      4          1           0        1.830399   -2.367830   -0.000000
      5          1           0        0.915200   -0.237646   -0.000000
      6          1           0        0.915200   -1.499338   -0.000000
      7          1           0        0.000000    0.630846    0.000000
      8          1           0       -0.000000   -0.630846    0.000000
      9          1           0       -0.915200    1.499338   -0.000000
     10          1           0       -0.915200    0.237646   -0.000000
     11          1           0       -1.830399    2.367830   -0.000000
     12          1           0       -1.830399    1.106137   -0.000000
     13          1           0       -2.745599    3.236322   -0.000000
     14          1           0       -2.745599    1.974629   -0.000000
 ---------------------------------------------------------------------

 SCF Done:  E(RHF) =  -6.64235286861     A.U. after   11 cycles
 E2 =    -0.1817008606D+00 EUMP2 =    -0.68240537292046D+01

 The electronic state is 1-AG.
 Alpha  occ. eigenvalues --   -0.83549  -0.77249  -0.69644  -0.56034  -0.38725
 Alpha  occ. eigenvalues --   -0.29800  -0.20365
 Alpha virt. eigenvalues --   -0.04039   0.09795   0.14443   0.30102   0.33652
 Alpha virt. eigenvalues --    0.53830   0.64624

 Mulliken charges:
               1
     1  H   -0.028705
     2  H    0.102657
     3  H   -0.128099
     4  H    0.110315
     5  H    0.177337
     6  H   -0.222625
     7  H   -0.010880
     8  H   -0.010880
     9  H   -0.222625
    10  H    0.177337
    11  H    0.110315
    12  H   -0.128099
    13  H    0.102657
    14  H   -0.028705
 Sum of Mulliken charges =  -0.00000

 Dipole moment (field-independent basis, Debye):
    X=             -0.0000    Y=              0.0000    Z=             -0.0000  Tot=              0.0000
 Quadrupole moment (field-independent basis, Debye-Ang):
   XX=            -16.4426   YY=            -12.0571   ZZ=            -18.3299
   XY=             -8.4839   XZ=             -0.0000   YZ=             -0.0000

 Normal termination of Gaussian 09 at Wed Feb 15 13:05:29 2017.
