 Gaussian 09, Revision E.01,
 Gaussian 09:  ES64L-G09RevE.01 30-Nov-2015

 ----------------------------------------------------------------------
 #rhf/gen scf(symm,tight,novaracc,noincfock,fulldiag) stable(crhf) gues
 s=read geom=nocrowd test
 ----------------------------------------------------------------------

 hf stability analysis of h12 triangular lattice, y= 0.2803104089832951
 2 alpha= 7.7500000000000000
 ----------------------------------------------------------------------
 Symbolic Z-matrix:
 Charge =  0 Multiplicity = 1

                         Standard orientation:
 ---------------------------------------------------------------------
 Center     Atomic      Atomic             Coordinates (Angstroms)
 Number     Number       Type             X           Y           Z
 ---------------------------------------------------------------------
      1          1           0        1.666500   -4.969871   -0.000000
      2          1           0        1.666500   -7.048540   -0.000000
      3          1           0        1.111000   -2.966803   -0.000000
      4          1           0        1.111000   -5.045471   -0.000000
      5          1           0        0.555500   -0.963734   -0.000000
      6          1           0        0.555500   -3.042403   -0.000000
      7          1           0        0.000000    1.039334    0.000000
      8          1           0       -0.000000   -1.039334   -0.000000
      9          1           0       -0.555500    3.042403   -0.000000
     10          1           0       -0.555500    0.963734   -0.000000
     11          1           0       -1.111000    5.045471   -0.000000
     12          1           0       -1.111000    2.966803   -0.000000
     13          1           0       -1.666500    7.048540   -0.000000
     14          1           0       -1.666500    4.969871   -0.000000
 ---------------------------------------------------------------------

 SCF Done:  E(RHF) =  -6.77510206931     A.U. after    5 cycles
 E2 =    -0.1248908297D+01 EUMP2 =    -0.80240103662203D+01

 The electronic state is 1-AG.
 Alpha  occ. eigenvalues --   -0.73527  -0.72409  -0.70430  -0.67931  -0.65306
 Alpha  occ. eigenvalues --   -0.63043  -0.19318
 Alpha virt. eigenvalues --   -0.15657   0.43330   0.46733   0.52270   0.59075
 Alpha virt. eigenvalues --    0.65878   0.71128

 Mulliken charges:
               1
     1  H    0.001483
     2  H   -0.001929
     3  H   -0.000351
     4  H    0.000168
     5  H   -0.000054
     6  H    0.000612
     7  H    0.000071
     8  H    0.000071
     9  H    0.000612
    10  H   -0.000054
    11  H    0.000168
    12  H   -0.000351
    13  H   -0.001929
    14  H    0.001483
 Sum of Mulliken charges =   0.00000

 Dipole moment (field-independent basis, Debye):
    X=             -0.0000    Y=             -0.0000    Z=              0.0000  Tot=              0.0000
 Quadrupole moment (field-independent basis, Debye-Ang):
   XX=            -17.2803   YY=            -23.4150   ZZ=            -18.6248
   XY=              1.3572   XZ=              0.0000   YZ=              0.0000

 Normal termination of Gaussian 09 at Wed Feb 15 13:02:48 2017.
