 Gaussian 09, Revision E.01,
 Gaussian 09:  ES64L-G09RevE.01 30-Nov-2015

 ----------------------------------------------------------------------
 #rhf/gen scf(symm,tight,novaracc,noincfock,fulldiag) stable(crhf) gues
 s=read geom=nocrowd test
 ----------------------------------------------------------------------

 hf stability analysis of h12 triangular lattice, y= 1.0050639437111659
  alpha= 60.250000000000000
 ----------------------------------------------------------------------
 Symbolic Z-matrix:
 Charge =  0 Multiplicity = 1

                         Standard orientation:
 ---------------------------------------------------------------------
 Center     Atomic      Atomic             Coordinates (Angstroms)
 Number     Number       Type             X           Y           Z
 ---------------------------------------------------------------------
      1          1           0        2.992376    2.341465    0.000000
      2          1           0        2.992376    1.183823    0.000000
      3          1           0        1.994917    1.753917    0.000000
      4          1           0        1.994917    0.596275    0.000000
      5          1           0        0.997459    1.166369    0.000000
      6          1           0        0.997459    0.008727    0.000000
      7          1           0        0.000000    0.578821    0.000000
      8          1           0       -0.000000   -0.578821    0.000000
      9          1           0       -0.997459   -0.008727    0.000000
     10          1           0       -0.997459   -1.166369    0.000000
     11          1           0       -1.994917   -0.596275    0.000000
     12          1           0       -1.994917   -1.753917    0.000000
     13          1           0       -2.992376   -1.183823    0.000000
     14          1           0       -2.992376   -2.341465    0.000000
 ---------------------------------------------------------------------

 SCF Done:  E(RHF) =  -6.82786927584     A.U. after   10 cycles
 E2 =    -0.1634886396D+00 EUMP2 =    -0.69913579154311D+01

 The electronic state is 1-AG.
 Alpha  occ. eigenvalues --   -0.86669  -0.80112  -0.70410  -0.55308  -0.38638
 Alpha  occ. eigenvalues --   -0.36826  -0.28774
 Alpha virt. eigenvalues --    0.00129   0.08188   0.19308   0.37584   0.42612
 Alpha virt. eigenvalues --    0.63172   0.64809

 Mulliken charges:
               1
     1  H    0.038983
     2  H    0.041719
     3  H    0.075296
     4  H   -0.120646
     5  H   -0.169873
     6  H    0.119650
     7  H    0.014873
     8  H    0.014873
     9  H    0.119650
    10  H   -0.169873
    11  H   -0.120646
    12  H    0.075296
    13  H    0.041719
    14  H    0.038983
 Sum of Mulliken charges =   0.00000

 Dipole moment (field-independent basis, Debye):
    X=             -0.0000    Y=              0.0000    Z=              0.0000  Tot=              0.0000
 Quadrupole moment (field-independent basis, Debye-Ang):
   XX=            -16.2565   YY=            -19.2710   ZZ=            -18.1847
   XY=              4.1071   XZ=             -0.0000   YZ=             -0.0000

 Normal termination of Gaussian 09 at Wed Feb 15 13:12:20 2017.
