 Gaussian 09, Revision E.01,
 Gaussian 09:  ES64L-G09RevE.01 30-Nov-2015

 ----------------------------------------------------------------------
 #rhf/gen scf(symm,tight,novaracc,noincfock,fulldiag) stable(crhf) gues
 s=read geom=nocrowd test
 ----------------------------------------------------------------------

 hf stability analysis of h12 triangular lattice, y= 0.7337491795890599
 4 alpha= 43.000000000000000
 ----------------------------------------------------------------------
 Symbolic Z-matrix:
 Charge =  0 Multiplicity = 1

                         Standard orientation:
 ---------------------------------------------------------------------
 Center     Atomic      Atomic             Coordinates (Angstroms)
 Number     Number       Type             X           Y           Z
 ---------------------------------------------------------------------
      1          1           0        3.219781    0.312792   -0.000000
      2          1           0        3.219781   -0.763090    0.000000
      3          1           0        2.146521    0.387841   -0.000000
      4          1           0        2.146521   -0.688040    0.000000
      5          1           0        1.073260    0.462891   -0.000000
      6          1           0        1.073260   -0.612990    0.000000
      7          1           0        0.000000    0.537941   -0.000000
      8          1           0       -0.000000   -0.537941   -0.000000
      9          1           0       -1.073260    0.612990   -0.000000
     10          1           0       -1.073260   -0.462891   -0.000000
     11          1           0       -2.146521    0.688040   -0.000000
     12          1           0       -2.146521   -0.387841   -0.000000
     13          1           0       -3.219781    0.763090   -0.000000
     14          1           0       -3.219781   -0.312792   -0.000000
 ---------------------------------------------------------------------

 SCF Done:  E(RHF) =  -6.89734413779     A.U. after    9 cycles
 E2 =    -0.1577921228D+00 EUMP2 =    -0.70551362605493D+01

 The electronic state is 1-AG.
 Alpha  occ. eigenvalues --   -0.89373  -0.82467  -0.70473  -0.54399  -0.46011
 Alpha  occ. eigenvalues --   -0.36379  -0.34125
 Alpha virt. eigenvalues --   -0.01623   0.14474   0.18369   0.42212   0.45148
 Alpha virt. eigenvalues --    0.72426   0.99123

 Mulliken charges:
               1
     1  H    0.030369
     2  H    0.014787
     3  H   -0.043264
     4  H   -0.007526
     5  H    0.028261
     6  H   -0.018651
     7  H   -0.003977
     8  H   -0.003977
     9  H   -0.018651
    10  H    0.028261
    11  H   -0.007526
    12  H   -0.043264
    13  H    0.014787
    14  H    0.030369
 Sum of Mulliken charges =  -0.00000

 Dipole moment (field-independent basis, Debye):
    X=              0.0000    Y=              0.0000    Z=             -0.0000  Tot=              0.0000
 Quadrupole moment (field-independent basis, Debye-Ang):
   XX=            -19.4550   YY=            -21.2473   ZZ=            -17.9823
   XY=             -0.0298   XZ=             -0.0000   YZ=              0.0000

 Normal termination of Gaussian 09 at Wed Feb 15 13:09:07 2017.
