 Gaussian 09, Revision E.01,
 Gaussian 09:  ES64L-G09RevE.01 30-Nov-2015

 ----------------------------------------------------------------------
 #rhf/gen scf(symm,tight,novaracc,noincfock,fulldiag) stable(crhf) gues
 s=read geom=nocrowd test
 ----------------------------------------------------------------------

 hf stability analysis of h12 triangular lattice, y= 1.6845675376176648
  alpha= 78.500000000000000
 ----------------------------------------------------------------------
 Symbolic Z-matrix:
 Charge =  0 Multiplicity = 1

                         Standard orientation:
 ---------------------------------------------------------------------
 Center     Atomic      Atomic             Coordinates (Angstroms)
 Number     Number       Type             X           Y           Z
 ---------------------------------------------------------------------
      1          1           0        2.015092    5.606800    0.000000
      2          1           0        2.015092    3.887721    0.000000
      3          1           0        1.343395    4.024380    0.000000
      4          1           0        1.343395    2.305301    0.000000
      5          1           0        0.671697    2.441959    0.000000
      6          1           0        0.671697    0.722881    0.000000
      7          1           0        0.000000    0.859539    0.000000
      8          1           0       -0.000000   -0.859539    0.000000
      9          1           0       -0.671697   -0.722881    0.000000
     10          1           0       -0.671697   -2.441959    0.000000
     11          1           0       -1.343395   -2.305301    0.000000
     12          1           0       -1.343395   -4.024380    0.000000
     13          1           0       -2.015092   -3.887721    0.000000
     14          1           0       -2.015092   -5.606800    0.000000
 ---------------------------------------------------------------------

 SCF Done:  E(RHF) =  -7.01349679855     A.U. after    6 cycles
 E2 =    -0.9543752264D+00 EUMP2 =    -0.79678720249191D+01

 The electronic state is 1-AG.
 Alpha  occ. eigenvalues --   -0.74681  -0.72718  -0.68729  -0.63426  -0.57267
 Alpha  occ. eigenvalues --   -0.50992  -0.16597
 Alpha virt. eigenvalues --   -0.12038   0.28302   0.32772   0.40692   0.50699
 Alpha virt. eigenvalues --    0.61020   0.69386

 Mulliken charges:
               1
     1  H   -0.035419
     2  H    0.011154
     3  H    0.017652
     4  H    0.000268
     5  H    0.005141
     6  H    0.000079
     7  H    0.001126
     8  H    0.001126
     9  H    0.000079
    10  H    0.005141
    11  H    0.000268
    12  H    0.017652
    13  H    0.011154
    14  H   -0.035419
 Sum of Mulliken charges =   0.00000

 Dipole moment (field-independent basis, Debye):
    X=              0.0000    Y=             -0.0000    Z=             -0.0000  Tot=              0.0000
 Quadrupole moment (field-independent basis, Debye-Ang):
   XX=            -17.5086   YY=            -30.6821   ZZ=            -18.1534
   XY=             -4.9419   XZ=              0.0000   YZ=              0.0000

 Normal termination of Gaussian 09 at Wed Feb 15 13:15:39 2017.
