 Gaussian 09, Revision E.01,
 Gaussian 09:  ES64L-G09RevE.01 30-Nov-2015

 ----------------------------------------------------------------------
 #rhf/gen scf(symm,tight,novaracc,noincfock,fulldiag) stable(crhf) gues
 s=read geom=nocrowd test
 ----------------------------------------------------------------------

 hf stability analysis of h12 triangular lattice, y= 1.1662555983306084
  alpha= 67.000000000000000
 ----------------------------------------------------------------------
 Symbolic Z-matrix:
 Charge =  0 Multiplicity = 1

                         Standard orientation:
 ---------------------------------------------------------------------
 Center     Atomic      Atomic             Coordinates (Angstroms)
 Number     Number       Type             X           Y           Z
 ---------------------------------------------------------------------
      1          1           0        2.734154    3.273829    0.000000
      2          1           0        2.734154    2.006855    0.000000
      3          1           0        1.822769    2.393715    0.000000
      4          1           0        1.822769    1.126741    0.000000
      5          1           0        0.911385    1.513601    0.000000
      6          1           0        0.911385    0.246627    0.000000
      7          1           0        0.000000    0.633487    0.000000
      8          1           0       -0.000000   -0.633487    0.000000
      9          1           0       -0.911385   -0.246627    0.000000
     10          1           0       -0.911385   -1.513601    0.000000
     11          1           0       -1.822769   -1.126741    0.000000
     12          1           0       -1.822769   -2.393715    0.000000
     13          1           0       -2.734154   -2.006855    0.000000
     14          1           0       -2.734154   -3.273829    0.000000
 ---------------------------------------------------------------------

 SCF Done:  E(RHF) =  -6.63163602536     A.U. after   12 cycles
 E2 =    -0.1830380419D+00 EUMP2 =    -0.68146740672272D+01

 The electronic state is 1-AG.
 Alpha  occ. eigenvalues --   -0.83486  -0.77138  -0.69613  -0.56122  -0.38836
 Alpha  occ. eigenvalues --   -0.29378  -0.19945
 Alpha virt. eigenvalues --   -0.04284   0.09938   0.14102   0.29288   0.33663
 Alpha virt. eigenvalues --    0.53779   0.64555

 Mulliken charges:
               1
     1  H    0.100892
     2  H   -0.033534
     3  H    0.114850
     4  H   -0.130383
     5  H   -0.222346
     6  H    0.187839
     7  H   -0.017318
     8  H   -0.017318
     9  H    0.187839
    10  H   -0.222346
    11  H   -0.130383
    12  H    0.114850
    13  H   -0.033534
    14  H    0.100892
 Sum of Mulliken charges =  -0.00000

 Dipole moment (field-independent basis, Debye):
    X=             -0.0000    Y=              0.0000    Z=              0.0000  Tot=              0.0000
 Quadrupole moment (field-independent basis, Debye-Ang):
   XX=            -16.7865   YY=            -12.0134   ZZ=            -18.3293
   XY=              8.2576   XZ=             -0.0000   YZ=             -0.0000

 Normal termination of Gaussian 09 at Wed Feb 15 13:13:34 2017.
