 Gaussian 09, Revision E.01,
 Gaussian 09:  ES64L-G09RevE.01 30-Nov-2015

 ----------------------------------------------------------------------
 #rhf/gen scf(symm,tight,novaracc,noincfock,fulldiag) stable(crhf) gues
 s=read geom=nocrowd test
 ----------------------------------------------------------------------

 hf stability analysis of h12 triangular lattice, y= 0.2756983987278234
 2 alpha= 7.5000000000000000
 ----------------------------------------------------------------------
 Symbolic Z-matrix:
 Charge =  0 Multiplicity = 1

                         Standard orientation:
 ---------------------------------------------------------------------
 Center     Atomic      Atomic             Coordinates (Angstroms)
 Number     Number       Type             X           Y           Z
 ---------------------------------------------------------------------
      1          1           0        1.640039   -5.064603   -0.000000
      2          1           0        1.640039   -7.176811   -0.000000
      3          1           0        1.093359   -3.024368   -0.000000
      4          1           0        1.093359   -5.136575   -0.000000
      5          1           0        0.546680   -0.984132   -0.000000
      6          1           0        0.546680   -3.096339   -0.000000
      7          1           0        0.000000    1.056104    0.000000
      8          1           0       -0.000000   -1.056104    0.000000
      9          1           0       -0.546680    3.096339   -0.000000
     10          1           0       -0.546680    0.984132   -0.000000
     11          1           0       -1.093359    5.136575   -0.000000
     12          1           0       -1.093359    3.024368   -0.000000
     13          1           0       -1.640039    7.176811   -0.000000
     14          1           0       -1.640039    5.064603   -0.000000
 ---------------------------------------------------------------------

 SCF Done:  E(RHF) =  -6.73487156799     A.U. after    5 cycles
 E2 =    -0.1271322154D+01 EUMP2 =    -0.80061937223154D+01

 The electronic state is 1-AG.
 Alpha  occ. eigenvalues --   -0.73525  -0.72471  -0.70626  -0.68311  -0.65901
 Alpha  occ. eigenvalues --   -0.63848  -0.19418
 Alpha virt. eigenvalues --   -0.15819   0.44569   0.47874   0.53219   0.59767
 Alpha virt. eigenvalues --    0.66293   0.71307

 Mulliken charges:
               1
     1  H    0.001165
     2  H   -0.001150
     3  H   -0.000318
     4  H   -0.000221
     5  H   -0.000047
     6  H    0.000512
     7  H    0.000058
     8  H    0.000058
     9  H    0.000512
    10  H   -0.000047
    11  H   -0.000221
    12  H   -0.000318
    13  H   -0.001150
    14  H    0.001165
 Sum of Mulliken charges =  -0.00000

 Dipole moment (field-independent basis, Debye):
    X=              0.0000    Y=             -0.0000    Z=              0.0000  Tot=              0.0000
 Quadrupole moment (field-independent basis, Debye-Ang):
   XX=            -17.3210   YY=            -23.0635   ZZ=            -18.6573
   XY=              1.2189   XZ=             -0.0000   YZ=              0.0000

 Normal termination of Gaussian 09 at Wed Feb 15 13:02:45 2017.
