 Gaussian 09, Revision E.01,
 Gaussian 09:  ES64L-G09RevE.01 30-Nov-2015

 ----------------------------------------------------------------------
 #rhf/gen scf(symm,tight,novaracc,noincfock,fulldiag) stable(crhf) gues
 s=read geom=nocrowd test
 ----------------------------------------------------------------------

 hf stability analysis of h12 triangular lattice, y= 1.3135898396745678
  alpha= 71.500000000000000
 ----------------------------------------------------------------------
 Symbolic Z-matrix:
 Charge =  0 Multiplicity = 1

                         Standard orientation:
 ---------------------------------------------------------------------
 Center     Atomic      Atomic             Coordinates (Angstroms)
 Number     Number       Type             X           Y           Z
 ---------------------------------------------------------------------
      1          1           0        2.500849    4.011324    0.000000
      2          1           0        2.500849    2.626154    0.000000
      3          1           0        1.667233    2.905078    0.000000
      4          1           0        1.667233    1.519907    0.000000
      5          1           0        0.833616    1.798831    0.000000
      6          1           0        0.833616    0.413661    0.000000
      7          1           0       -0.000000    0.692585    0.000000
      8          1           0       -0.000000   -0.692585    0.000000
      9          1           0       -0.833616   -0.413661    0.000000
     10          1           0       -0.833616   -1.798831    0.000000
     11          1           0       -1.667233   -1.519907    0.000000
     12          1           0       -1.667233   -2.905078    0.000000
     13          1           0       -2.500849   -2.626154    0.000000
     14          1           0       -2.500849   -4.011324    0.000000
 ---------------------------------------------------------------------

 SCF Done:  E(RHF) =  -6.66862966696     A.U. after   11 cycles
 E2 =    -0.3240314959D+00 EUMP2 =    -0.69926611629040D+01

 The electronic state is 1-AG.
 Alpha  occ. eigenvalues --   -0.81289  -0.77013  -0.69888  -0.59692  -0.46972
 Alpha  occ. eigenvalues --   -0.32418  -0.08017
 Alpha virt. eigenvalues --    0.00490   0.08456   0.14660   0.25293   0.38827
 Alpha virt. eigenvalues --    0.53123   0.63141

 Mulliken charges:
               1
     1  H   -0.203220
     2  H   -0.003886
     3  H    0.142574
     4  H    0.023752
     5  H   -0.025124
     6  H    0.025886
     7  H    0.040019
     8  H    0.040019
     9  H    0.025886
    10  H   -0.025124
    11  H    0.023752
    12  H    0.142574
    13  H   -0.003886
    14  H   -0.203220
 Sum of Mulliken charges =  -0.00000

 Dipole moment (field-independent basis, Debye):
    X=              0.0000    Y=              0.0000    Z=             -0.0000  Tot=              0.0000
 Quadrupole moment (field-independent basis, Debye-Ang):
   XX=            -26.4521   YY=            -44.3611   ZZ=            -17.6676
   XY=            -18.0085   XZ=             -0.0000   YZ=             -0.0000

 Normal termination of Gaussian 09 at Wed Feb 15 13:14:22 2017.
