 Gaussian 09, Revision E.01,
 Gaussian 09:  ES64L-G09RevE.01 30-Nov-2015

 ----------------------------------------------------------------------
 #rhf/gen scf(symm,tight,novaracc,noincfock,fulldiag) stable(crhf) gues
 s=read geom=nocrowd test
 ----------------------------------------------------------------------

 hf stability analysis of h12 triangular lattice, y= 0.2564775935039079
 2 alpha= 6.5000000000000000
 ----------------------------------------------------------------------
 Symbolic Z-matrix:
 Charge =  0 Multiplicity = 1

                         Standard orientation:
 ---------------------------------------------------------------------
 Center     Atomic      Atomic             Coordinates (Angstroms)
 Number     Number       Type             X           Y           Z
 ---------------------------------------------------------------------
      1          1           0        1.528973   -5.489892    0.000000
      2          1           0        1.528973   -7.755531    0.000000
      3          1           0        1.019316   -3.282322    0.000000
      4          1           0        1.019316   -5.547960    0.000000
      5          1           0        0.509658   -1.074751    0.000000
      6          1           0        0.509658   -3.340390    0.000000
      7          1           0        0.000000    1.132819    0.000000
      8          1           0       -0.000000   -1.132819   -0.000000
      9          1           0       -0.509658    3.340390    0.000000
     10          1           0       -0.509658    1.074751    0.000000
     11          1           0       -1.019316    5.547960    0.000000
     12          1           0       -1.019316    3.282322    0.000000
     13          1           0       -1.528973    7.755531    0.000000
     14          1           0       -1.528973    5.489892    0.000000
 ---------------------------------------------------------------------

 SCF Done:  E(RHF) =  -6.52550290436     A.U. after    5 cycles
 E2 =    -0.1370047300D+01 EUMP2 =    -0.78955502045344D+01

 The electronic state is 1-AG.
 Alpha  occ. eigenvalues --   -0.73650  -0.72865  -0.71546  -0.69939  -0.68331
 Alpha  occ. eigenvalues --   -0.67028  -0.19731
 Alpha virt. eigenvalues --   -0.16382   0.49964   0.52826   0.57351   0.62818
 Alpha virt. eigenvalues --    0.68188   0.72241

 Mulliken charges:
               1
     1  H    0.000257
     2  H    0.000792
     3  H   -0.000190
     4  H   -0.001096
     5  H   -0.000024
     6  H    0.000236
     7  H    0.000026
     8  H    0.000026
     9  H    0.000236
    10  H   -0.000024
    11  H   -0.001096
    12  H   -0.000190
    13  H    0.000792
    14  H    0.000257
 Sum of Mulliken charges =   0.00000

 Dipole moment (field-independent basis, Debye):
    X=             -0.0000    Y=             -0.0000    Z=              0.0000  Tot=              0.0000
 Quadrupole moment (field-independent basis, Debye-Ang):
   XX=            -17.5219   YY=            -21.8108   ZZ=            -18.7833
   XY=              0.7609   XZ=              0.0000   YZ=              0.0000

 Normal termination of Gaussian 09 at Wed Feb 15 13:02:35 2017.
