 Gaussian 09, Revision E.01,
 Gaussian 09:  ES64L-G09RevE.01 30-Nov-2015

 ----------------------------------------------------------------------
 #rhf/gen scf(symm,tight,novaracc,noincfock,fulldiag) stable(crhf) gues
 s=read geom=nocrowd test
 ----------------------------------------------------------------------

 hf stability analysis of h12 triangular lattice, y= 0.9900233955345416
 6 alpha= 59.500000000000000
 ----------------------------------------------------------------------
 Symbolic Z-matrix:
 Charge =  0 Multiplicity = 1

                         Standard orientation:
 ---------------------------------------------------------------------
 Center     Atomic      Atomic             Coordinates (Angstroms)
 Number     Number       Type             X           Y           Z
 ---------------------------------------------------------------------
      1          1           0        3.014849    2.245665    0.000000
      2          1           0        3.014849    1.096651    0.000000
      3          1           0        2.009899    1.688612    0.000000
      4          1           0        2.009899    0.539599    0.000000
      5          1           0        1.004950    1.131559    0.000000
      6          1           0        1.004950   -0.017454    0.000000
      7          1           0        0.000000    0.574507   -0.000000
      8          1           0       -0.000000   -0.574507    0.000000
      9          1           0       -1.004950    0.017454    0.000000
     10          1           0       -1.004950   -1.131559    0.000000
     11          1           0       -2.009899   -0.539599    0.000000
     12          1           0       -2.009899   -1.688612    0.000000
     13          1           0       -3.014849   -1.096651    0.000000
     14          1           0       -3.014849   -2.245665    0.000000
 ---------------------------------------------------------------------

 SCF Done:  E(RHF) =  -6.83919465708     A.U. after   10 cycles
 E2 =    -0.1624494692D+00 EUMP2 =    -0.70016441262409D+01

 The electronic state is 1-AG.
 Alpha  occ. eigenvalues --   -0.86964  -0.80364  -0.70453  -0.55242  -0.39402
 Alpha  occ. eigenvalues --   -0.36641  -0.29501
 Alpha virt. eigenvalues --    0.00152   0.08487   0.19386   0.38365   0.42894
 Alpha virt. eigenvalues --    0.65018   0.65482

 Mulliken charges:
               1
     1  H    0.032729
     2  H    0.045023
     3  H    0.072875
     4  H   -0.118924
     5  H   -0.162868
     6  H    0.117019
     7  H    0.014146
     8  H    0.014146
     9  H    0.117019
    10  H   -0.162868
    11  H   -0.118924
    12  H    0.072875
    13  H    0.045023
    14  H    0.032729
 Sum of Mulliken charges =  -0.00000

 Dipole moment (field-independent basis, Debye):
    X=             -0.0000    Y=             -0.0000    Z=              0.0000  Tot=              0.0000
 Quadrupole moment (field-independent basis, Debye-Ang):
   XX=            -16.4685   YY=            -19.7332   ZZ=            -18.1669
   XY=              3.5923   XZ=             -0.0000   YZ=              0.0000

 Normal termination of Gaussian 09 at Wed Feb 15 13:12:12 2017.
