 Gaussian 09, Revision E.01,
 Gaussian 09:  ES64L-G09RevE.01 30-Nov-2015

 ----------------------------------------------------------------------
 #rhf/gen scf(symm,tight,novaracc,noincfock,fulldiag) stable(crhf) gues
 s=read geom=nocrowd test
 ----------------------------------------------------------------------

 hf stability analysis of h12 triangular lattice, y= 1.3429973740177321
  alpha= 72.250000000000000
 ----------------------------------------------------------------------
 Symbolic Z-matrix:
 Charge =  0 Multiplicity = 1

                         Standard orientation:
 ---------------------------------------------------------------------
 Center     Atomic      Atomic             Coordinates (Angstroms)
 Number     Number       Type             X           Y           Z
 ---------------------------------------------------------------------
      1          1           0        2.456592    4.149077   -0.000000
      2          1           0        2.456592    2.738952   -0.000000
      3          1           0        1.637728    3.001072   -0.000000
      4          1           0        1.637728    1.590947   -0.000000
      5          1           0        0.818864    1.853067   -0.000000
      6          1           0        0.818864    0.442942   -0.000000
      7          1           0        0.000000    0.705063   -0.000000
      8          1           0       -0.000000   -0.705063   -0.000000
      9          1           0       -0.818864   -0.442942   -0.000000
     10          1           0       -0.818864   -1.853067   -0.000000
     11          1           0       -1.637728   -1.590947   -0.000000
     12          1           0       -1.637728   -3.001072   -0.000000
     13          1           0       -2.456592   -2.738952   -0.000000
     14          1           0       -2.456592   -4.149077   -0.000000
 ---------------------------------------------------------------------

 SCF Done:  E(RHF) =  -6.71805824390     A.U. after   10 cycles
 E2 =    -0.4066135336D+00 EUMP2 =    -0.71246717774873D+01

 The electronic state is 1-AG.
 Alpha  occ. eigenvalues --   -0.80587  -0.76676  -0.69689  -0.60026  -0.48135
 Alpha  occ. eigenvalues --   -0.34318  -0.08290
 Alpha virt. eigenvalues --   -0.00564   0.09753   0.16079   0.26663   0.39944
 Alpha virt. eigenvalues --    0.53709   0.63822

 Mulliken charges:
               1
     1  H   -0.201886
     2  H    0.012198
     3  H    0.116529
     4  H    0.025654
     5  H    0.000376
     6  H    0.017477
     7  H    0.029652
     8  H    0.029652
     9  H    0.017477
    10  H    0.000376
    11  H    0.025654
    12  H    0.116529
    13  H    0.012198
    14  H   -0.201886
 Sum of Mulliken charges =   0.00000

 Dipole moment (field-independent basis, Debye):
    X=              0.0000    Y=              0.0000    Z=              0.0000  Tot=              0.0000
 Quadrupole moment (field-independent basis, Debye-Ang):
   XX=            -25.2913   YY=            -46.1911   ZZ=            -17.6603
   XY=            -18.0521   XZ=             -0.0000   YZ=             -0.0000

 Normal termination of Gaussian 09 at Wed Feb 15 13:14:31 2017.
