 Gaussian 09, Revision E.01,
 Gaussian 09:  ES64L-G09RevE.01 30-Nov-2015

 ----------------------------------------------------------------------
 #rhf/gen scf(symm,tight,novaracc,noincfock,fulldiag) stable(crhf) gues
 s=read geom=nocrowd test
 ----------------------------------------------------------------------

 hf stability analysis of h12 triangular lattice, y= 1.9954740303864316
  alpha= 81.750000000000000
 ----------------------------------------------------------------------
 Symbolic Z-matrix:
 Charge =  0 Multiplicity = 1

                         Standard orientation:
 ---------------------------------------------------------------------
 Center     Atomic      Atomic             Coordinates (Angstroms)
 Number     Number       Type             X           Y           Z
 ---------------------------------------------------------------------
      1          1           0        1.718015    6.808091    0.000000
      2          1           0        1.718015    4.791751    0.000000
      3          1           0        1.145343    4.874784    0.000000
      4          1           0        1.145343    2.858444    0.000000
      5          1           0        0.572672    2.941477    0.000000
      6          1           0        0.572672    0.925137    0.000000
      7          1           0       -0.000000    1.008170    0.000000
      8          1           0       -0.000000   -1.008170   -0.000000
      9          1           0       -0.572672   -0.925137    0.000000
     10          1           0       -0.572672   -2.941477    0.000000
     11          1           0       -1.145343   -2.858444    0.000000
     12          1           0       -1.145343   -4.874784    0.000000
     13          1           0       -1.718015   -4.791751    0.000000
     14          1           0       -1.718015   -6.808091    0.000000
 ---------------------------------------------------------------------

 SCF Done:  E(RHF) =  -6.84354644613     A.U. after    5 cycles
 E2 =    -0.1206034306D+01 EUMP2 =    -0.80495807518865D+01

 The electronic state is 1-AG.
 Alpha  occ. eigenvalues --   -0.73565  -0.72322  -0.70073  -0.67203  -0.64135
 Alpha  occ. eigenvalues --   -0.61426  -0.19087
 Alpha virt. eigenvalues --   -0.15307   0.40965   0.44553   0.50458   0.57760
 Alpha virt. eigenvalues --    0.65103   0.70817

 Mulliken charges:
               1
     1  H   -0.003908
     2  H    0.002237
     3  H    0.001187
     4  H   -0.000413
     5  H    0.000861
     6  H   -0.000069
     7  H    0.000104
     8  H    0.000104
     9  H   -0.000069
    10  H    0.000861
    11  H   -0.000413
    12  H    0.001187
    13  H    0.002237
    14  H   -0.003908
 Sum of Mulliken charges =   0.00000

 Dipole moment (field-independent basis, Debye):
    X=             -0.0000    Y=              0.0000    Z=             -0.0000  Tot=              0.0000
 Quadrupole moment (field-independent basis, Debye-Ang):
   XX=            -17.2133   YY=            -24.1652   ZZ=            -18.5594
   XY=             -1.6651   XZ=             -0.0000   YZ=              0.0000

 Normal termination of Gaussian 09 at Wed Feb 15 13:16:10 2017.
