 Gaussian 09, Revision E.01,
 Gaussian 09:  ES64L-G09RevE.01 30-Nov-2015

 ----------------------------------------------------------------------
 #rhf/gen scf(symm,tight,novaracc,noincfock,fulldiag) stable(crhf) gues
 s=read geom=nocrowd test
 ----------------------------------------------------------------------

 hf stability analysis of h12 triangular lattice, y= 1.8574471710024862
  alpha= 80.500000000000000
 ----------------------------------------------------------------------
 Symbolic Z-matrix:
 Charge =  0 Multiplicity = 1

                         Standard orientation:
 ---------------------------------------------------------------------
 Center     Atomic      Atomic             Coordinates (Angstroms)
 Number     Number       Type             X           Y           Z
 ---------------------------------------------------------------------
      1          1           0        1.839403    6.283652    0.000000
      2          1           0        1.839403    4.400377    0.000000
      3          1           0        1.226269    4.502981    0.000000
      4          1           0        1.226269    2.619706    0.000000
      5          1           0        0.613134    2.722309    0.000000
      6          1           0        0.613134    0.839034    0.000000
      7          1           0        0.000000    0.941638    0.000000
      8          1           0       -0.000000   -0.941638    0.000000
      9          1           0       -0.613134   -0.839034    0.000000
     10          1           0       -0.613134   -2.722309    0.000000
     11          1           0       -1.226269   -2.619706    0.000000
     12          1           0       -1.226269   -4.502981    0.000000
     13          1           0       -1.839403   -4.400377    0.000000
     14          1           0       -1.839403   -6.283652    0.000000
 ---------------------------------------------------------------------

 SCF Done:  E(RHF) =  -6.95672947659     A.U. after    5 cycles
 E2 =    -0.1106458327D+01 EUMP2 =    -0.80631878037689D+01

 The electronic state is 1-AG.
 Alpha  occ. eigenvalues --   -0.73831  -0.72294  -0.69372  -0.65559  -0.61328
 Alpha  occ. eigenvalues --   -0.57369  -0.18338
 Alpha virt. eigenvalues --   -0.14265   0.35621   0.39601   0.46350   0.54795
 Alpha virt. eigenvalues --    0.63397   0.70217

 Mulliken charges:
               1
     1  H   -0.011758
     2  H    0.004854
     3  H    0.005353
     4  H   -0.000477
     5  H    0.001860
     6  H   -0.000099
     7  H    0.000267
     8  H    0.000267
     9  H   -0.000099
    10  H    0.001860
    11  H   -0.000477
    12  H    0.005353
    13  H    0.004854
    14  H   -0.011758
 Sum of Mulliken charges =   0.00000

 Dipole moment (field-independent basis, Debye):
    X=             -0.0000    Y=             -0.0000    Z=             -0.0000  Tot=              0.0000
 Quadrupole moment (field-independent basis, Debye-Ang):
   XX=            -17.1519   YY=            -26.3238   ZZ=            -18.3968
   XY=             -2.6393   XZ=             -0.0000   YZ=              0.0000

 Normal termination of Gaussian 09 at Wed Feb 15 13:15:58 2017.
