 Gaussian 09, Revision E.01,
 Gaussian 09:  ES64L-G09RevE.01 30-Nov-2015

 ----------------------------------------------------------------------
 #rhf/gen scf(symm,tight,novaracc,noincfock,fulldiag) stable(crhf) gues
 s=read geom=nocrowd test
 ----------------------------------------------------------------------

 hf stability analysis of h12 triangular lattice, y= 0.5453026111479248
 9 alpha= 27.250000000000000
 ----------------------------------------------------------------------
 Symbolic Z-matrix:
 Charge =  0 Multiplicity = 1

                         Standard orientation:
 ---------------------------------------------------------------------
 Center     Atomic      Atomic             Coordinates (Angstroms)
 Number     Number       Type             X           Y           Z
 ---------------------------------------------------------------------
      1          1           0        2.908700   -1.479283   -0.000000
      2          1           0        2.908700   -2.670228   -0.000000
      3          1           0        1.939133   -0.787698   -0.000000
      4          1           0        1.939133   -1.978643   -0.000000
      5          1           0        0.969567   -0.096113   -0.000000
      6          1           0        0.969567   -1.287058   -0.000000
      7          1           0        0.000000    0.595472    0.000000
      8          1           0       -0.000000   -0.595472   -0.000000
      9          1           0       -0.969567    1.287058    0.000000
     10          1           0       -0.969567    0.096113    0.000000
     11          1           0       -1.939133    1.978643    0.000000
     12          1           0       -1.939133    0.787698    0.000000
     13          1           0       -2.908700    2.670228    0.000000
     14          1           0       -2.908700    1.479283    0.000000
 ---------------------------------------------------------------------

 SCF Done:  E(RHF) =  -6.77718375194     A.U. after   10 cycles
 E2 =    -0.1681685391D+00 EUMP2 =    -0.69453522910080D+01

 The electronic state is 1-AG.
 Alpha  occ. eigenvalues --   -0.85542  -0.79146  -0.70198  -0.55522  -0.37484
 Alpha  occ. eigenvalues --   -0.35727  -0.26006
 Alpha virt. eigenvalues --   -0.00648   0.07938   0.18478   0.35212   0.40189
 Alpha virt. eigenvalues --    0.57030   0.64506

 Mulliken charges:
               1
     1  H    0.025165
     2  H    0.064237
     3  H   -0.123943
     4  H    0.082780
     5  H    0.128504
     6  H   -0.192075
     7  H    0.015332
     8  H    0.015332
     9  H   -0.192075
    10  H    0.128504
    11  H    0.082780
    12  H   -0.123943
    13  H    0.064237
    14  H    0.025165
 Sum of Mulliken charges =  -0.00000

 Dipole moment (field-independent basis, Debye):
    X=              0.0000    Y=              0.0000    Z=              0.0000  Tot=              0.0000
 Quadrupole moment (field-independent basis, Debye-Ang):
   XX=            -15.6853   YY=            -17.0835   ZZ=            -18.2464
   XY=             -6.0632   XZ=             -0.0000   YZ=              0.0000

 Normal termination of Gaussian 09 at Wed Feb 15 13:06:13 2017.
