 Gaussian 09, Revision E.01,
 Gaussian 09:  ES64L-G09RevE.01 30-Nov-2015

 ----------------------------------------------------------------------
 #rhf/gen scf(symm,tight,novaracc,noincfock,fulldiag) stable(crhf) gues
 s=read geom=nocrowd test
 ----------------------------------------------------------------------

 hf stability analysis of h12 triangular lattice, y= 0.6566033129082584
 6 alpha= 36.750000000000000
 ----------------------------------------------------------------------
 Symbolic Z-matrix:
 Charge =  0 Multiplicity = 1

                         Standard orientation:
 ---------------------------------------------------------------------
 Center     Atomic      Atomic             Coordinates (Angstroms)
 Number     Number       Type             X           Y           Z
 ---------------------------------------------------------------------
      1          1           0        3.156635   -0.386336   -0.000000
      2          1           0        3.156635   -1.483740   -0.000000
      3          1           0        2.104424   -0.074657   -0.000000
      4          1           0        2.104424   -1.172060   -0.000000
      5          1           0        1.052212    0.237022    0.000000
      6          1           0        1.052212   -0.860381   -0.000000
      7          1           0        0.000000    0.548702    0.000000
      8          1           0       -0.000000   -0.548702    0.000000
      9          1           0       -1.052212    0.860381   -0.000000
     10          1           0       -1.052212   -0.237022   -0.000000
     11          1           0       -2.104424    1.172060   -0.000000
     12          1           0       -2.104424    0.074657   -0.000000
     13          1           0       -3.156635    1.483740   -0.000000
     14          1           0       -3.156635    0.386336   -0.000000
 ---------------------------------------------------------------------

 SCF Done:  E(RHF) =  -6.88813568312     A.U. after   10 cycles
 E2 =    -0.1581879857D+00 EUMP2 =    -0.70463236688409D+01

 The electronic state is 1-AG.
 Alpha  occ. eigenvalues --   -0.88695  -0.81860  -0.70549  -0.54719  -0.44038
 Alpha  occ. eigenvalues --   -0.35591  -0.33691
 Alpha virt. eigenvalues --   -0.00899   0.12161   0.18916   0.42801   0.43454
 Alpha virt. eigenvalues --    0.68715   0.86054

 Mulliken charges:
               1
     1  H    0.050432
     2  H    0.005466
     3  H   -0.091262
     4  H    0.042236
     5  H    0.084897
     6  H   -0.095949
     7  H    0.004179
     8  H    0.004179
     9  H   -0.095949
    10  H    0.084897
    11  H    0.042236
    12  H   -0.091262
    13  H    0.005466
    14  H    0.050432
 Sum of Mulliken charges =  -0.00000

 Dipole moment (field-independent basis, Debye):
    X=             -0.0000    Y=              0.0000    Z=              0.0000  Tot=              0.0000
 Quadrupole moment (field-independent basis, Debye-Ang):
   XX=            -18.3318   YY=            -21.3193   ZZ=            -18.0438
   XY=             -0.7721   XZ=             -0.0000   YZ=             -0.0000

 Normal termination of Gaussian 09 at Wed Feb 15 13:07:57 2017.
