 Gaussian 09, Revision E.01,
 Gaussian 09:  ES64L-G09RevE.01 30-Nov-2015

 ----------------------------------------------------------------------
 #rhf/gen scf(symm,tight,novaracc,noincfock,fulldiag) stable(crhf) gues
 s=read geom=nocrowd test
 ----------------------------------------------------------------------

 hf stability analysis of h12 triangular lattice, y= 0.2710133450063199
 1 alpha= 7.2500000000000000
 ----------------------------------------------------------------------
 Symbolic Z-matrix:
 Charge =  0 Multiplicity = 1

                         Standard orientation:
 ---------------------------------------------------------------------
 Center     Atomic      Atomic             Coordinates (Angstroms)
 Number     Number       Type             X           Y           Z
 ---------------------------------------------------------------------
      1          1           0        1.613079   -5.163561   -0.000000
      2          1           0        1.613079   -7.311070   -0.000000
      3          1           0        1.075386   -3.084456   -0.000000
      4          1           0        1.075386   -5.231964   -0.000000
      5          1           0        0.537693   -1.005351   -0.000000
      6          1           0        0.537693   -3.152859   -0.000000
      7          1           0        0.000000    1.073754    0.000000
      8          1           0       -0.000000   -1.073754    0.000000
      9          1           0       -0.537693    3.152859   -0.000000
     10          1           0       -0.537693    1.005351   -0.000000
     11          1           0       -1.075386    5.231964   -0.000000
     12          1           0       -1.075386    3.084456   -0.000000
     13          1           0       -1.613079    7.311070   -0.000000
     14          1           0       -1.613079    5.163561   -0.000000
 ---------------------------------------------------------------------

 SCF Done:  E(RHF) =  -6.69019849352     A.U. after    5 cycles
 E2 =    -0.1294521082D+01 EUMP2 =    -0.79847195758582D+01

 The electronic state is 1-AG.
 Alpha  occ. eigenvalues --   -0.73535  -0.72547  -0.70835  -0.68701  -0.66501
 Alpha  occ. eigenvalues --   -0.64649  -0.19510
 Alpha virt. eigenvalues --   -0.15972   0.45850   0.49051   0.54199   0.60485
 Alpha virt. eigenvalues --    0.66728   0.71504

 Mulliken charges:
               1
     1  H    0.000885
     2  H   -0.000498
     3  H   -0.000284
     4  H   -0.000536
     5  H   -0.000040
     6  H    0.000426
     7  H    0.000048
     8  H    0.000048
     9  H    0.000426
    10  H   -0.000040
    11  H   -0.000536
    12  H   -0.000284
    13  H   -0.000498
    14  H    0.000885
 Sum of Mulliken charges =   0.00000

 Dipole moment (field-independent basis, Debye):
    X=             -0.0000    Y=              0.0000    Z=              0.0000  Tot=              0.0000
 Quadrupole moment (field-independent basis, Debye-Ang):
   XX=            -17.3659   YY=            -22.7274   ZZ=            -18.6895
   XY=              1.0905   XZ=             -0.0000   YZ=              0.0000

 Normal termination of Gaussian 09 at Wed Feb 15 13:02:42 2017.
