 Gaussian 09, Revision E.01,
 Gaussian 09:  ES64L-G09RevE.01 30-Nov-2015

 ----------------------------------------------------------------------
 #rhf/gen scf(symm,tight,novaracc,noincfock,fulldiag) stable(crhf) gues
 s=read geom=nocrowd test
 ----------------------------------------------------------------------

 hf stability analysis of h12 triangular lattice, y= 0.6269799200977310
 7 alpha= 34.250000000000000
 ----------------------------------------------------------------------
 Symbolic Z-matrix:
 Charge =  0 Multiplicity = 1

                         Standard orientation:
 ---------------------------------------------------------------------
 Center     Atomic      Atomic             Coordinates (Angstroms)
 Number     Number       Type             X           Y           Z
 ---------------------------------------------------------------------
      1          1           0        3.109531   -0.667863    0.000000
      2          1           0        3.109531   -1.781890    0.000000
      3          1           0        2.073021   -0.259571    0.000000
      4          1           0        2.073021   -1.373598    0.000000
      5          1           0        1.036510    0.148721    0.000000
      6          1           0        1.036510   -0.965306    0.000000
      7          1           0       -0.000000    0.557014   -0.000000
      8          1           0       -0.000000   -0.557014   -0.000000
      9          1           0       -1.036510    0.965306    0.000000
     10          1           0       -1.036510   -0.148721    0.000000
     11          1           0       -2.073021    1.373598    0.000000
     12          1           0       -2.073021    0.259571    0.000000
     13          1           0       -3.109531    1.781890    0.000000
     14          1           0       -3.109531    0.667863    0.000000
 ---------------------------------------------------------------------

 SCF Done:  E(RHF) =  -6.87619857156     A.U. after   10 cycles
 E2 =    -0.1591338686D+00 EUMP2 =    -0.70353324401378D+01

 The electronic state is 1-AG.
 Alpha  occ. eigenvalues --   -0.88148  -0.81382  -0.70554  -0.54918  -0.42532
 Alpha  occ. eigenvalues --   -0.35856  -0.32440
 Alpha virt. eigenvalues --   -0.00403   0.10667   0.19216   0.41858   0.43077
 Alpha virt. eigenvalues --    0.66902   0.78032

 Mulliken charges:
               1
     1  H    0.052430
     2  H    0.011194
     3  H   -0.105131
     4  H    0.057031
     5  H    0.100447
     6  H   -0.124563
     7  H    0.008593
     8  H    0.008593
     9  H   -0.124563
    10  H    0.100447
    11  H    0.057031
    12  H   -0.105131
    13  H    0.011194
    14  H    0.052430
 Sum of Mulliken charges =  -0.00000

 Dipole moment (field-independent basis, Debye):
    X=             -0.0000    Y=              0.0000    Z=              0.0000  Tot=              0.0000
 Quadrupole moment (field-independent basis, Debye-Ang):
   XX=            -17.6126   YY=            -21.0539   ZZ=            -18.0869
   XY=             -1.5932   XZ=              0.0000   YZ=              0.0000

 Normal termination of Gaussian 09 at Wed Feb 15 13:07:30 2017.
