 Gaussian 09, Revision E.01,
 Gaussian 09:  ES64L-G09RevE.01 30-Nov-2015

 ----------------------------------------------------------------------
 #rhf/gen scf(symm,tight,novaracc,noincfock,fulldiag) stable(crhf) gues
 s=read geom=nocrowd test
 ----------------------------------------------------------------------

 hf stability analysis of h12 triangular lattice, y= 0.8674200594573238
 1 alpha= 52.500000000000000
 ----------------------------------------------------------------------
 Symbolic Z-matrix:
 Charge =  0 Multiplicity = 1

                         Standard orientation:
 ---------------------------------------------------------------------
 Center     Atomic      Atomic             Coordinates (Angstroms)
 Number     Number       Type             X           Y           Z
 ---------------------------------------------------------------------
      1          1           0        3.168311    1.395626    0.000000
      2          1           0        3.168311    0.302267    0.000000
      3          1           0        2.112207    1.112644    0.000000
      4          1           0        2.112207    0.019285    0.000000
      5          1           0        1.056104    0.829662    0.000000
      6          1           0        1.056104   -0.263697    0.000000
      7          1           0        0.000000    0.546680    0.000000
      8          1           0       -0.000000   -0.546680    0.000000
      9          1           0       -1.056104    0.263697   -0.000000
     10          1           0       -1.056104   -0.829662   -0.000000
     11          1           0       -2.112207   -0.019285   -0.000000
     12          1           0       -2.112207   -1.112644   -0.000000
     13          1           0       -3.168311   -0.302267   -0.000000
     14          1           0       -3.168311   -1.395626   -0.000000
 ---------------------------------------------------------------------

 SCF Done:  E(RHF) =  -6.89042648586     A.U. after   10 cycles
 E2 =    -0.1580349678D+00 EUMP2 =    -0.70484614537059D+01

 The electronic state is 1-AG.
 Alpha  occ. eigenvalues --   -0.88826  -0.81976  -0.70541  -0.54665  -0.44406
 Alpha  occ. eigenvalues --   -0.35596  -0.33921
 Alpha virt. eigenvalues --   -0.01030   0.12564   0.18826   0.42709   0.43811
 Alpha virt. eigenvalues --    0.69282   0.88253

 Mulliken charges:
               1
     1  H    0.004968
     2  H    0.048969
     3  H    0.037131
     4  H   -0.086421
     5  H   -0.086962
     6  H    0.079431
     7  H    0.002883
     8  H    0.002883
     9  H    0.079431
    10  H   -0.086962
    11  H   -0.086421
    12  H    0.037131
    13  H    0.048969
    14  H    0.004968
 Sum of Mulliken charges =  -0.00000

 Dipole moment (field-independent basis, Debye):
    X=             -0.0000    Y=              0.0000    Z=             -0.0000  Tot=              0.0000
 Quadrupole moment (field-independent basis, Debye-Ang):
   XX=            -18.5257   YY=            -21.3435   ZZ=            -18.0328
   XY=              0.5964   XZ=             -0.0000   YZ=              0.0000

 Normal termination of Gaussian 09 at Wed Feb 15 13:10:55 2017.
