 Gaussian 09, Revision E.01,
 Gaussian 09:  ES64L-G09RevE.01 30-Nov-2015

 ----------------------------------------------------------------------
 #rhf/gen scf(symm,tight,novaracc,noincfock,fulldiag) stable(crhf) gues
 s=read geom=nocrowd test
 ----------------------------------------------------------------------

 hf stability analysis of h12 triangular lattice, y= 0.8481530305026630
 0 alpha= 51.250000000000000
 ----------------------------------------------------------------------
 Symbolic Z-matrix:
 Charge =  0 Multiplicity = 1

                         Standard orientation:
 ---------------------------------------------------------------------
 Center     Atomic      Atomic             Coordinates (Angstroms)
 Number     Number       Type             X           Y           Z
 ---------------------------------------------------------------------
      1          1           0        3.185273    1.249926    0.000000
      2          1           0        3.185273    0.162390    0.000000
      3          1           0        2.123516    1.014540    0.000000
      4          1           0        2.123516   -0.072996    0.000000
      5          1           0        1.061758    0.779154    0.000000
      6          1           0        1.061758   -0.308382    0.000000
      7          1           0        0.000000    0.543768    0.000000
      8          1           0       -0.000000   -0.543768    0.000000
      9          1           0       -1.061758    0.308382    0.000000
     10          1           0       -1.061758   -0.779154    0.000000
     11          1           0       -2.123516    0.072996    0.000000
     12          1           0       -2.123516   -1.014540    0.000000
     13          1           0       -3.185273   -0.162390    0.000000
     14          1           0       -3.185273   -1.249926    0.000000
 ---------------------------------------------------------------------

 SCF Done:  E(RHF) =  -6.89328002171     A.U. after   10 cycles
 E2 =    -0.1578747182D+00 EUMP2 =    -0.70511547398924D+01

 The electronic state is 1-AG.
 Alpha  occ. eigenvalues --   -0.89011  -0.82141  -0.70525  -0.54583  -0.44939
 Alpha  occ. eigenvalues --   -0.35717  -0.34134
 Alpha virt. eigenvalues --   -0.01225   0.13169   0.18686   0.42561   0.44296
 Alpha virt. eigenvalues --    0.70199   0.91613

 Mulliken charges:
               1
     1  H    0.005268
     2  H    0.045795
     3  H    0.027997
     4  H   -0.077711
     5  H   -0.071675
     6  H    0.069485
     7  H    0.000840
     8  H    0.000840
     9  H    0.069485
    10  H   -0.071675
    11  H   -0.077711
    12  H    0.027997
    13  H    0.045795
    14  H    0.005268
 Sum of Mulliken charges =   0.00000

 Dipole moment (field-independent basis, Debye):
    X=              0.0000    Y=             -0.0000    Z=              0.0000  Tot=              0.0000
 Quadrupole moment (field-independent basis, Debye-Ang):
   XX=            -18.8185   YY=            -21.3486   ZZ=            -18.0165
   XY=              0.3669   XZ=             -0.0000   YZ=              0.0000

 Normal termination of Gaussian 09 at Wed Feb 15 13:10:41 2017.
