 Gaussian 09, Revision E.01,
 Gaussian 09:  ES64L-G09RevE.01 30-Nov-2015

 ----------------------------------------------------------------------
 #rhf/gen scf(symm,tight,novaracc,noincfock,fulldiag) stable(crhf) gues
 s=read geom=nocrowd test
 ----------------------------------------------------------------------

 hf stability analysis of h12 triangular lattice, y= 0.7022134528066417
 1 alpha= 40.500000000000000
 ----------------------------------------------------------------------
 Symbolic Z-matrix:
 Charge =  0 Multiplicity = 1

                         Standard orientation:
 ---------------------------------------------------------------------
 Center     Atomic      Atomic             Coordinates (Angstroms)
 Number     Number       Type             X           Y           Z
 ---------------------------------------------------------------------
      1          1           0        3.203804    0.033191    0.000000
      2          1           0        3.203804   -1.048056    0.000000
      3          1           0        2.135869    0.202335    0.000000
      4          1           0        2.135869   -0.878912    0.000000
      5          1           0        1.067935    0.371479    0.000000
      6          1           0        1.067935   -0.709767    0.000000
      7          1           0        0.000000    0.540623   -0.000000
      8          1           0       -0.000000   -0.540623   -0.000000
      9          1           0       -1.067935    0.709767    0.000000
     10          1           0       -1.067935   -0.371479    0.000000
     11          1           0       -2.135869    0.878912    0.000000
     12          1           0       -2.135869   -0.202335    0.000000
     13          1           0       -3.203804    1.048056    0.000000
     14          1           0       -3.203804   -0.033191    0.000000
 ---------------------------------------------------------------------

 SCF Done:  E(RHF) =  -6.89575334020     A.U. after    9 cycles
 E2 =    -0.1577880966D+00 EUMP2 =    -0.70535414368326D+01

 The electronic state is 1-AG.
 Alpha  occ. eigenvalues --   -0.89208  -0.82317  -0.70501  -0.54487  -0.45516
 Alpha  occ. eigenvalues --   -0.36018  -0.34188
 Alpha virt. eigenvalues --   -0.01439   0.13858   0.18520   0.42381   0.44777
 Alpha virt. eigenvalues --    0.71332   0.95526

 Mulliken charges:
               1
     1  H    0.040098
     2  H    0.007801
     3  H   -0.064310
     4  H    0.014061
     5  H    0.053837
     6  H   -0.049857
     7  H   -0.001629
     8  H   -0.001629
     9  H   -0.049857
    10  H    0.053837
    11  H    0.014061
    12  H   -0.064310
    13  H    0.007801
    14  H    0.040098
 Sum of Mulliken charges =  -0.00000

 Dipole moment (field-independent basis, Debye):
    X=              0.0000    Y=              0.0000    Z=              0.0000  Tot=              0.0000
 Quadrupole moment (field-independent basis, Debye-Ang):
   XX=            -19.1535   YY=            -21.3130   ZZ=            -17.9983
   XY=             -0.1594   XZ=              0.0000   YZ=             -0.0000

 Normal termination of Gaussian 09 at Wed Feb 15 13:08:40 2017.
