 Gaussian 09, Revision E.01,
 Gaussian 09:  ES64L-G09RevE.01 30-Nov-2015

 ----------------------------------------------------------------------
 #rhf/gen scf(symm,tight,novaracc,noincfock,fulldiag) stable(crhf) gues
 s=read geom=nocrowd test
 ----------------------------------------------------------------------

 hf stability analysis of h12 triangular lattice, y= 0.3066389812720254
 9 alpha= 9.2500000000000000
 ----------------------------------------------------------------------
 Symbolic Z-matrix:
 Charge =  0 Multiplicity = 1

                         Standard orientation:
 ---------------------------------------------------------------------
 Center     Atomic      Atomic             Coordinates (Angstroms)
 Number     Number       Type             X           Y           Z
 ---------------------------------------------------------------------
      1          1           0        1.815909   -4.473361   -0.000000
      2          1           0        1.815909   -6.381001   -0.000000
      3          1           0        1.210606   -2.664300   -0.000000
      4          1           0        1.210606   -4.571941   -0.000000
      5          1           0        0.605303   -0.855240   -0.000000
      6          1           0        0.605303   -2.762880   -0.000000
      7          1           0        0.000000    0.953820    0.000000
      8          1           0       -0.000000   -0.953820    0.000000
      9          1           0       -0.605303    2.762880   -0.000000
     10          1           0       -0.605303    0.855240   -0.000000
     11          1           0       -1.210606    4.571941   -0.000000
     12          1           0       -1.210606    2.664300   -0.000000
     13          1           0       -1.815909    6.381001   -0.000000
     14          1           0       -1.815909    4.473361   -0.000000
 ---------------------------------------------------------------------

 SCF Done:  E(RHF) =  -6.93983482826     A.U. after    5 cycles
 E2 =    -0.1125780854D+01 EUMP2 =    -0.80656156821306D+01

 The electronic state is 1-AG.
 Alpha  occ. eigenvalues --   -0.73761  -0.72280  -0.69492  -0.65868  -0.61875
 Alpha  occ. eigenvalues --   -0.58180  -0.18508
 Alpha virt. eigenvalues --   -0.14494   0.36633   0.40541   0.47130   0.55357
 Alpha virt. eigenvalues --    0.63718   0.70324

 Mulliken charges:
               1
     1  H    0.004245
     2  H   -0.009818
     3  H   -0.000481
     4  H    0.004319
     5  H   -0.000096
     6  H    0.001609
     7  H    0.000221
     8  H    0.000221
     9  H    0.001609
    10  H   -0.000096
    11  H    0.004319
    12  H   -0.000481
    13  H   -0.009818
    14  H    0.004245
 Sum of Mulliken charges =   0.00000

 Dipole moment (field-independent basis, Debye):
    X=             -0.0000    Y=             -0.0000    Z=              0.0000  Tot=              0.0000
 Quadrupole moment (field-independent basis, Debye-Ang):
   XX=            -17.1501   YY=            -25.8588   ZZ=            -18.4290
   XY=              2.4192   XZ=             -0.0000   YZ=              0.0000

 Normal termination of Gaussian 09 at Wed Feb 15 13:03:02 2017.
