 Gaussian 09, Revision E.01,
 Gaussian 09:  ES64L-G09RevE.01 30-Nov-2015

 ----------------------------------------------------------------------
 #rhf/gen scf(symm,tight,novaracc,noincfock,fulldiag) stable(crhf) gues
 s=read geom=nocrowd test
 ----------------------------------------------------------------------

 hf stability analysis of h12 triangular lattice, y= 0.4768902663057268
 4 alpha= 21.500000000000000
 ----------------------------------------------------------------------
 Symbolic Z-matrix:
 Charge =  0 Multiplicity = 1

                         Standard orientation:
 ---------------------------------------------------------------------
 Center     Atomic      Atomic             Coordinates (Angstroms)
 Number     Number       Type             X           Y           Z
 ---------------------------------------------------------------------
      1          1           0        2.662242   -2.204307   -0.000000
      2          1           0        2.662242   -3.505504   -0.000000
      3          1           0        1.774828   -1.252672   -0.000000
      4          1           0        1.774828   -2.553869   -0.000000
      5          1           0        0.887414   -0.301037   -0.000000
      6          1           0        0.887414   -1.602234   -0.000000
      7          1           0        0.000000    0.650598    0.000000
      8          1           0       -0.000000   -0.650598    0.000000
      9          1           0       -0.887414    1.602234   -0.000000
     10          1           0       -0.887414    0.301037   -0.000000
     11          1           0       -1.774828    2.553869   -0.000000
     12          1           0       -1.774828    1.252672   -0.000000
     13          1           0       -2.662242    3.505504   -0.000000
     14          1           0       -2.662242    2.204307   -0.000000
 ---------------------------------------------------------------------

 SCF Done:  E(RHF) =  -6.57763766508     A.U. after   14 cycles
 E2 =    -0.2067442907D+00 EUMP2 =    -0.67843819557797D+01

 The electronic state is 1-AG.
 Alpha  occ. eigenvalues --   -0.84271  -0.77394  -0.69999  -0.58106  -0.41214
 Alpha  occ. eigenvalues --   -0.26813  -0.15108
 Alpha virt. eigenvalues --   -0.03899   0.10230   0.13059   0.23962   0.34193
 Alpha virt. eigenvalues --    0.52451   0.61956

 Mulliken charges:
               1
     1  H   -0.003086
     2  H   -0.070605
     3  H   -0.181453
     4  H    0.157367
     5  H    0.255718
     6  H   -0.105939
     7  H   -0.052003
     8  H   -0.052003
     9  H   -0.105939
    10  H    0.255718
    11  H    0.157367
    12  H   -0.181453
    13  H   -0.070605
    14  H   -0.003086
 Sum of Mulliken charges =   0.00000

 Dipole moment (field-independent basis, Debye):
    X=             -0.0000    Y=             -0.0000    Z=              0.0000  Tot=              0.0000
 Quadrupole moment (field-independent basis, Debye-Ang):
   XX=            -25.0381   YY=            -25.8336   ZZ=            -18.0634
   XY=              5.5933   XZ=              0.0000   YZ=             -0.0000

 Normal termination of Gaussian 09 at Wed Feb 15 13:05:10 2017.
