 Gaussian 09, Revision E.01,
 Gaussian 09:  ES64L-G09RevE.01 30-Nov-2015

 ----------------------------------------------------------------------
 #rhf/gen scf(symm,tight,novaracc,noincfock,fulldiag) stable(crhf) gues
 s=read geom=nocrowd test
 ----------------------------------------------------------------------

 hf stability analysis of h12 triangular lattice, y= 0.7598357022583297
 5 alpha= 45.000000000000000
 ----------------------------------------------------------------------
 Symbolic Z-matrix:
 Charge =  0 Multiplicity = 1

                         Standard orientation:
 ---------------------------------------------------------------------
 Center     Atomic      Atomic             Coordinates (Angstroms)
 Number     Number       Type             X           Y           Z
 ---------------------------------------------------------------------
      1          1           0       -0.000000    3.223710    0.537285
      2          1           0        0.000000    3.223710   -0.537285
      3          1           0       -0.000000    2.149140    0.537285
      4          1           0        0.000000    2.149140   -0.537285
      5          1           0       -0.000000    1.074570    0.537285
      6          1           0        0.000000    1.074570   -0.537285
      7          1           0        0.000000    0.000000    0.537285
      8          1           0        0.000000   -0.000000   -0.537285
      9          1           0       -0.000000   -1.074570    0.537285
     10          1           0       -0.000000   -1.074570   -0.537285
     11          1           0       -0.000000   -2.149140    0.537285
     12          1           0       -0.000000   -2.149140   -0.537285
     13          1           0       -0.000000   -3.223710    0.537285
     14          1           0       -0.000000   -3.223710   -0.537285
 ---------------------------------------------------------------------

 SCF Done:  E(RHF) =  -6.89765824344     A.U. after    7 cycles
 E2 =    -0.1578048147D+00 EUMP2 =    -0.70554630581004D+01

 The electronic state is 1-AG.
 Alpha  occ. eigenvalues --   -0.89413  -0.82503  -0.70466  -0.54377  -0.46132
 Alpha  occ. eigenvalues --   -0.36476  -0.34100
 Alpha virt. eigenvalues --   -0.01668   0.14629   0.18330   0.42168   0.45232
 Alpha virt. eigenvalues --    0.72711   1.00042

 Mulliken charges:
               1
     1  H    0.022241
     2  H    0.022241
     3  H   -0.025468
     4  H   -0.025468
     5  H    0.005521
     6  H    0.005521
     7  H   -0.004588
     8  H   -0.004588
     9  H    0.005521
    10  H    0.005521
    11  H   -0.025468
    12  H   -0.025468
    13  H    0.022241
    14  H    0.022241
 Sum of Mulliken charges =   0.00000

 Dipole moment (field-independent basis, Debye):
    X=             -0.0000    Y=              0.0000    Z=             -0.0000  Tot=              0.0000
 Quadrupole moment (field-independent basis, Debye-Ang):
   XX=            -17.9784   YY=            -19.5309   ZZ=            -21.2262
   XY=             -0.0000   XZ=              0.0000   YZ=             -0.0000

 Normal termination of Gaussian 09 at Wed Feb 15 13:09:29 2017.
