 Gaussian 09, Revision E.01,
 Gaussian 09:  ES64L-G09RevE.01 30-Nov-2015

 ----------------------------------------------------------------------
 #rhf/gen scf(symm,tight,novaracc,noincfock,fulldiag) stable(crhf) gues
 s=read geom=nocrowd test
 ----------------------------------------------------------------------

 hf stability analysis of h12 triangular lattice, y= 0.4035215248364041
 9 alpha= 15.750000000000000
 ----------------------------------------------------------------------
 Symbolic Z-matrix:
 Charge =  0 Multiplicity = 1

                         Standard orientation:
 ---------------------------------------------------------------------
 Center     Atomic      Atomic             Coordinates (Angstroms)
 Number     Number       Type             X           Y           Z
 ---------------------------------------------------------------------
      1          1           0        2.330228   -3.059291   -0.000000
      2          1           0        2.330228   -4.545884   -0.000000
      3          1           0        1.553486   -1.791761   -0.000000
      4          1           0        1.553486   -3.278355   -0.000000
      5          1           0        0.776743   -0.524232   -0.000000
      6          1           0        0.776743   -2.010826   -0.000000
      7          1           0        0.000000    0.743297    0.000000
      8          1           0       -0.000000   -0.743297    0.000000
      9          1           0       -0.776743    2.010826   -0.000000
     10          1           0       -0.776743    0.524232   -0.000000
     11          1           0       -1.553486    3.278355   -0.000000
     12          1           0       -1.553486    1.791761   -0.000000
     13          1           0       -2.330228    4.545884   -0.000000
     14          1           0       -2.330228    3.059291   -0.000000
 ---------------------------------------------------------------------

 SCF Done:  E(RHF) =  -6.85291950420     A.U. after    8 cycles
 E2 =    -0.5990065127D+00 EUMP2 =    -0.74519260168561D+01

 The electronic state is 1-AG.
 Alpha  occ. eigenvalues --   -0.78268  -0.75178  -0.69019  -0.60743  -0.50679
 Alpha  occ. eigenvalues --   -0.39099  -0.10887
 Alpha virt. eigenvalues --   -0.04695   0.15132   0.20765   0.30703   0.43160
 Alpha virt. eigenvalues --    0.56001   0.66150

 Mulliken charges:
               1
     1  H    0.024775
     2  H   -0.144306
     3  H    0.013334
     4  H    0.069756
     5  H    0.006731
     6  H    0.017170
     7  H    0.012540
     8  H    0.012540
     9  H    0.017170
    10  H    0.006731
    11  H    0.069756
    12  H    0.013334
    13  H   -0.144306
    14  H    0.024775
 Sum of Mulliken charges =  -0.00000

 Dipole moment (field-independent basis, Debye):
    X=              0.0000    Y=             -0.0000    Z=              0.0000  Tot=              0.0000
 Quadrupole moment (field-independent basis, Debye-Ang):
   XX=            -21.5920   YY=            -43.0621   ZZ=            -17.7582
   XY=             13.7688   XZ=              0.0000   YZ=             -0.0000

 Normal termination of Gaussian 09 at Wed Feb 15 13:04:07 2017.
