 Gaussian 09, Revision E.01,
 Gaussian 09:  ES64L-G09RevE.01 30-Nov-2015

 ----------------------------------------------------------------------
 #rhf/gen scf(symm,tight,novaracc,noincfock,fulldiag) stable(crhf) gues
 s=read geom=nocrowd test
 ----------------------------------------------------------------------

 hf stability analysis of h12 triangular lattice, y= 0.2411143230343760
 2 alpha= 5.7500000000000000
 ----------------------------------------------------------------------
 Symbolic Z-matrix:
 Charge =  0 Multiplicity = 1

                         Standard orientation:
 ---------------------------------------------------------------------
 Center     Atomic      Atomic             Coordinates (Angstroms)
 Number     Number       Type             X           Y           Z
 ---------------------------------------------------------------------
      1          1           0        1.439407   -5.871602    0.000000
      2          1           0        1.439407   -8.278220    0.000000
      3          1           0        0.959605   -3.513299    0.000000
      4          1           0        0.959605   -5.919916    0.000000
      5          1           0        0.479802   -1.154995    0.000000
      6          1           0        0.479802   -3.561612    0.000000
      7          1           0        0.000000    1.203309   -0.000000
      8          1           0       -0.000000   -1.203309   -0.000000
      9          1           0       -0.479802    3.561612    0.000000
     10          1           0       -0.479802    1.154995    0.000000
     11          1           0       -0.959605    5.919916    0.000000
     12          1           0       -0.959605    3.513299    0.000000
     13          1           0       -1.439407    8.278220    0.000000
     14          1           0       -1.439407    5.871602    0.000000
 ---------------------------------------------------------------------

 SCF Done:  E(RHF) =  -6.30383669309     A.U. after    5 cycles
 E2 =    -0.1457742430D+01 EUMP2 =    -0.77615791231764D+01

 The electronic state is 1-AG.
 Alpha  occ. eigenvalues --   -0.73920  -0.73341  -0.72398  -0.71281  -0.70199
 Alpha  occ. eigenvalues --   -0.69356  -0.19875
 Alpha virt. eigenvalues --   -0.16726   0.54547   0.57024   0.60880   0.65482
 Alpha virt. eigenvalues --    0.69949   0.73273

 Mulliken charges:
               1
     1  H   -0.000096
     2  H    0.001284
     3  H   -0.000114
     4  H   -0.001197
     5  H   -0.000013
     6  H    0.000123
     7  H    0.000014
     8  H    0.000014
     9  H    0.000123
    10  H   -0.000013
    11  H   -0.001197
    12  H   -0.000114
    13  H    0.001284
    14  H   -0.000096
 Sum of Mulliken charges =   0.00000

 Dipole moment (field-independent basis, Debye):
    X=              0.0000    Y=              0.0000    Z=              0.0000  Tot=              0.0000
 Quadrupole moment (field-independent basis, Debye-Ang):
   XX=            -17.7008   YY=            -21.0296   ZZ=            -18.8700
   XY=              0.5064   XZ=              0.0000   YZ=             -0.0000

 Normal termination of Gaussian 09 at Wed Feb 15 13:02:28 2017.
