 Gaussian 09, Revision E.01,
 Gaussian 09:  ES64L-G09RevE.01 30-Nov-2015

 ----------------------------------------------------------------------
 #rhf/gen scf(symm,tight,novaracc,noincfock,fulldiag) stable(crhf) gues
 s=read geom=nocrowd test
 ----------------------------------------------------------------------

 hf stability analysis of h12 triangular lattice, y= 0.4890258879954954
 6 alpha= 22.500000000000000
 ----------------------------------------------------------------------
 Symbolic Z-matrix:
 Charge =  0 Multiplicity = 1

                         Standard orientation:
 ---------------------------------------------------------------------
 Center     Atomic      Atomic             Coordinates (Angstroms)
 Number     Number       Type             X           Y           Z
 ---------------------------------------------------------------------
      1          1           0        2.710806   -2.071863    0.000000
      2          1           0        2.710806   -3.349749    0.000000
      3          1           0        1.807204   -1.168261    0.000000
      4          1           0        1.807204   -2.446147    0.000000
      5          1           0        0.903602   -0.264659    0.000000
      6          1           0        0.903602   -1.542545    0.000000
      7          1           0        0.000000    0.638943    0.000000
      8          1           0       -0.000000   -0.638943   -0.000000
      9          1           0       -0.903602    1.542545    0.000000
     10          1           0       -0.903602    0.264659    0.000000
     11          1           0       -1.807204    2.446147    0.000000
     12          1           0       -1.807204    1.168261    0.000000
     13          1           0       -2.710806    3.349749    0.000000
     14          1           0       -2.710806    2.071863    0.000000
 ---------------------------------------------------------------------

 SCF Done:  E(RHF) =  -6.61007013332     A.U. after   12 cycles
 E2 =    -0.1862199332D+00 EUMP2 =    -0.67962900665362D+01

 The electronic state is 1-AG.
 Alpha  occ. eigenvalues --   -0.83493  -0.76965  -0.69579  -0.56406  -0.39135
 Alpha  occ. eigenvalues --   -0.28514  -0.19024
 Alpha virt. eigenvalues --   -0.04713   0.10171   0.13443   0.27586   0.33709
 Alpha virt. eigenvalues --    0.53621   0.64236

 Mulliken charges:
               1
     1  H   -0.041882
     2  H    0.087906
     3  H   -0.139587
     4  H    0.126556
     5  H    0.218277
     6  H   -0.215364
     7  H   -0.035907
     8  H   -0.035907
     9  H   -0.215364
    10  H    0.218277
    11  H    0.126556
    12  H   -0.139587
    13  H    0.087906
    14  H   -0.041882
 Sum of Mulliken charges =  -0.00000

 Dipole moment (field-independent basis, Debye):
    X=             -0.0000    Y=              0.0000    Z=              0.0000  Tot=              0.0000
 Quadrupole moment (field-independent basis, Debye-Ang):
   XX=            -17.9499   YY=            -12.7447   ZZ=            -18.3151
   XY=             -7.0231   XZ=             -0.0000   YZ=              0.0000

 Normal termination of Gaussian 09 at Wed Feb 15 13:05:21 2017.
