 Gaussian 09, Revision E.01,
 Gaussian 09:  ES64L-G09RevE.01 30-Nov-2015

 ----------------------------------------------------------------------
 #rhf/gen scf(symm,tight,novaracc,noincfock,fulldiag) stable(crhf) gues
 s=read geom=nocrowd test
 ----------------------------------------------------------------------

 hf stability analysis of h12 triangular lattice, y= 0.7115635020464597
 9 alpha= 41.250000000000000
 ----------------------------------------------------------------------
 Symbolic Z-matrix:
 Charge =  0 Multiplicity = 1

                         Standard orientation:
 ---------------------------------------------------------------------
 Center     Atomic      Atomic             Coordinates (Angstroms)
 Number     Number       Type             X           Y           Z
 ---------------------------------------------------------------------
      1          1           0        3.209891    0.117008    0.000000
      2          1           0        3.209891   -0.962188    0.000000
      3          1           0        2.139927    0.257871    0.000000
      4          1           0        2.139927   -0.821325    0.000000
      5          1           0        1.069964    0.398735    0.000000
      6          1           0        1.069964   -0.680461    0.000000
      7          1           0        0.000000    0.539598    0.000000
      8          1           0       -0.000000   -0.539598   -0.000000
      9          1           0       -1.069964    0.680461    0.000000
     10          1           0       -1.069964   -0.398735    0.000000
     11          1           0       -2.139927    0.821325    0.000000
     12          1           0       -2.139927   -0.257871    0.000000
     13          1           0       -3.209891    0.962188    0.000000
     14          1           0       -3.209891   -0.117008    0.000000
 ---------------------------------------------------------------------

 SCF Done:  E(RHF) =  -6.89641864142     A.U. after    9 cycles
 E2 =    -0.1577807782D+00 EUMP2 =    -0.70541994196671D+01

 The electronic state is 1-AG.
 Alpha  occ. eigenvalues --   -0.89271  -0.82375  -0.70491  -0.54454  -0.45705
 Alpha  occ. eigenvalues --   -0.36147  -0.34173
 Alpha virt. eigenvalues --   -0.01509   0.14090   0.18464   0.42318   0.44923
 Alpha virt. eigenvalues --    0.71736   0.96871

 Mulliken charges:
               1
     1  H    0.037319
     2  H    0.009536
     3  H   -0.058197
     4  H    0.007751
     5  H    0.046542
     6  H   -0.040452
     7  H   -0.002498
     8  H   -0.002498
     9  H   -0.040452
    10  H    0.046542
    11  H    0.007751
    12  H   -0.058197
    13  H    0.009536
    14  H    0.037319
 Sum of Mulliken charges =  -0.00000

 Dipole moment (field-independent basis, Debye):
    X=             -0.0000    Y=              0.0000    Z=              0.0000  Tot=              0.0000
 Quadrupole moment (field-independent basis, Debye-Ang):
   XX=            -19.2670   YY=            -21.2918   ZZ=            -17.9923
   XY=             -0.1038   XZ=              0.0000   YZ=             -0.0000

 Normal termination of Gaussian 09 at Wed Feb 15 13:08:48 2017.
