 Gaussian 09, Revision E.01,
 Gaussian 09:  ES64L-G09RevE.01 30-Nov-2015

 ----------------------------------------------------------------------
 #rhf/gen scf(symm,tight,novaracc,noincfock,fulldiag) stable(crhf) gues
 s=read geom=nocrowd test
 ----------------------------------------------------------------------

 hf stability analysis of h12 triangular lattice, y= 1.4428645490710084
  alpha= 74.500000000000000
 ----------------------------------------------------------------------
 Symbolic Z-matrix:
 Charge =  0 Multiplicity = 1

                         Standard orientation:
 ---------------------------------------------------------------------
 Center     Atomic      Atomic             Coordinates (Angstroms)
 Number     Number       Type             X           Y           Z
 ---------------------------------------------------------------------
      1          1           0        2.313533    4.599026   -0.000000
      2          1           0        2.313533    3.101704   -0.000000
      3          1           0        1.542355    3.315571   -0.000000
      4          1           0        1.542355    1.818249   -0.000000
      5          1           0        0.771178    2.032116   -0.000000
      6          1           0        0.771178    0.534794   -0.000000
      7          1           0        0.000000    0.748661    0.000000
      8          1           0       -0.000000   -0.748661    0.000000
      9          1           0       -0.771178   -0.534794   -0.000000
     10          1           0       -0.771178   -2.032116   -0.000000
     11          1           0       -1.542355   -1.818249   -0.000000
     12          1           0       -1.542355   -3.315571   -0.000000
     13          1           0       -2.313533   -3.101704   -0.000000
     14          1           0       -2.313533   -4.599026   -0.000000
 ---------------------------------------------------------------------

 SCF Done:  E(RHF) =  -6.86846588001     A.U. after    8 cycles
 E2 =    -0.6212869739D+00 EUMP2 =    -0.74897528539038D+01

 The electronic state is 1-AG.
 Alpha  occ. eigenvalues --   -0.77988  -0.74986  -0.68948  -0.60844  -0.50999
 Alpha  occ. eigenvalues --   -0.39717  -0.11266
 Alpha virt. eigenvalues --   -0.05217   0.15863   0.21405   0.31240   0.43580
 Alpha virt. eigenvalues --    0.56308   0.66424

 Mulliken charges:
               1
     1  H   -0.135995
     2  H    0.024638
     3  H    0.065487
     4  H    0.011887
     5  H    0.016935
     6  H    0.005867
     7  H    0.011182
     8  H    0.011182
     9  H    0.005867
    10  H    0.016935
    11  H    0.011887
    12  H    0.065487
    13  H    0.024638
    14  H   -0.135995
 Sum of Mulliken charges =  -0.00000

 Dipole moment (field-independent basis, Debye):
    X=             -0.0000    Y=              0.0000    Z=              0.0000  Tot=              0.0000
 Quadrupole moment (field-independent basis, Debye-Ang):
   XX=            -21.1889   YY=            -42.3446   ZZ=            -17.7760
   XY=            -13.1267   XZ=              0.0000   YZ=              0.0000

 Normal termination of Gaussian 09 at Wed Feb 15 13:14:53 2017.
