 Gaussian 09, Revision E.01,
 Gaussian 09:  ES64L-G09RevE.01 30-Nov-2015

 ----------------------------------------------------------------------
 #rhf/gen scf(symm,tight,novaracc,noincfock,fulldiag) stable(crhf) gues
 s=read geom=nocrowd test
 ----------------------------------------------------------------------

 hf stability analysis of h12 triangular lattice, y= 1.5360456330340897
  alpha= 76.250000000000000
 ----------------------------------------------------------------------
 Symbolic Z-matrix:
 Charge =  0 Multiplicity = 1

                         Standard orientation:
 ---------------------------------------------------------------------
 Center     Atomic      Atomic             Coordinates (Angstroms)
 Number     Number       Type             X           Y           Z
 ---------------------------------------------------------------------
      1          1           0        2.190578    4.998744   -0.000000
      2          1           0        2.190578    3.417380   -0.000000
      3          1           0        1.460385    3.596057   -0.000000
      4          1           0        1.460385    2.014692   -0.000000
      5          1           0        0.730193    2.193369   -0.000000
      6          1           0        0.730193    0.612005   -0.000000
      7          1           0        0.000000    0.790682    0.000000
      8          1           0       -0.000000   -0.790682    0.000000
      9          1           0       -0.730193   -0.612005    0.000000
     10          1           0       -0.730193   -2.193369    0.000000
     11          1           0       -1.460385   -2.014692    0.000000
     12          1           0       -1.460385   -3.596057    0.000000
     13          1           0       -2.190578   -3.417380    0.000000
     14          1           0       -2.190578   -4.998744    0.000000
 ---------------------------------------------------------------------

 SCF Done:  E(RHF) =  -6.96073396019     A.U. after    7 cycles
 E2 =    -0.7732488806D+00 EUMP2 =    -0.77339828407993D+01

 The electronic state is 1-AG.
 Alpha  occ. eigenvalues --   -0.76259  -0.73783  -0.68622  -0.61721  -0.53442
 Alpha  occ. eigenvalues --   -0.44330  -0.13845
 Alpha virt. eigenvalues --   -0.08592   0.21106   0.26107   0.35164   0.46595
 Alpha virt. eigenvalues --    0.58425   0.68046

 Mulliken charges:
               1
     1  H   -0.083078
     2  H    0.019948
     3  H    0.040488
     4  H    0.004371
     5  H    0.011896
     6  H    0.001792
     7  H    0.004583
     8  H    0.004583
     9  H    0.001792
    10  H    0.011896
    11  H    0.004371
    12  H    0.040488
    13  H    0.019948
    14  H   -0.083078
 Sum of Mulliken charges =   0.00000

 Dipole moment (field-independent basis, Debye):
    X=              0.0000    Y=             -0.0000    Z=              0.0000  Tot=              0.0000
 Quadrupole moment (field-independent basis, Debye-Ang):
   XX=            -18.9644   YY=            -36.9680   ZZ=            -17.9206
   XY=             -8.9458   XZ=              0.0000   YZ=              0.0000

 Normal termination of Gaussian 09 at Wed Feb 15 13:15:15 2017.
