 Gaussian 09, Revision E.01,
 Gaussian 09:  ES64L-G09RevE.01 30-Nov-2015

 ----------------------------------------------------------------------
 #rhf/gen scf(symm,tight,novaracc,noincfock,fulldiag) stable(crhf) gues
 s=read geom=nocrowd test
 ----------------------------------------------------------------------

 hf stability analysis of h12 triangular lattice, y= 1.0258511839050852
  alpha= 61.250000000000000
 ----------------------------------------------------------------------
 Symbolic Z-matrix:
 Charge =  0 Multiplicity = 1

                         Standard orientation:
 ---------------------------------------------------------------------
 Center     Atomic      Atomic             Coordinates (Angstroms)
 Number     Number       Type             X           Y           Z
 ---------------------------------------------------------------------
      1          1           0        2.960537    2.471116    0.000000
      2          1           0        2.960537    1.301024    0.000000
      3          1           0        1.973692    1.842426    0.000000
      4          1           0        1.973692    0.672334    0.000000
      5          1           0        0.986846    1.213736    0.000000
      6          1           0        0.986846    0.043644    0.000000
      7          1           0        0.000000    0.585046    0.000000
      8          1           0       -0.000000   -0.585046    0.000000
      9          1           0       -0.986846   -0.043644    0.000000
     10          1           0       -0.986846   -1.213736    0.000000
     11          1           0       -1.973692   -0.672334    0.000000
     12          1           0       -1.973692   -1.842426    0.000000
     13          1           0       -2.960537   -1.301024    0.000000
     14          1           0       -2.960537   -2.471116    0.000000
 ---------------------------------------------------------------------

 SCF Done:  E(RHF) =  -6.81016118428     A.U. after   10 cycles
 E2 =    -0.1651187513D+00 EUMP2 =    -0.69752799356187D+01

 The electronic state is 1-AG.
 Alpha  occ. eigenvalues --   -0.86245  -0.79750  -0.70339  -0.55394  -0.37543
 Alpha  occ. eigenvalues --   -0.37082  -0.27732
 Alpha virt. eigenvalues --   -0.00040   0.07936   0.19099   0.36568   0.41970
 Alpha virt. eigenvalues --    0.60366   0.64620

 Mulliken charges:
               1
     1  H    0.048308
     2  H    0.036194
     3  H    0.078304
     4  H   -0.122408
     5  H   -0.178934
     6  H    0.123040
     7  H    0.015497
     8  H    0.015497
     9  H    0.123040
    10  H   -0.178934
    11  H   -0.122408
    12  H    0.078304
    13  H    0.036194
    14  H    0.048308
 Sum of Mulliken charges =   0.00000

 Dipole moment (field-independent basis, Debye):
    X=             -0.0000    Y=              0.0000    Z=              0.0000  Tot=              0.0000
 Quadrupole moment (field-independent basis, Debye-Ang):
   XX=            -15.9969   YY=            -18.5228   ZZ=            -18.2090
   XY=              4.8493   XZ=              0.0000   YZ=              0.0000

 Normal termination of Gaussian 09 at Wed Feb 15 13:12:32 2017.
