 Gaussian 09, Revision E.01,
 Gaussian 09:  ES64L-G09RevE.01 30-Nov-2015

 ----------------------------------------------------------------------
 #rhf/gen scf(symm,tight,novaracc,noincfock,fulldiag) stable(crhf) gues
 s=read geom=nocrowd test
 ----------------------------------------------------------------------

 hf stability analysis of h12 triangular lattice, y= 0.7210052279144877
 3 alpha= 42.000000000000000
 ----------------------------------------------------------------------
 Symbolic Z-matrix:
 Charge =  0 Multiplicity = 1

                         Standard orientation:
 ---------------------------------------------------------------------
 Center     Atomic      Atomic             Coordinates (Angstroms)
 Number     Number       Type             X           Y           Z
 ---------------------------------------------------------------------
      1          1           0        3.214868    0.200866   -0.000000
      2          1           0        3.214868   -0.876659   -0.000000
      3          1           0        2.143245    0.313499   -0.000000
      4          1           0        2.143245   -0.764027   -0.000000
      5          1           0        1.071623    0.426131   -0.000000
      6          1           0        1.071623   -0.651395   -0.000000
      7          1           0        0.000000    0.538763    0.000000
      8          1           0       -0.000000   -0.538763    0.000000
      9          1           0       -1.071623    0.651395   -0.000000
     10          1           0       -1.071623   -0.426131   -0.000000
     11          1           0       -2.143245    0.764027   -0.000000
     12          1           0       -2.143245   -0.313499   -0.000000
     13          1           0       -3.214868    0.876659   -0.000000
     14          1           0       -3.214868   -0.200866   -0.000000
 ---------------------------------------------------------------------

 SCF Done:  E(RHF) =  -6.89690847633     A.U. after    9 cycles
 E2 =    -0.1577828416D+00 EUMP2 =    -0.70546913179620D+01

 The electronic state is 1-AG.
 Alpha  occ. eigenvalues --   -0.89323  -0.82421  -0.70482  -0.54427  -0.45859
 Alpha  occ. eigenvalues --   -0.36261  -0.34152
 Alpha virt. eigenvalues --   -0.01567   0.14283   0.18416   0.42265   0.45038
 Alpha virt. eigenvalues --    0.72078   0.97994

 Mulliken charges:
               1
     1  H    0.034401
     2  H    0.011600
     3  H   -0.051899
     4  H    0.001284
     5  H    0.038914
     6  H   -0.031068
     7  H   -0.003232
     8  H   -0.003232
     9  H   -0.031068
    10  H    0.038914
    11  H    0.001284
    12  H   -0.051899
    13  H    0.011600
    14  H    0.034401
 Sum of Mulliken charges =   0.00000

 Dipole moment (field-independent basis, Debye):
    X=             -0.0000    Y=              0.0000    Z=             -0.0000  Tot=              0.0000
 Quadrupole moment (field-independent basis, Debye-Ang):
   XX=            -19.3610   YY=            -21.2710   ZZ=            -17.9873
   XY=             -0.0638   XZ=              0.0000   YZ=             -0.0000

 Normal termination of Gaussian 09 at Wed Feb 15 13:08:56 2017.
