 Gaussian 09, Revision E.01,
 Gaussian 09:  ES64L-G09RevE.01 30-Nov-2015

 ----------------------------------------------------------------------
 #rhf/gen scf(symm,tight,novaracc,noincfock,fulldiag) stable(crhf) gues
 s=read geom=nocrowd test
 ----------------------------------------------------------------------

 hf stability analysis of h12 triangular lattice, y= 1.7649657119256603
  alpha= 79.500000000000000
 ----------------------------------------------------------------------
 Symbolic Z-matrix:
 Charge =  0 Multiplicity = 1

                         Standard orientation:
 ---------------------------------------------------------------------
 Center     Atomic      Atomic             Coordinates (Angstroms)
 Number     Number       Type             X           Y           Z
 ---------------------------------------------------------------------
      1          1           0        1.929837    5.924908   -0.000000
      2          1           0        1.929837    4.129885   -0.000000
      3          1           0        1.286558    4.249109   -0.000000
      4          1           0        1.286558    2.454086   -0.000000
      5          1           0        0.643279    2.573311   -0.000000
      6          1           0        0.643279    0.778287   -0.000000
      7          1           0        0.000000    0.897512    0.000000
      8          1           0       -0.000000   -0.897512    0.000000
      9          1           0       -0.643279   -0.778287    0.000000
     10          1           0       -0.643279   -2.573311    0.000000
     11          1           0       -1.286558   -2.454086    0.000000
     12          1           0       -1.286558   -4.249109    0.000000
     13          1           0       -1.929837   -4.129885    0.000000
     14          1           0       -1.929837   -5.924908    0.000000
 ---------------------------------------------------------------------

 SCF Done:  E(RHF) =  -7.00075716396     A.U. after    6 cycles
 E2 =    -0.1030453703D+01 EUMP2 =    -0.80312108671084D+01

 The electronic state is 1-AG.
 Alpha  occ. eigenvalues --   -0.74195  -0.72440  -0.68982  -0.64418  -0.59225
 Alpha  occ. eigenvalues --   -0.54147  -0.17553
 Alpha virt. eigenvalues --   -0.13243   0.31809   0.36049   0.43407   0.52671
 Alpha virt. eigenvalues --    0.62178   0.69811

 Mulliken charges:
               1
     1  H   -0.021655
     2  H    0.007704
     3  H    0.010582
     4  H   -0.000304
     5  H    0.003191
     6  H   -0.000076
     7  H    0.000557
     8  H    0.000557
     9  H   -0.000076
    10  H    0.003191
    11  H   -0.000304
    12  H    0.010582
    13  H    0.007704
    14  H   -0.021655
 Sum of Mulliken charges =  -0.00000

 Dipole moment (field-independent basis, Debye):
    X=             -0.0000    Y=              0.0000    Z=              0.0000  Tot=              0.0000
 Quadrupole moment (field-independent basis, Debye-Ang):
   XX=            -17.2457   YY=            -28.3573   ZZ=            -18.2716
   XY=             -3.6622   XZ=             -0.0000   YZ=              0.0000

 Normal termination of Gaussian 09 at Wed Feb 15 13:15:48 2017.
