 Gaussian 09, Revision E.01,
 Gaussian 09:  ES64L-G09RevE.01 30-Nov-2015

 ----------------------------------------------------------------------
 #rhf/gen scf(symm,tight,novaracc,noincfock,fulldiag) stable(crhf) gues
 s=read geom=nocrowd test
 ----------------------------------------------------------------------

 hf stability analysis of h12 triangular lattice, y= 0.6776762931058321
 1 alpha= 38.500000000000000
 ----------------------------------------------------------------------
 Symbolic Z-matrix:
 Charge =  0 Multiplicity = 1

                         Standard orientation:
 ---------------------------------------------------------------------
 Center     Atomic      Atomic             Coordinates (Angstroms)
 Number     Number       Type             X           Y           Z
 ---------------------------------------------------------------------
      1          1           0        3.182130   -0.190347    0.000000
      2          1           0        3.182130   -1.278958    0.000000
      3          1           0        2.121420    0.054537   -0.000000
      4          1           0        2.121420   -1.034074    0.000000
      5          1           0        1.060710    0.299421   -0.000000
      6          1           0        1.060710   -0.789190    0.000000
      7          1           0       -0.000000    0.544305   -0.000000
      8          1           0       -0.000000   -0.544305   -0.000000
      9          1           0       -1.060710    0.789190    0.000000
     10          1           0       -1.060710   -0.299421   -0.000000
     11          1           0       -2.121420    1.034074    0.000000
     12          1           0       -2.121420   -0.054537   -0.000000
     13          1           0       -3.182130    1.278958    0.000000
     14          1           0       -3.182130    0.190347    0.000000
 ---------------------------------------------------------------------

 SCF Done:  E(RHF) =  -6.89279368381     A.U. after   10 cycles
 E2 =    -0.1578987133D+00 EUMP2 =    -0.70506923970825D+01

 The electronic state is 1-AG.
 Alpha  occ. eigenvalues --   -0.88977  -0.82110  -0.70529  -0.54599  -0.44840
 Alpha  occ. eigenvalues --   -0.35683  -0.34107
 Alpha virt. eigenvalues --   -0.01189   0.13055   0.18713   0.42589   0.44210
 Alpha virt. eigenvalues --    0.70020   0.90974

 Mulliken charges:
               1
     1  H    0.046497
     2  H    0.005101
     3  H   -0.079514
     4  H    0.029884
     5  H    0.071558
     6  H   -0.074758
     7  H    0.001234
     8  H    0.001234
     9  H   -0.074758
    10  H    0.071558
    11  H    0.029884
    12  H   -0.079514
    13  H    0.005101
    14  H    0.046497
 Sum of Mulliken charges =   0.00000

 Dipole moment (field-independent basis, Debye):
    X=             -0.0000    Y=              0.0000    Z=             -0.0000  Tot=              0.0000
 Quadrupole moment (field-independent basis, Debye-Ang):
   XX=            -18.7633   YY=            -21.3503   ZZ=            -18.0195
   XY=             -0.4069   XZ=             -0.0000   YZ=             -0.0000

 Normal termination of Gaussian 09 at Wed Feb 15 13:08:17 2017.
