 Gaussian 09, Revision E.01,
 Gaussian 09:  ES64L-G09RevE.01 30-Nov-2015

 ----------------------------------------------------------------------
 #rhf/gen scf(symm,tight,novaracc,noincfock,fulldiag) stable(crhf) gues
 s=read geom=nocrowd test
 ----------------------------------------------------------------------

 hf stability analysis of h12 triangular lattice, y= 1.0101797939139427
  alpha= 60.500000000000000
 ----------------------------------------------------------------------
 Symbolic Z-matrix:
 Charge =  0 Multiplicity = 1

                         Standard orientation:
 ---------------------------------------------------------------------
 Center     Atomic      Atomic             Coordinates (Angstroms)
 Number     Number       Type             X           Y           Z
 ---------------------------------------------------------------------
      1          1           0        2.984618    2.373665    0.000000
      2          1           0        2.984618    1.213014    0.000000
      3          1           0        1.989745    1.775885    0.000000
      4          1           0        1.989745    0.615234    0.000000
      5          1           0        0.994873    1.178106    0.000000
      6          1           0        0.994873    0.017454    0.000000
      7          1           0        0.000000    0.580326    0.000000
      8          1           0       -0.000000   -0.580326    0.000000
      9          1           0       -0.994873   -0.017454   -0.000000
     10          1           0       -0.994873   -1.178106    0.000000
     11          1           0       -1.989745   -0.615234   -0.000000
     12          1           0       -1.989745   -1.775885    0.000000
     13          1           0       -2.984618   -1.213014   -0.000000
     14          1           0       -2.984618   -2.373665    0.000000
 ---------------------------------------------------------------------

 SCF Done:  E(RHF) =  -6.82373390213     A.U. after   10 cycles
 E2 =    -0.1638688538D+00 EUMP2 =    -0.69876027559791D+01

 The electronic state is 1-AG.
 Alpha  occ. eigenvalues --   -0.86567  -0.80025  -0.70394  -0.55329  -0.38373
 Alpha  occ. eigenvalues --   -0.36889  -0.28521
 Alpha virt. eigenvalues --    0.00103   0.08108   0.19269   0.37326   0.42483
 Alpha virt. eigenvalues --    0.62437   0.64753

 Mulliken charges:
               1
     1  H    0.041210
     2  H    0.040462
     3  H    0.076066
     4  H   -0.121143
     5  H   -0.172167
     6  H    0.120503
     7  H    0.015070
     8  H    0.015070
     9  H    0.120503
    10  H   -0.172167
    11  H   -0.121143
    12  H    0.076066
    13  H    0.040462
    14  H    0.041210
 Sum of Mulliken charges =   0.00000

 Dipole moment (field-independent basis, Debye):
    X=             -0.0000    Y=             -0.0000    Z=             -0.0000  Tot=              0.0000
 Quadrupole moment (field-independent basis, Debye-Ang):
   XX=            -16.1888   YY=            -19.0987   ZZ=            -18.1907
   XY=              4.2869   XZ=             -0.0000   YZ=              0.0000

 Normal termination of Gaussian 09 at Wed Feb 15 13:12:23 2017.
