 Gaussian 09, Revision E.01,
 Gaussian 09:  ES64L-G09RevE.01 30-Nov-2015

 ----------------------------------------------------------------------
 #rhf/gen scf(symm,tight,novaracc,noincfock,fulldiag) stable(crhf) gues
 s=read geom=nocrowd test
 ----------------------------------------------------------------------

 hf stability analysis of h12 triangular lattice, y= 0.9706441525749213
 2 alpha= 58.500000000000000
 ----------------------------------------------------------------------
 Symbolic Z-matrix:
 Charge =  0 Multiplicity = 1

                         Standard orientation:
 ---------------------------------------------------------------------
 Center     Atomic      Atomic             Coordinates (Angstroms)
 Number     Number       Type             X           Y           Z
 ---------------------------------------------------------------------
      1          1           0        3.042961    2.119665    0.000000
      2          1           0        3.042961    0.981267    0.000000
      3          1           0        2.028641    1.602843    0.000000
      4          1           0        2.028641    0.464445    0.000000
      5          1           0        1.014320    1.086021    0.000000
      6          1           0        1.014320   -0.052377    0.000000
      7          1           0        0.000000    0.569199    0.000000
      8          1           0       -0.000000   -0.569199    0.000000
      9          1           0       -1.014320    0.052377   -0.000000
     10          1           0       -1.014320   -1.086021    0.000000
     11          1           0       -2.028641   -0.464445   -0.000000
     12          1           0       -2.028641   -1.602843    0.000000
     13          1           0       -3.042961   -0.981267   -0.000000
     14          1           0       -3.042961   -2.119665    0.000000
 ---------------------------------------------------------------------

 SCF Done:  E(RHF) =  -6.85199046888     A.U. after   10 cycles
 E2 =    -0.1612818492D+00 EUMP2 =    -0.70132723180939D+01

 The electronic state is 1-AG.
 Alpha  occ. eigenvalues --   -0.87326  -0.80674  -0.70497  -0.55155  -0.40346
 Alpha  occ. eigenvalues --   -0.36407  -0.30397
 Alpha virt. eigenvalues --    0.00081   0.08992   0.19411   0.39389   0.43092
 Alpha virt. eigenvalues --    0.65386   0.68737

 Mulliken charges:
               1
     1  H    0.025402
     2  H    0.048409
     3  H    0.069321
     4  H   -0.116090
     5  H   -0.153207
     6  H    0.113245
     7  H    0.012921
     8  H    0.012921
     9  H    0.113245
    10  H   -0.153207
    11  H   -0.116090
    12  H    0.069321
    13  H    0.048409
    14  H    0.025402
 Sum of Mulliken charges =  -0.00000

 Dipole moment (field-independent basis, Debye):
    X=              0.0000    Y=             -0.0000    Z=             -0.0000  Tot=              0.0000
 Quadrupole moment (field-independent basis, Debye-Ang):
   XX=            -16.7663   YY=            -20.2324   ZZ=            -18.1441
   XY=              2.9649   XZ=             -0.0000   YZ=              0.0000

 Normal termination of Gaussian 09 at Wed Feb 15 13:12:01 2017.
