 Gaussian 09, Revision E.01,
 Gaussian 09:  ES64L-G09RevE.01 30-Nov-2015

 ----------------------------------------------------------------------
 #rhf/gen scf(symm,tight,novaracc,noincfock,fulldiag) stable(crhf) gues
 s=read geom=nocrowd test
 ----------------------------------------------------------------------

 hf stability analysis of h12 triangular lattice, y= 0.7532333993657272
 0 alpha= 44.500000000000000
 ----------------------------------------------------------------------
 Symbolic Z-matrix:
 Charge =  0 Multiplicity = 1

                         Standard orientation:
 ---------------------------------------------------------------------
 Center     Atomic      Atomic             Coordinates (Angstroms)
 Number     Number       Type             X           Y           Z
 ---------------------------------------------------------------------
      1          1           0        3.223464    0.481060    0.000000
      2          1           0        3.223464   -0.593592    0.000000
      3          1           0        2.148976    0.499815    0.000000
      4          1           0        2.148976   -0.574836    0.000000
      5          1           0        1.074488    0.518571    0.000000
      6          1           0        1.074488   -0.556081    0.000000
      7          1           0        0.000000    0.537326    0.000000
      8          1           0       -0.000000   -0.537326   -0.000000
      9          1           0       -1.074488    0.556081    0.000000
     10          1           0       -1.074488   -0.518571    0.000000
     11          1           0       -2.148976    0.574836    0.000000
     12          1           0       -2.148976   -0.499815    0.000000
     13          1           0       -3.223464    0.593592    0.000000
     14          1           0       -3.223464   -0.481060    0.000000
 ---------------------------------------------------------------------

 SCF Done:  E(RHF) =  -6.89763950778     A.U. after    8 cycles
 E2 =    -0.1578038831D+00 EUMP2 =    -0.70554433908886D+01

 The electronic state is 1-AG.
 Alpha  occ. eigenvalues --   -0.89410  -0.82501  -0.70466  -0.54378  -0.46124
 Alpha  occ. eigenvalues --   -0.36470  -0.34101
 Alpha virt. eigenvalues --   -0.01665   0.14619   0.18333   0.42171   0.45227
 Alpha virt. eigenvalues --    0.72693   0.99984

 Mulliken charges:
               1
     1  H    0.024246
     2  H    0.020278
     3  H   -0.029957
     4  H   -0.020969
     5  H    0.011364
     6  H   -0.000412
     7  H   -0.004549
     8  H   -0.004549
     9  H   -0.000412
    10  H    0.011364
    11  H   -0.020969
    12  H   -0.029957
    13  H    0.020278
    14  H    0.024246
 Sum of Mulliken charges =  -0.00000

 Dipole moment (field-independent basis, Debye):
    X=             -0.0000    Y=             -0.0000    Z=              0.0000  Tot=              0.0000
 Quadrupole moment (field-independent basis, Debye-Ang):
   XX=            -19.5261   YY=            -21.2275   ZZ=            -17.9786
   XY=             -0.0051   XZ=              0.0000   YZ=             -0.0000

 Normal termination of Gaussian 09 at Wed Feb 15 13:09:23 2017.
