 Gaussian 09, Revision E.01,
 Gaussian 09:  ES64L-G09RevE.01 30-Nov-2015

 ----------------------------------------------------------------------
 #rhf/gen scf(symm,tight,novaracc,noincfock,fulldiag) stable(crhf) gues
 s=read geom=nocrowd test
 ----------------------------------------------------------------------

 hf stability analysis of h12 triangular lattice, y= 1.1321087319861824
  alpha= 65.750000000000000
 ----------------------------------------------------------------------
 Symbolic Z-matrix:
 Charge =  0 Multiplicity = 1

                         Standard orientation:
 ---------------------------------------------------------------------
 Center     Atomic      Atomic             Coordinates (Angstroms)
 Number     Number       Type             X           Y           Z
 ---------------------------------------------------------------------
      1          1           0        2.789870    3.089104    0.000000
      2          1           0        2.789870    1.847433    0.000000
      3          1           0        1.859914    2.266348    0.000000
      4          1           0        1.859914    1.024677    0.000000
      5          1           0        0.929957    1.443592    0.000000
      6          1           0        0.929957    0.201921    0.000000
      7          1           0        0.000000    0.620836    0.000000
      8          1           0       -0.000000   -0.620836   -0.000000
      9          1           0       -0.929957   -0.201921    0.000000
     10          1           0       -0.929957   -1.443592   -0.000000
     11          1           0       -1.859914   -1.024677   -0.000000
     12          1           0       -1.859914   -2.266348   -0.000000
     13          1           0       -2.789870   -1.847433   -0.000000
     14          1           0       -2.789870   -3.089104   -0.000000
 ---------------------------------------------------------------------

 SCF Done:  E(RHF) =  -6.68297446731     A.U. after   10 cycles
 E2 =    -0.1772367945D+00 EUMP2 =    -0.68602112617950D+01

 The electronic state is 1-AG.
 Alpha  occ. eigenvalues --   -0.83981  -0.77738  -0.69792  -0.55825  -0.38364
 Alpha  occ. eigenvalues --   -0.31432  -0.21934
 Alpha virt. eigenvalues --   -0.03034   0.09185   0.15758   0.33181   0.33720
 Alpha virt. eigenvalues --    0.54075   0.64668

 Mulliken charges:
               1
     1  H    0.098305
     2  H   -0.010735
     3  H    0.097971
     4  H   -0.124754
     5  H   -0.217275
     6  H    0.152281
     7  H    0.004207
     8  H    0.004207
     9  H    0.152281
    10  H   -0.217275
    11  H   -0.124754
    12  H    0.097971
    13  H   -0.010735
    14  H    0.098305
 Sum of Mulliken charges =  -0.00000

 Dipole moment (field-independent basis, Debye):
    X=              0.0000    Y=              0.0000    Z=             -0.0000  Tot=              0.0000
 Quadrupole moment (field-independent basis, Debye-Ang):
   XX=            -15.7513   YY=            -13.1261   ZZ=            -18.3172
   XY=              8.4003   XZ=              0.0000   YZ=              0.0000

 Normal termination of Gaussian 09 at Wed Feb 15 13:13:21 2017.
