 Gaussian 09, Revision E.01,
 Gaussian 09:  ES64L-G09RevE.01 30-Nov-2015

 ----------------------------------------------------------------------
 #rhf/gen scf(symm,tight,novaracc,noincfock,fulldiag) stable(crhf) gues
 s=read geom=nocrowd test
 ----------------------------------------------------------------------

 hf stability analysis of h12 triangular lattice, y= 1.1190932273249123
  alpha= 65.250000000000000
 ----------------------------------------------------------------------
 Symbolic Z-matrix:
 Charge =  0 Multiplicity = 1

                         Standard orientation:
 ---------------------------------------------------------------------
 Center     Atomic      Atomic             Coordinates (Angstroms)
 Number     Number       Type             X           Y           Z
 ---------------------------------------------------------------------
      1          1           0        2.811116    3.017063    0.000000
      2          1           0        2.811116    1.784776    0.000000
      3          1           0        1.874077    2.216757    0.000000
      4          1           0        1.874077    0.984469    0.000000
      5          1           0        0.937039    1.416450    0.000000
      6          1           0        0.937039    0.184163    0.000000
      7          1           0        0.000000    0.616144    0.000000
      8          1           0       -0.000000   -0.616144   -0.000000
      9          1           0       -0.937039   -0.184163    0.000000
     10          1           0       -0.937039   -1.416450    0.000000
     11          1           0       -1.874077   -0.984469    0.000000
     12          1           0       -1.874077   -2.216757    0.000000
     13          1           0       -2.811116   -1.784776    0.000000
     14          1           0       -2.811116   -3.017063    0.000000
 ---------------------------------------------------------------------

 SCF Done:  E(RHF) =  -6.70158761163     A.U. after   11 cycles
 E2 =    -0.1753611298D+00 EUMP2 =    -0.68769487414257D+01

 The electronic state is 1-AG.
 Alpha  occ. eigenvalues --   -0.84239  -0.77987  -0.69869  -0.55759  -0.38206
 Alpha  occ. eigenvalues --   -0.32211  -0.22673
 Alpha virt. eigenvalues --   -0.02554   0.08894   0.16353   0.33831   0.34612
 Alpha virt. eigenvalues --    0.54284   0.64635

 Mulliken charges:
               1
     1  H    0.093320
     2  H   -0.003036
     3  H    0.093998
     4  H   -0.124433
     5  H   -0.213321
     6  H    0.145295
     7  H    0.008178
     8  H    0.008178
     9  H    0.145295
    10  H   -0.213321
    11  H   -0.124433
    12  H    0.093998
    13  H   -0.003036
    14  H    0.093320
 Sum of Mulliken charges =  -0.00000

 Dipole moment (field-independent basis, Debye):
    X=             -0.0000    Y=              0.0000    Z=              0.0000  Tot=              0.0000
 Quadrupole moment (field-independent basis, Debye-Ang):
   XX=            -15.6150   YY=            -13.8327   ZZ=            -18.3069
   XY=              8.1001   XZ=              0.0000   YZ=             -0.0000

 Normal termination of Gaussian 09 at Wed Feb 15 13:13:15 2017.
