 Gaussian 09, Revision E.01,
 Gaussian 09:  ES64L-G09RevE.01 30-Nov-2015

 ----------------------------------------------------------------------
 #rhf/gen scf(symm,tight,novaracc,noincfock,fulldiag) stable(crhf) gues
 s=read geom=nocrowd test
 ----------------------------------------------------------------------

 hf stability analysis of h12 triangular lattice, y= 0.7766002745861101
 4 alpha= 46.250000000000000
 ----------------------------------------------------------------------
 Symbolic Z-matrix:
 Charge =  0 Multiplicity = 1

                         Standard orientation:
 ---------------------------------------------------------------------
 Center     Atomic      Atomic             Coordinates (Angstroms)
 Number     Number       Type             X           Y           Z
 ---------------------------------------------------------------------
      1          1           0        3.222175    0.678224    0.000000
      2          1           0        3.222175   -0.396858    0.000000
      3          1           0        2.148117    0.631330    0.000000
      4          1           0        2.148117   -0.443752    0.000000
      5          1           0        1.074058    0.584435    0.000000
      6          1           0        1.074058   -0.490646    0.000000
      7          1           0        0.000000    0.537541    0.000000
      8          1           0       -0.000000   -0.537541   -0.000000
      9          1           0       -1.074058    0.490646    0.000000
     10          1           0       -1.074058   -0.584435    0.000000
     11          1           0       -2.148117    0.443752    0.000000
     12          1           0       -2.148117   -0.631330    0.000000
     13          1           0       -3.222175    0.396858    0.000000
     14          1           0       -3.222175   -0.678224    0.000000
 ---------------------------------------------------------------------

 SCF Done:  E(RHF) =  -6.89753918937     A.U. after    8 cycles
 E2 =    -0.1577992948D+00 EUMP2 =    -0.70553384841538D+01

 The electronic state is 1-AG.
 Alpha  occ. eigenvalues --   -0.89397  -0.82489  -0.70469  -0.54386  -0.46085
 Alpha  occ. eigenvalues --   -0.36438  -0.34110
 Alpha virt. eigenvalues --   -0.01651   0.14568   0.18345   0.42185   0.45200
 Alpha virt. eigenvalues --    0.72599   0.99681

 Mulliken charges:
               1
     1  H    0.017445
     2  H    0.027300
     3  H   -0.014228
     4  H   -0.036651
     5  H   -0.009459
     6  H    0.019940
     7  H   -0.004347
     8  H   -0.004347
     9  H    0.019940
    10  H   -0.009459
    11  H   -0.036651
    12  H   -0.014228
    13  H    0.027300
    14  H    0.017445
 Sum of Mulliken charges =  -0.00000

 Dipole moment (field-independent basis, Debye):
    X=              0.0000    Y=              0.0000    Z=              0.0000  Tot=              0.0000
 Quadrupole moment (field-independent basis, Debye-Ang):
   XX=            -19.5011   YY=            -21.2347   ZZ=            -17.9799
   XY=              0.0148   XZ=             -0.0000   YZ=              0.0000

 Normal termination of Gaussian 09 at Wed Feb 15 13:09:42 2017.
