 Gaussian 09, Revision E.01,
 Gaussian 09:  ES64L-G09RevE.01 30-Nov-2015

 ----------------------------------------------------------------------
 #rhf/gen scf(symm,tight,novaracc,noincfock,fulldiag) stable(crhf) gues
 s=read geom=nocrowd test
 ----------------------------------------------------------------------

 hf stability analysis of h12 triangular lattice, y= 0.9659128830031019
 6 alpha= 58.250000000000000
 ----------------------------------------------------------------------
 Symbolic Z-matrix:
 Charge =  0 Multiplicity = 1

                         Standard orientation:
 ---------------------------------------------------------------------
 Center     Atomic      Atomic             Coordinates (Angstroms)
 Number     Number       Type             X           Y           Z
 ---------------------------------------------------------------------
      1          1           0        3.049661    2.088453    0.000000
      2          1           0        3.049661    0.952556    0.000000
      3          1           0        2.033107    1.581619    0.000000
      4          1           0        2.033107    0.445721    0.000000
      5          1           0        1.016554    1.074784    0.000000
      6          1           0        1.016554   -0.061114   -0.000000
      7          1           0        0.000000    0.567949    0.000000
      8          1           0       -0.000000   -0.567949    0.000000
      9          1           0       -1.016554    0.061114    0.000000
     10          1           0       -1.016554   -1.074784    0.000000
     11          1           0       -2.033107   -0.445721    0.000000
     12          1           0       -2.033107   -1.581619    0.000000
     13          1           0       -3.049661   -0.952556    0.000000
     14          1           0       -3.049661   -2.088453    0.000000
 ---------------------------------------------------------------------

 SCF Done:  E(RHF) =  -6.85481484798     A.U. after   10 cycles
 E2 =    -0.1610257155D+00 EUMP2 =    -0.70158405634724D+01

 The electronic state is 1-AG.
 Alpha  occ. eigenvalues --   -0.87411  -0.80747  -0.70506  -0.55133  -0.40569
 Alpha  occ. eigenvalues --   -0.36350  -0.30609
 Alpha virt. eigenvalues --    0.00050   0.09132   0.19407   0.39639   0.43117
 Alpha virt. eigenvalues --    0.65495   0.69572

 Mulliken charges:
               1
     1  H    0.023751
     2  H    0.049083
     3  H    0.068364
     4  H   -0.115285
     5  H   -0.150731
     6  H    0.112240
     7  H    0.012577
     8  H    0.012577
     9  H    0.112240
    10  H   -0.150731
    11  H   -0.115285
    12  H    0.068364
    13  H    0.049083
    14  H    0.023751
 Sum of Mulliken charges =   0.00000

 Dipole moment (field-independent basis, Debye):
    X=             -0.0000    Y=              0.0000    Z=              0.0000  Tot=              0.0000
 Quadrupole moment (field-independent basis, Debye-Ang):
   XX=            -16.8425   YY=            -20.3382   ZZ=            -18.1385
   XY=              2.8188   XZ=             -0.0000   YZ=             -0.0000

 Normal termination of Gaussian 09 at Wed Feb 15 13:11:58 2017.
