 Gaussian 09, Revision E.01,
 Gaussian 09:  ES64L-G09RevE.01 30-Nov-2015

 ----------------------------------------------------------------------
 #rhf/gen scf(symm,tight,novaracc,noincfock,fulldiag) stable(crhf) gues
 s=read geom=nocrowd test
 ----------------------------------------------------------------------

 hf stability analysis of h12 triangular lattice, y= 0.2614075542186236
 6 alpha= 6.7500000000000000
 ----------------------------------------------------------------------
 Symbolic Z-matrix:
 Charge =  0 Multiplicity = 1

                         Standard orientation:
 ---------------------------------------------------------------------
 Center     Atomic      Atomic             Coordinates (Angstroms)
 Number     Number       Type             X           Y           Z
 ---------------------------------------------------------------------
      1          1           0        1.557574   -5.375742    0.000000
      2          1           0        1.557574   -7.599779    0.000000
      3          1           0        1.038382   -3.213155    0.000000
      4          1           0        1.038382   -5.437192    0.000000
      5          1           0        0.519191   -1.050568    0.000000
      6          1           0        0.519191   -3.274606    0.000000
      7          1           0        0.000000    1.112019   -0.000000
      8          1           0       -0.000000   -1.112019   -0.000000
      9          1           0       -0.519191    3.274606    0.000000
     10          1           0       -0.519191    1.050568    0.000000
     11          1           0       -1.038382    5.437192    0.000000
     12          1           0       -1.038382    3.213155    0.000000
     13          1           0       -1.557574    7.599779    0.000000
     14          1           0       -1.557574    5.375742    0.000000
 ---------------------------------------------------------------------

 SCF Done:  E(RHF) =  -6.58596768283     A.U. after    5 cycles
 E2 =    -0.1343747002D+01 EUMP2 =    -0.79297146849056D+01

 The electronic state is 1-AG.
 Alpha  occ. eigenvalues --   -0.73596  -0.72743  -0.71294  -0.69515  -0.67716
 Alpha  occ. eigenvalues --   -0.66240  -0.19666
 Alpha virt. eigenvalues --   -0.16253   0.48545   0.51525   0.56263   0.62008
 Alpha virt. eigenvalues --    0.67673   0.71968

 Mulliken charges:
               1
     1  H    0.000433
     2  H    0.000463
     3  H   -0.000220
     4  H   -0.000968
     5  H   -0.000029
     6  H    0.000289
     7  H    0.000032
     8  H    0.000032
     9  H    0.000289
    10  H   -0.000029
    11  H   -0.000968
    12  H   -0.000220
    13  H    0.000463
    14  H    0.000433
 Sum of Mulliken charges =   0.00000

 Dipole moment (field-independent basis, Debye):
    X=             -0.0000    Y=             -0.0000    Z=              0.0000  Tot=              0.0000
 Quadrupole moment (field-independent basis, Debye-Ang):
   XX=            -17.4668   YY=            -22.1012   ZZ=            -18.7527
   XY=              0.8619   XZ=              0.0000   YZ=             -0.0000

 Normal termination of Gaussian 09 at Wed Feb 15 13:02:37 2017.
