 Gaussian 09, Revision E.01,
 Gaussian 09:  ES64L-G09RevE.01 30-Nov-2015

 ----------------------------------------------------------------------
 #rhf/gen scf(symm,tight,novaracc,noincfock,fulldiag) stable(crhf) gues
 s=read geom=nocrowd test
 ----------------------------------------------------------------------

 hf stability analysis of h12 triangular lattice, y= 0.2514560395575198
 3 alpha= 6.2500000000000000
 ----------------------------------------------------------------------
 Symbolic Z-matrix:
 Charge =  0 Multiplicity = 1

                         Standard orientation:
 ---------------------------------------------------------------------
 Center     Atomic      Atomic             Coordinates (Angstroms)
 Number     Number       Type             X           Y           Z
 ---------------------------------------------------------------------
      1          1           0        1.499769   -5.610141    0.000000
      2          1           0        1.499769   -7.919898    0.000000
      3          1           0        0.999846   -3.355135    0.000000
      4          1           0        0.999846   -5.664892    0.000000
      5          1           0        0.499923   -1.100128    0.000000
      6          1           0        0.499923   -3.409885    0.000000
      7          1           0        0.000000    1.154879    0.000000
      8          1           0       -0.000000   -1.154879   -0.000000
      9          1           0       -0.499923    3.409885    0.000000
     10          1           0       -0.499923    1.100128    0.000000
     11          1           0       -0.999846    5.664892    0.000000
     12          1           0       -0.999846    3.355135    0.000000
     13          1           0       -1.499769    7.919898    0.000000
     14          1           0       -1.499769    5.610141    0.000000
 ---------------------------------------------------------------------

 SCF Done:  E(RHF) =  -6.45876210065     A.U. after    5 cycles
 E2 =    -0.1397684566D+01 EUMP2 =    -0.78564466666754D+01

 The electronic state is 1-AG.
 Alpha  occ. eigenvalues --   -0.73721  -0.73005  -0.71813  -0.70374  -0.68950
 Alpha  occ. eigenvalues --   -0.67810  -0.19787
 Alpha virt. eigenvalues --   -0.16504   0.51436   0.54174   0.58481   0.63665
 Alpha virt. eigenvalues --    0.68736   0.72546

 Mulliken charges:
               1
     1  H    0.000111
     2  H    0.001031
     3  H   -0.000162
     4  H   -0.001173
     5  H   -0.000020
     6  H    0.000191
     7  H    0.000021
     8  H    0.000021
     9  H    0.000191
    10  H   -0.000020
    11  H   -0.001173
    12  H   -0.000162
    13  H    0.001031
    14  H    0.000111
 Sum of Mulliken charges =  -0.00000

 Dipole moment (field-independent basis, Debye):
    X=             -0.0000    Y=             -0.0000    Z=              0.0000  Tot=              0.0000
 Quadrupole moment (field-independent basis, Debye-Ang):
   XX=            -17.5795   YY=            -21.5355   ZZ=            -18.8132
   XY=              0.6682   XZ=              0.0000   YZ=             -0.0000

 Normal termination of Gaussian 09 at Wed Feb 15 13:02:33 2017.
