 Gaussian 09, Revision E.01,
 Gaussian 09:  ES64L-G09RevE.01 30-Nov-2015

 ----------------------------------------------------------------------
 #rhf/gen scf(symm,tight,novaracc,noincfock,fulldiag) stable(crhf) gues
 s=read geom=nocrowd test
 ----------------------------------------------------------------------

 hf stability analysis of h12 triangular lattice, y= 1.1255574828824770
  alpha= 65.500000000000000
 ----------------------------------------------------------------------
 Symbolic Z-matrix:
 Charge =  0 Multiplicity = 1

                         Standard orientation:
 ---------------------------------------------------------------------
 Center     Atomic      Atomic             Coordinates (Angstroms)
 Number     Number       Type             X           Y           Z
 ---------------------------------------------------------------------
      1          1           0        2.800566    3.052960    0.000000
      2          1           0        2.800566    1.816031    0.000000
      3          1           0        1.867044    2.241461    0.000000
      4          1           0        1.867044    1.004532    0.000000
      5          1           0        0.933522    1.429963    0.000000
      6          1           0        0.933522    0.193034    0.000000
      7          1           0        0.000000    0.618464    0.000000
      8          1           0       -0.000000   -0.618464   -0.000000
      9          1           0       -0.933522   -0.193034   -0.000000
     10          1           0       -0.933522   -1.429963   -0.000000
     11          1           0       -1.867044   -1.004532   -0.000000
     12          1           0       -1.867044   -2.241461   -0.000000
     13          1           0       -2.800566   -1.816031   -0.000000
     14          1           0       -2.800566   -3.052960   -0.000000
 ---------------------------------------------------------------------

 SCF Done:  E(RHF) =  -6.69243085263     A.U. after   10 cycles
 E2 =    -0.1762752483D+00 EUMP2 =    -0.68687061009455D+01

 The electronic state is 1-AG.
 Alpha  occ. eigenvalues --   -0.84108  -0.77863  -0.69831  -0.55791  -0.38284
 Alpha  occ. eigenvalues --   -0.31824  -0.22307
 Alpha virt. eigenvalues --   -0.02791   0.09037   0.16062   0.33768   0.33906
 Alpha virt. eigenvalues --    0.54170   0.64653

 Mulliken charges:
               1
     1  H    0.095925
     2  H   -0.006779
     3  H    0.095855
     4  H   -0.124545
     5  H   -0.215338
     6  H    0.148496
     7  H    0.006385
     8  H    0.006385
     9  H    0.148496
    10  H   -0.215338
    11  H   -0.124545
    12  H    0.095855
    13  H   -0.006779
    14  H    0.095925
 Sum of Mulliken charges =  -0.00000

 Dipole moment (field-independent basis, Debye):
    X=              0.0000    Y=              0.0000    Z=             -0.0000  Tot=              0.0000
 Quadrupole moment (field-independent basis, Debye-Ang):
   XX=            -15.6721   YY=            -13.4756   ZZ=            -18.3122
   XY=              8.2615   XZ=              0.0000   YZ=              0.0000

 Normal termination of Gaussian 09 at Wed Feb 15 13:13:18 2017.
