 Gaussian 09, Revision E.01,
 Gaussian 09:  ES64L-G09RevE.01 30-Nov-2015

 ----------------------------------------------------------------------
 #rhf/gen scf(symm,tight,novaracc,noincfock,fulldiag) stable(crhf) gues
 s=read geom=nocrowd test
 ----------------------------------------------------------------------

 hf stability analysis of h12 triangular lattice, y= 0.6299221068523126
 5 alpha= 34.500000000000000
 ----------------------------------------------------------------------
 Symbolic Z-matrix:
 Charge =  0 Multiplicity = 1

                         Standard orientation:
 ---------------------------------------------------------------------
 Center     Atomic      Atomic             Coordinates (Angstroms)
 Number     Number       Type             X           Y           Z
 ---------------------------------------------------------------------
      1          1           0        3.114812   -0.639595   -0.000000
      2          1           0        3.114812   -1.751733   -0.000000
      3          1           0        2.076541   -0.241040   -0.000000
      4          1           0        2.076541   -1.353179   -0.000000
      5          1           0        1.038271    0.157514    0.000000
      6          1           0        1.038271   -0.954624   -0.000000
      7          1           0        0.000000    0.556069    0.000000
      8          1           0       -0.000000   -0.556069    0.000000
      9          1           0       -1.038271    0.954624    0.000000
     10          1           0       -1.038271   -0.157514    0.000000
     11          1           0       -2.076541    1.353179    0.000000
     12          1           0       -2.076541    0.241040    0.000000
     13          1           0       -3.114812    1.751733    0.000000
     14          1           0       -3.114812    0.639595    0.000000
 ---------------------------------------------------------------------

 SCF Done:  E(RHF) =  -6.87775139396     A.U. after   10 cycles
 E2 =    -0.1590028565D+00 EUMP2 =    -0.70367542504184D+01

 The electronic state is 1-AG.
 Alpha  occ. eigenvalues --   -0.88211  -0.81437  -0.70555  -0.54897  -0.42702
 Alpha  occ. eigenvalues --   -0.35816  -0.32593
 Alpha virt. eigenvalues --   -0.00455   0.10823   0.19188   0.42047   0.43055
 Alpha virt. eigenvalues --    0.67070   0.78868

 Mulliken charges:
               1
     1  H    0.052451
     2  H    0.010324
     3  H   -0.103907
     4  H    0.055709
     5  H    0.099071
     6  H   -0.121806
     7  H    0.008158
     8  H    0.008158
     9  H   -0.121806
    10  H    0.099071
    11  H    0.055709
    12  H   -0.103907
    13  H    0.010324
    14  H    0.052451
 Sum of Mulliken charges =   0.00000

 Dipole moment (field-independent basis, Debye):
    X=             -0.0000    Y=              0.0000    Z=              0.0000  Tot=              0.0000
 Quadrupole moment (field-independent basis, Debye-Ang):
   XX=            -17.6882   YY=            -21.0969   ZZ=            -18.0822
   XY=             -1.4936   XZ=             -0.0000   YZ=             -0.0000

 Normal termination of Gaussian 09 at Wed Feb 15 13:07:33 2017.
