 Gaussian 09, Revision E.01,
 Gaussian 09:  ES64L-G09RevE.01 30-Nov-2015

 ----------------------------------------------------------------------
 #rhf/gen scf(symm,tight,novaracc,noincfock,fulldiag) stable(crhf) gues
 s=read geom=nocrowd test
 ----------------------------------------------------------------------

 hf stability analysis of h12 triangular lattice, y= 0.3829207402470090
 1 alpha= 14.250000000000000
 ----------------------------------------------------------------------
 Symbolic Z-matrix:
 Charge =  0 Multiplicity = 1

                         Standard orientation:
 ---------------------------------------------------------------------
 Center     Atomic      Atomic             Coordinates (Angstroms)
 Number     Number       Type             X           Y           Z
 ---------------------------------------------------------------------
      1          1           0        2.226832   -3.323504   -0.000000
      2          1           0        2.226832   -4.879123   -0.000000
      3          1           0        1.484554   -1.956400   -0.000000
      4          1           0        1.484554   -3.512019   -0.000000
      5          1           0        0.742277   -0.589295   -0.000000
      6          1           0        0.742277   -2.144914   -0.000000
      7          1           0        0.000000    0.777809    0.000000
      8          1           0       -0.000000   -0.777809   -0.000000
      9          1           0       -0.742277    2.144914    0.000000
     10          1           0       -0.742277    0.589295    0.000000
     11          1           0       -1.484554    3.512019    0.000000
     12          1           0       -1.484554    1.956400    0.000000
     13          1           0       -2.226832    4.879123    0.000000
     14          1           0       -2.226832    3.323504    0.000000
 ---------------------------------------------------------------------

 SCF Done:  E(RHF) =  -6.93784966114     A.U. after    7 cycles
 E2 =    -0.7306265871D+00 EUMP2 =    -0.76684762482655D+01

 The electronic state is 1-AG.
 Alpha  occ. eigenvalues --   -0.76708  -0.74097  -0.68681  -0.61434  -0.52701
 Alpha  occ. eigenvalues --   -0.42958  -0.13135
 Alpha virt. eigenvalues --   -0.07685   0.19586   0.24725   0.34014   0.45721
 Alpha virt. eigenvalues --    0.57829   0.67639

 Mulliken charges:
               1
     1  H    0.021721
     2  H   -0.096959
     3  H    0.006064
     4  H    0.046899
     5  H    0.002638
     6  H    0.013620
     7  H    0.006018
     8  H    0.006018
     9  H    0.013620
    10  H    0.002638
    11  H    0.046899
    12  H    0.006064
    13  H   -0.096959
    14  H    0.021721
 Sum of Mulliken charges =   0.00000

 Dipole moment (field-independent basis, Debye):
    X=              0.0000    Y=              0.0000    Z=              0.0000  Tot=              0.0000
 Quadrupole moment (field-independent basis, Debye-Ang):
   XX=            -19.4929   YY=            -38.5127   ZZ=            -17.8759
   XY=             10.0596   XZ=              0.0000   YZ=             -0.0000

 Normal termination of Gaussian 09 at Wed Feb 15 13:03:52 2017.
