 Gaussian 09, Revision E.01,
 Gaussian 09:  ES64L-G09RevE.01 30-Nov-2015

 ----------------------------------------------------------------------
 #rhf/gen scf(symm,tight,novaracc,noincfock,fulldiag) stable(crhf) gues
 s=read geom=nocrowd test
 ----------------------------------------------------------------------

 hf stability analysis of h12 triangular lattice, y= 0.5773502789032680
 7 alpha= 30.000000000000000
 ----------------------------------------------------------------------
 Symbolic Z-matrix:
 Charge =  0 Multiplicity = 1

                         Standard orientation:
 ---------------------------------------------------------------------
 Center     Atomic      Atomic             Coordinates (Angstroms)
 Number     Number       Type             X           Y           Z
 ---------------------------------------------------------------------
      1          1           0        3.000000   -1.154701    0.000000
      2          1           0        3.000000   -2.309401    0.000000
      3          1           0        2.000000   -0.577350    0.000000
      4          1           0        2.000000   -1.732051    0.000000
      5          1           0        1.000000    0.000000    0.000000
      6          1           0        1.000000   -1.154701    0.000000
      7          1           0        0.000000    0.577350    0.000000
      8          1           0       -0.000000   -0.577350    0.000000
      9          1           0       -1.000000    1.154701   -0.000000
     10          1           0       -1.000000    0.000000   -0.000000
     11          1           0       -2.000000    1.732051   -0.000000
     12          1           0       -2.000000    0.577350   -0.000000
     13          1           0       -3.000000    2.309401   -0.000000
     14          1           0       -3.000000    1.154701   -0.000000
 ---------------------------------------------------------------------

 SCF Done:  E(RHF) =  -6.83182050802     A.U. after   10 cycles
 E2 =    -0.1631256870D+00 EUMP2 =    -0.69949461949732D+01

 The electronic state is 1-AG.
 Alpha  occ. eigenvalues --   -0.86770  -0.80198  -0.70426  -0.55286  -0.38898
 Alpha  occ. eigenvalues --   -0.36764  -0.29021
 Alpha virt. eigenvalues --    0.00145   0.08278   0.19341   0.37844   0.42722
 Alpha virt. eigenvalues --    0.63926   0.64872

 Mulliken charges:
               1
     1  H    0.042897
     2  H    0.036827
     3  H   -0.120110
     4  H    0.074508
     5  H    0.118787
     6  H   -0.167560
     7  H    0.014652
     8  H    0.014652
     9  H   -0.167560
    10  H    0.118787
    11  H    0.074508
    12  H   -0.120110
    13  H    0.036827
    14  H    0.042897
 Sum of Mulliken charges =  -0.00000

 Dipole moment (field-independent basis, Debye):
    X=             -0.0000    Y=             -0.0000    Z=             -0.0000  Tot=              0.0000
 Quadrupole moment (field-independent basis, Debye-Ang):
   XX=            -16.3258   YY=            -19.4340   ZZ=            -18.1787
   XY=             -3.9314   XZ=              0.0000   YZ=             -0.0000

 Normal termination of Gaussian 09 at Wed Feb 15 13:06:43 2017.
