 Gaussian 09, Revision E.01,
 Gaussian 09:  ES64L-G09RevE.01 30-Nov-2015

 ----------------------------------------------------------------------
 #rhf/gen scf(symm,tight,novaracc,noincfock,fulldiag) stable(crhf) gues
 s=read geom=nocrowd test
 ----------------------------------------------------------------------

 hf stability analysis of h12 triangular lattice, y= 0.3190649348779894
 3 alpha= 10.000000000000000
 ----------------------------------------------------------------------
 Symbolic Z-matrix:
 Charge =  0 Multiplicity = 1

                         Standard orientation:
 ---------------------------------------------------------------------
 Center     Atomic      Atomic             Coordinates (Angstroms)
 Number     Number       Type             X           Y           Z
 ---------------------------------------------------------------------
      1          1           0        1.885306   -4.261124    0.000000
      2          1           0        1.885306   -6.098546    0.000000
      3          1           0        1.256870   -2.534512    0.000000
      4          1           0        1.256870   -4.371934    0.000000
      5          1           0        0.628435   -0.807901    0.000000
      6          1           0        0.628435   -2.645322    0.000000
      7          1           0        0.000000    0.918711   -0.000000
      8          1           0       -0.000000   -0.918711    0.000000
      9          1           0       -0.628435    2.645322   -0.000000
     10          1           0       -0.628435    0.807901   -0.000000
     11          1           0       -1.256870    4.371934   -0.000000
     12          1           0       -1.256870    2.534512   -0.000000
     13          1           0       -1.885306    6.098546   -0.000000
     14          1           0       -1.885306    4.261124   -0.000000
 ---------------------------------------------------------------------

 SCF Done:  E(RHF) =  -6.98315658370     A.U. after    5 cycles
 E2 =    -0.1068296891D+01 EUMP2 =    -0.80514534748865D+01

 The electronic state is 1-AG.
 Alpha  occ. eigenvalues --   -0.73997  -0.72350  -0.69159  -0.64969  -0.60259
 Alpha  occ. eigenvalues --   -0.55752  -0.17966
 Alpha virt. eigenvalues --   -0.13776   0.33671   0.37786   0.44846   0.53711
 Alpha virt. eigenvalues --    0.62776   0.70012

 Mulliken charges:
               1
     1  H    0.006197
     2  H   -0.016260
     3  H   -0.000427
     4  H    0.007744
     5  H   -0.000097
     6  H    0.002456
     7  H    0.000387
     8  H    0.000387
     9  H    0.002456
    10  H   -0.000097
    11  H    0.007744
    12  H   -0.000427
    13  H   -0.016260
    14  H    0.006197
 Sum of Mulliken charges =  -0.00000

 Dipole moment (field-independent basis, Debye):
    X=              0.0000    Y=              0.0000    Z=              0.0000  Tot=              0.0000
 Quadrupole moment (field-independent basis, Debye-Ang):
   XX=            -17.1803   YY=            -27.3052   ZZ=            -18.3335
   XY=              3.1211   XZ=             -0.0000   YZ=              0.0000

 Normal termination of Gaussian 09 at Wed Feb 15 13:03:09 2017.
