 Gaussian 09, Revision E.01,
 Gaussian 09:  ES64L-G09RevE.01 30-Nov-2015

 ----------------------------------------------------------------------
 #rhf/gen scf(symm,tight,novaracc,noincfock,fulldiag) stable(crhf) gues
 s=read geom=nocrowd test
 ----------------------------------------------------------------------

 hf stability analysis of h12 triangular lattice, y= 0.6506387228320011
 9 alpha= 36.250000000000000
 ----------------------------------------------------------------------
 Symbolic Z-matrix:
 Charge =  0 Multiplicity = 1

                         Standard orientation:
 ---------------------------------------------------------------------
 Center     Atomic      Atomic             Coordinates (Angstroms)
 Number     Number       Type             X           Y           Z
 ---------------------------------------------------------------------
      1          1           0        3.148224   -0.442464   -0.000000
      2          1           0        3.148224   -1.542799   -0.000000
      3          1           0        2.098816   -0.111587   -0.000000
      4          1           0        2.098816   -1.211922   -0.000000
      5          1           0        1.049408    0.219290   -0.000000
      6          1           0        1.049408   -0.881045   -0.000000
      7          1           0        0.000000    0.550168    0.000000
      8          1           0       -0.000000   -0.550168   -0.000000
      9          1           0       -1.049408    0.881045    0.000000
     10          1           0       -1.049408   -0.219290   -0.000000
     11          1           0       -2.098816    1.211922    0.000000
     12          1           0       -2.098816    0.111587   -0.000000
     13          1           0       -3.148224    1.542799    0.000000
     14          1           0       -3.148224    0.442464    0.000000
 ---------------------------------------------------------------------

 SCF Done:  E(RHF) =  -6.88632074957     A.U. after   10 cycles
 E2 =    -0.1583189932D+00 EUMP2 =    -0.70446397427747D+01

 The electronic state is 1-AG.
 Alpha  occ. eigenvalues --   -0.88600  -0.81777  -0.70553  -0.54757  -0.43771
 Alpha  occ. eigenvalues --   -0.35614  -0.33497
 Alpha virt. eigenvalues --   -0.00805   0.11879   0.18977   0.42862   0.43187
 Alpha virt. eigenvalues --    0.68337   0.84524

 Mulliken charges:
               1
     1  H    0.051203
     2  H    0.006098
     3  H   -0.094320
     4  H    0.045473
     5  H    0.088333
     6  H   -0.101846
     7  H    0.005060
     8  H    0.005060
     9  H   -0.101846
    10  H    0.088333
    11  H    0.045473
    12  H   -0.094320
    13  H    0.006098
    14  H    0.051203
 Sum of Mulliken charges =   0.00000

 Dipole moment (field-independent basis, Debye):
    X=             -0.0000    Y=             -0.0000    Z=             -0.0000  Tot=              0.0000
 Quadrupole moment (field-independent basis, Debye-Ang):
   XX=            -18.1960   YY=            -21.2916   ZZ=            -18.0517
   XY=             -0.9064   XZ=             -0.0000   YZ=             -0.0000

 Normal termination of Gaussian 09 at Wed Feb 15 13:07:52 2017.
