 Gaussian 09, Revision E.01,
 Gaussian 09:  ES64L-G09RevE.01 30-Nov-2015

 ----------------------------------------------------------------------
 #rhf/gen scf(symm,tight,novaracc,noincfock,fulldiag) stable(crhf) gues
 s=read geom=nocrowd test
 ----------------------------------------------------------------------

 hf stability analysis of h12 triangular lattice, y= 0.5802591979462536
 9 alpha= 30.250000000000000
 ----------------------------------------------------------------------
 Symbolic Z-matrix:
 Charge =  0 Multiplicity = 1

                         Standard orientation:
 ---------------------------------------------------------------------
 Center     Atomic      Atomic             Coordinates (Angstroms)
 Number     Number       Type             X           Y           Z
 ---------------------------------------------------------------------
      1          1           0        3.007491   -1.125644   -0.000000
      2          1           0        3.007491   -2.277469   -0.000000
      3          1           0        2.004994   -0.558459   -0.000000
      4          1           0        2.004994   -1.710283   -0.000000
      5          1           0        1.002497    0.008727   -0.000000
      6          1           0        1.002497   -1.143098   -0.000000
      7          1           0        0.000000    0.575912   -0.000000
      8          1           0       -0.000000   -0.575912   -0.000000
      9          1           0       -1.002497    1.143098   -0.000000
     10          1           0       -1.002497   -0.008727   -0.000000
     11          1           0       -2.004994    1.710283   -0.000000
     12          1           0       -2.004994    0.558459   -0.000000
     13          1           0       -3.007491    2.277469   -0.000000
     14          1           0       -3.007491    1.125644   -0.000000
 ---------------------------------------------------------------------

 SCF Done:  E(RHF) =  -6.83559366793     A.U. after   10 cycles
 E2 =    -0.1627794687D+00 EUMP2 =    -0.69983731366470D+01

 The electronic state is 1-AG.
 Alpha  occ. eigenvalues --   -0.86868  -0.80282  -0.70440  -0.55264  -0.39153
 Alpha  occ. eigenvalues --   -0.36702  -0.29264
 Alpha virt. eigenvalues --    0.00153   0.08378   0.19366   0.38104   0.42815
 Alpha virt. eigenvalues --    0.64697   0.64942

 Mulliken charges:
               1
     1  H    0.043997
     2  H    0.034742
     3  H   -0.119536
     4  H    0.073702
     5  H    0.117911
     6  H   -0.165225
     7  H    0.014409
     8  H    0.014409
     9  H   -0.165225
    10  H    0.117911
    11  H    0.073702
    12  H   -0.119536
    13  H    0.034742
    14  H    0.043997
 Sum of Mulliken charges =   0.00000

 Dipole moment (field-independent basis, Debye):
    X=             -0.0000    Y=             -0.0000    Z=             -0.0000  Tot=              0.0000
 Quadrupole moment (field-independent basis, Debye-Ang):
   XX=            -16.3966   YY=            -19.5880   ZZ=            -18.1728
   XY=             -3.7598   XZ=             -0.0000   YZ=              0.0000

 Normal termination of Gaussian 09 at Wed Feb 15 13:06:46 2017.
