 Gaussian 09, Revision E.01,
 Gaussian 09:  ES64L-G09RevE.01 30-Nov-2015

 ----------------------------------------------------------------------
 #rhf/gen scf(symm,tight,novaracc,noincfock,fulldiag) stable(crhf) gues
 s=read geom=nocrowd test
 ----------------------------------------------------------------------

 hf stability analysis of h12 triangular lattice, y= 0.4168485496705611
 2 alpha= 16.750000000000000
 ----------------------------------------------------------------------
 Symbolic Z-matrix:
 Charge =  0 Multiplicity = 1

                         Standard orientation:
 ---------------------------------------------------------------------
 Center     Atomic      Atomic             Coordinates (Angstroms)
 Number     Number       Type             X           Y           Z
 ---------------------------------------------------------------------
      1          1           0        2.394973   -2.895207    0.000000
      2          1           0        2.394973   -4.341613    0.000000
      3          1           0        1.596649   -1.689071    0.000000
      4          1           0        1.596649   -3.135476    0.000000
      5          1           0        0.798324   -0.482934    0.000000
      6          1           0        0.798324   -1.929339    0.000000
      7          1           0        0.000000    0.723203   -0.000000
      8          1           0       -0.000000   -0.723203   -0.000000
      9          1           0       -0.798324    1.929339    0.000000
     10          1           0       -0.798324    0.482934    0.000000
     11          1           0       -1.596649    3.135476    0.000000
     12          1           0       -1.596649    1.689071    0.000000
     13          1           0       -2.394973    4.341613    0.000000
     14          1           0       -2.394973    2.895207    0.000000
 ---------------------------------------------------------------------

 SCF Done:  E(RHF) =  -6.78692790471     A.U. after    8 cycles
 E2 =    -0.5074849444D+00 EUMP2 =    -0.72944128490941D+01

 The electronic state is 1-AG.
 Alpha  occ. eigenvalues --   -0.79439  -0.75964  -0.69345  -0.60381  -0.49433
 Alpha  occ. eigenvalues --   -0.36699  -0.09424
 Alpha virt. eigenvalues --   -0.02568   0.12291   0.18306   0.28619   0.41514
 Alpha virt. eigenvalues --    0.54792   0.64981

 Mulliken charges:
               1
     1  H    0.022515
     2  H   -0.177157
     3  H    0.019867
     4  H    0.089639
     5  H    0.011057
     6  H    0.014647
     7  H    0.019432
     8  H    0.019432
     9  H    0.014647
    10  H    0.011057
    11  H    0.089639
    12  H    0.019867
    13  H   -0.177157
    14  H    0.022515
 Sum of Mulliken charges =  -0.00000

 Dipole moment (field-independent basis, Debye):
    X=              0.0000    Y=             -0.0000    Z=             -0.0000  Tot=              0.0000
 Quadrupole moment (field-independent basis, Debye-Ang):
   XX=            -23.3853   YY=            -45.4633   ZZ=            -17.6967
   XY=             16.2635   XZ=              0.0000   YZ=             -0.0000

 Normal termination of Gaussian 09 at Wed Feb 15 13:04:19 2017.
