 Gaussian 09, Revision E.01,
 Gaussian 09:  ES64L-G09RevE.01 30-Nov-2015

 ----------------------------------------------------------------------
 #rhf/gen scf(symm,tight,novaracc,noincfock,fulldiag) stable(crhf) gues
 s=read geom=nocrowd test
 ----------------------------------------------------------------------

 hf stability analysis of h12 triangular lattice, y= 1.7438440595774944
  alpha= 79.250000000000000
 ----------------------------------------------------------------------
 Symbolic Z-matrix:
 Charge =  0 Multiplicity = 1

                         Standard orientation:
 ---------------------------------------------------------------------
 Center     Atomic      Atomic             Coordinates (Angstroms)
 Number     Number       Type             X           Y           Z
 ---------------------------------------------------------------------
      1          1           0        1.951613    5.841955    0.000000
      2          1           0        1.951613    4.066961    0.000000
      3          1           0        1.301075    4.190469    0.000000
      4          1           0        1.301075    2.415475    0.000000
      5          1           0        0.650538    2.538983    0.000000
      6          1           0        0.650538    0.763989    0.000000
      7          1           0        0.000000    0.887497    0.000000
      8          1           0       -0.000000   -0.887497    0.000000
      9          1           0       -0.650538   -0.763989    0.000000
     10          1           0       -0.650538   -2.538983    0.000000
     11          1           0       -1.301075   -2.415475    0.000000
     12          1           0       -1.301075   -4.190469    0.000000
     13          1           0       -1.951613   -4.066961    0.000000
     14          1           0       -1.951613   -5.841955    0.000000
 ---------------------------------------------------------------------

 SCF Done:  E(RHF) =  -7.00657766231     A.U. after    6 cycles
 E2 =    -0.1011540484D+01 EUMP2 =    -0.80181181463287D+01

 The electronic state is 1-AG.
 Alpha  occ. eigenvalues --   -0.74305  -0.72498  -0.68907  -0.64156  -0.58721
 Alpha  occ. eigenvalues --   -0.53351  -0.17330
 Alpha virt. eigenvalues --   -0.12959   0.30907   0.35207   0.42709   0.52166
 Alpha virt. eigenvalues --    0.61885   0.69710

 Mulliken charges:
               1
     1  H   -0.024710
     2  H    0.008515
     3  H    0.012174
     4  H   -0.000207
     5  H    0.003616
     6  H   -0.000054
     7  H    0.000667
     8  H    0.000667
     9  H   -0.000054
    10  H    0.003616
    11  H   -0.000207
    12  H    0.012174
    13  H    0.008515
    14  H   -0.024710
 Sum of Mulliken charges =  -0.00000

 Dipole moment (field-independent basis, Debye):
    X=              0.0000    Y=              0.0000    Z=             -0.0000  Tot=              0.0000
 Quadrupole moment (field-independent basis, Debye-Ang):
   XX=            -17.2939   YY=            -28.9106   ZZ=            -18.2413
   XY=             -3.9565   XZ=              0.0000   YZ=              0.0000

 Normal termination of Gaussian 09 at Wed Feb 15 13:15:46 2017.
