 Gaussian 09, Revision E.01,
 Gaussian 09:  ES64L-G09RevE.01 30-Nov-2015

 ----------------------------------------------------------------------
 #rhf/gen scf(symm,tight,novaracc,noincfock,fulldiag) stable(crhf) gues
 s=read geom=nocrowd test
 ----------------------------------------------------------------------

 hf stability analysis of h12 triangular lattice, y= 1.0760973851886237
  alpha= 63.500000000000000
 ----------------------------------------------------------------------
 Symbolic Z-matrix:
 Charge =  0 Multiplicity = 1

                         Standard orientation:
 ---------------------------------------------------------------------
 Center     Atomic      Atomic             Coordinates (Angstroms)
 Number     Number       Type             X           Y           Z
 ---------------------------------------------------------------------
      1          1           0        2.880914    2.772140    0.000000
      2          1           0        2.880914    1.569708    0.000000
      3          1           0        1.920609    2.048499    0.000000
      4          1           0        1.920609    0.846067    0.000000
      5          1           0        0.960305    1.324857    0.000000
      6          1           0        0.960305    0.122426    0.000000
      7          1           0        0.000000    0.601216    0.000000
      8          1           0       -0.000000   -0.601216   -0.000000
      9          1           0       -0.960305   -0.122426   -0.000000
     10          1           0       -0.960305   -1.324857   -0.000000
     11          1           0       -1.920609   -0.846067   -0.000000
     12          1           0       -1.920609   -2.048499   -0.000000
     13          1           0       -2.880914   -1.569708   -0.000000
     14          1           0       -2.880914   -2.772140   -0.000000
 ---------------------------------------------------------------------

 SCF Done:  E(RHF) =  -6.75741702975     A.U. after   11 cycles
 E2 =    -0.1700112098D+00 EUMP2 =    -0.69274282395774D+01

 The electronic state is 1-AG.
 Alpha  occ. eigenvalues --   -0.85164  -0.78818  -0.70111  -0.55587  -0.37692
 Alpha  occ. eigenvalues --   -0.34738  -0.25067
 Alpha virt. eigenvalues --   -0.01115   0.08114   0.17994   0.34661   0.38846
 Alpha virt. eigenvalues --    0.55847   0.64515

 Mulliken charges:
               1
     1  H    0.072904
     2  H    0.018195
     3  H    0.085314
     4  H   -0.124259
     5  H   -0.198522
     6  H    0.131900
     7  H    0.014468
     8  H    0.014468
     9  H    0.131900
    10  H   -0.198522
    11  H   -0.124259
    12  H    0.085314
    13  H    0.018195
    14  H    0.072904
 Sum of Mulliken charges =  -0.00000

 Dipole moment (field-independent basis, Debye):
    X=              0.0000    Y=              0.0000    Z=             -0.0000  Tot=              0.0000
 Quadrupole moment (field-independent basis, Debye-Ang):
   XX=            -15.5836   YY=            -16.2112   ZZ=            -18.2651
   XY=              6.6981   XZ=              0.0000   YZ=              0.0000

 Normal termination of Gaussian 09 at Wed Feb 15 13:12:56 2017.
