 Gaussian 09, Revision E.01,
 Gaussian 09:  ES64L-G09RevE.01 30-Nov-2015

 ----------------------------------------------------------------------
 #rhf/gen scf(symm,tight,novaracc,noincfock,fulldiag) stable(crhf) gues
 s=read geom=nocrowd test
 ----------------------------------------------------------------------

 hf stability analysis of h12 triangular lattice, y= 0.9295513923648614
 0 alpha= 56.250000000000000
 ----------------------------------------------------------------------
 Symbolic Z-matrix:
 Charge =  0 Multiplicity = 1

                         Standard orientation:
 ---------------------------------------------------------------------
 Center     Atomic      Atomic             Coordinates (Angstroms)
 Number     Number       Type             X           Y           Z
 ---------------------------------------------------------------------
      1          1           0        3.098586    1.842457   -0.000000
      2          1           0        3.098586    0.724496   -0.000000
      3          1           0        2.065724    1.414632   -0.000000
      4          1           0        2.065724    0.296670   -0.000000
      5          1           0        1.032862    0.986806   -0.000000
      6          1           0        1.032862   -0.131155   -0.000000
      7          1           0        0.000000    0.558981    0.000000
      8          1           0       -0.000000   -0.558981    0.000000
      9          1           0       -1.032862    0.131155    0.000000
     10          1           0       -1.032862   -0.986806    0.000000
     11          1           0       -2.065724   -0.296670    0.000000
     12          1           0       -2.065724   -1.414632    0.000000
     13          1           0       -3.098586   -0.724496    0.000000
     14          1           0       -3.098586   -1.842457    0.000000
 ---------------------------------------------------------------------

 SCF Done:  E(RHF) =  -6.87280809096     A.U. after   10 cycles
 E2 =    -0.1594245362D+00 EUMP2 =    -0.70322326271420D+01

 The electronic state is 1-AG.
 Alpha  occ. eigenvalues --   -0.88017  -0.81269  -0.70549  -0.54960  -0.42177
 Alpha  occ. eigenvalues --   -0.35943  -0.32116
 Alpha virt. eigenvalues --   -0.00302   0.10352   0.19269   0.41461   0.43115
 Alpha virt. eigenvalues --    0.66578   0.76348

 Mulliken charges:
               1
     1  H    0.013140
     2  H    0.052226
     3  H    0.059568
     4  H   -0.107465
     5  H   -0.130002
     6  H    0.103084
     7  H    0.009449
     8  H    0.009449
     9  H    0.103084
    10  H   -0.130002
    11  H   -0.107465
    12  H    0.059568
    13  H    0.052226
    14  H    0.013140
 Sum of Mulliken charges =   0.00000

 Dipole moment (field-independent basis, Debye):
    X=              0.0000    Y=              0.0000    Z=              0.0000  Tot=              0.0000
 Quadrupole moment (field-independent basis, Debye-Ang):
   XX=            -17.4598   YY=            -20.9543   ZZ=            -18.0966
   XY=              1.8046   XZ=             -0.0000   YZ=             -0.0000

 Normal termination of Gaussian 09 at Wed Feb 15 13:11:36 2017.
