 Gaussian 09, Revision E.01,
 Gaussian 09:  ES64L-G09RevE.01 30-Nov-2015

 ----------------------------------------------------------------------
 #rhf/gen scf(symm,tight,novaracc,noincfock,fulldiag) stable(crhf) gues
 s=read geom=nocrowd test
 ----------------------------------------------------------------------

 hf stability analysis of h12 triangular lattice, y= 0.4615146431802063
 0 alpha= 20.250000000000000
 ----------------------------------------------------------------------
 Symbolic Z-matrix:
 Charge =  0 Multiplicity = 1

                         Standard orientation:
 ---------------------------------------------------------------------
 Center     Atomic      Atomic             Coordinates (Angstroms)
 Number     Number       Type             X           Y           Z
 ---------------------------------------------------------------------
      1          1           0        2.597934   -2.375087   -0.000000
      2          1           0        2.597934   -3.708493   -0.000000
      3          1           0        1.731956   -1.361157   -0.000000
      4          1           0        1.731956   -2.694563   -0.000000
      5          1           0        0.865978   -0.347227   -0.000000
      6          1           0        0.865978   -1.680633   -0.000000
      7          1           0        0.000000    0.666703    0.000000
      8          1           0       -0.000000   -0.666703    0.000000
      9          1           0       -0.865978    1.680633   -0.000000
     10          1           0       -0.865978    0.347227   -0.000000
     11          1           0       -1.731956    2.694563   -0.000000
     12          1           0       -1.731956    1.361157   -0.000000
     13          1           0       -2.597934    3.708493   -0.000000
     14          1           0       -2.597934    2.375087   -0.000000
 ---------------------------------------------------------------------

 SCF Done:  E(RHF) =  -6.59032099986     A.U. after   12 cycles
 E2 =    -0.2327044181D+00 EUMP2 =    -0.68230254179115D+01

 The electronic state is 1-AG.
 Alpha  occ. eigenvalues --   -0.82482  -0.77151  -0.70071  -0.58728  -0.43636
 Alpha  occ. eigenvalues --   -0.28164  -0.10471
 Alpha virt. eigenvalues --   -0.00907   0.09889   0.12852   0.22832   0.36182
 Alpha virt. eigenvalues --    0.52645   0.62433

 Mulliken charges:
               1
     1  H   -0.022739
     2  H   -0.140049
     3  H   -0.057191
     4  H    0.179999
     5  H    0.089494
     6  H   -0.091454
     7  H    0.041940
     8  H    0.041940
     9  H   -0.091454
    10  H    0.089494
    11  H    0.179999
    12  H   -0.057191
    13  H   -0.140049
    14  H   -0.022739
 Sum of Mulliken charges =  -0.00000

 Dipole moment (field-independent basis, Debye):
    X=             -0.0000    Y=             -0.0000    Z=              0.0000  Tot=              0.0000
 Quadrupole moment (field-independent basis, Debye-Ang):
   XX=            -26.7658   YY=            -33.2431   ZZ=            -17.8408
   XY=             12.0867   XZ=             -0.0000   YZ=              0.0000

 Normal termination of Gaussian 09 at Wed Feb 15 13:04:55 2017.
