 Gaussian 09, Revision E.01,
 Gaussian 09:  ES64L-G09RevE.01 30-Nov-2015

 ----------------------------------------------------------------------
 #rhf/gen scf(symm,tight,novaracc,noincfock,fulldiag) stable(crhf) gues
 s=read geom=nocrowd test
 ----------------------------------------------------------------------

 hf stability analysis of h12 triangular lattice, y= 0.8713519307064939
 7 alpha= 52.750000000000000
 ----------------------------------------------------------------------
 Symbolic Z-matrix:
 Charge =  0 Multiplicity = 1

                         Standard orientation:
 ---------------------------------------------------------------------
 Center     Atomic      Atomic             Coordinates (Angstroms)
 Number     Number       Type             X           Y           Z
 ---------------------------------------------------------------------
      1          1           0        3.164544    1.424936    0.000000
      2          1           0        3.164544    0.330276    0.000000
      3          1           0        2.109696    1.132401    0.000000
      4          1           0        2.109696    0.037740    0.000000
      5          1           0        1.054848    0.839866    0.000000
      6          1           0        1.054848   -0.254795    0.000000
      7          1           0       -0.000000    0.547330   -0.000000
      8          1           0       -0.000000   -0.547330    0.000000
      9          1           0       -1.054848    0.254795    0.000000
     10          1           0       -1.054848   -0.839866    0.000000
     11          1           0       -2.109696   -0.037740    0.000000
     12          1           0       -2.109696   -1.132401    0.000000
     13          1           0       -3.164544   -0.330276    0.000000
     14          1           0       -3.164544   -1.424936    0.000000
 ---------------------------------------------------------------------

 SCF Done:  E(RHF) =  -6.88971651750     A.U. after   10 cycles
 E2 =    -0.1580806100D+00 EUMP2 =    -0.70477971275086D+01

 The electronic state is 1-AG.
 Alpha  occ. eigenvalues --   -0.88784  -0.81939  -0.70544  -0.54683  -0.44288
 Alpha  occ. eigenvalues --   -0.35589  -0.33853
 Alpha virt. eigenvalues --   -0.00988   0.12433   0.18856   0.42740   0.43698
 Alpha virt. eigenvalues --    0.69094   0.87533

 Mulliken charges:
               1
     1  H    0.005075
     2  H    0.049496
     3  H    0.038866
     4  H   -0.088067
     5  H   -0.089975
     6  H    0.081295
     7  H    0.003311
     8  H    0.003311
     9  H    0.081295
    10  H   -0.089975
    11  H   -0.088067
    12  H    0.038866
    13  H    0.049496
    14  H    0.005075
 Sum of Mulliken charges =   0.00000

 Dipole moment (field-independent basis, Debye):
    X=              0.0000    Y=              0.0000    Z=              0.0000  Tot=              0.0000
 Quadrupole moment (field-independent basis, Debye-Ang):
   XX=            -18.4625   YY=            -21.3375   ZZ=            -18.0364
   XY=              0.6516   XZ=             -0.0000   YZ=              0.0000

 Normal termination of Gaussian 09 at Wed Feb 15 13:10:57 2017.
