 Gaussian 09, Revision E.01,
 Gaussian 09:  ES64L-G09RevE.01 30-Nov-2015

 ----------------------------------------------------------------------
 #rhf/gen scf(symm,tight,novaracc,noincfock,fulldiag) stable(crhf) gues
 s=read geom=nocrowd test
 ----------------------------------------------------------------------

 hf stability analysis of h12 triangular lattice, y= 0.8331796203003375
 4 alpha= 50.250000000000000
 ----------------------------------------------------------------------
 Symbolic Z-matrix:
 Charge =  0 Multiplicity = 1

                         Standard orientation:
 ---------------------------------------------------------------------
 Center     Atomic      Atomic             Coordinates (Angstroms)
 Number     Number       Type             X           Y           Z
 ---------------------------------------------------------------------
      1          1           0        3.196605    1.134296    0.000000
      2          1           0        3.196605    0.050615    0.000000
      3          1           0        2.131070    0.936811    0.000000
      4          1           0        2.131070   -0.146870    0.000000
      5          1           0        1.065535    0.739326    0.000000
      6          1           0        1.065535   -0.344355    0.000000
      7          1           0        0.000000    0.541841    0.000000
      8          1           0       -0.000000   -0.541841    0.000000
      9          1           0       -1.065535    0.344355   -0.000000
     10          1           0       -1.065535   -0.739326    0.000000
     11          1           0       -2.131070    0.146870   -0.000000
     12          1           0       -2.131070   -0.936811    0.000000
     13          1           0       -3.196605   -0.050615   -0.000000
     14          1           0       -3.196605   -1.134296    0.000000
 ---------------------------------------------------------------------

 SCF Done:  E(RHF) =  -6.89487255765     A.U. after    9 cycles
 E2 =    -0.1578104224D+00 EUMP2 =    -0.70526829799996D+01

 The electronic state is 1-AG.
 Alpha  occ. eigenvalues --   -0.89132  -0.82249  -0.70511  -0.54525  -0.45292
 Alpha  occ. eigenvalues --   -0.35882  -0.34187
 Alpha virt. eigenvalues --   -0.01356   0.13587   0.18586   0.42453   0.44597
 Alpha virt. eigenvalues --    0.70875   0.93974

 Mulliken charges:
               1
     1  H    0.006438
     2  H    0.042692
     3  H    0.020181
     4  H   -0.070212
     5  H   -0.059245
     6  H    0.060784
     7  H   -0.000639
     8  H   -0.000639
     9  H    0.060784
    10  H   -0.059245
    11  H   -0.070212
    12  H    0.020181
    13  H    0.042692
    14  H    0.006438
 Sum of Mulliken charges =   0.00000

 Dipole moment (field-independent basis, Debye):
    X=             -0.0000    Y=             -0.0000    Z=             -0.0000  Tot=              0.0000
 Quadrupole moment (field-independent basis, Debye-Ang):
   XX=            -19.0215   YY=            -21.3320   ZZ=            -18.0054
   XY=              0.2338   XZ=             -0.0000   YZ=              0.0000

 Normal termination of Gaussian 09 at Wed Feb 15 13:10:30 2017.
