 Gaussian 09, Revision E.01,
 Gaussian 09:  ES64L-G09RevE.01 30-Nov-2015

 ----------------------------------------------------------------------
 #rhf/gen scf(symm,tight,novaracc,noincfock,fulldiag) stable(crhf) gues
 s=read geom=nocrowd test
 ----------------------------------------------------------------------

 hf stability analysis of h12 triangular lattice, y= 0.7902999627936464
 5 alpha= 47.250000000000000
 ----------------------------------------------------------------------
 Symbolic Z-matrix:
 Charge =  0 Multiplicity = 1

                         Standard orientation:
 ---------------------------------------------------------------------
 Center     Atomic      Atomic             Coordinates (Angstroms)
 Number     Number       Type             X           Y           Z
 ---------------------------------------------------------------------
      1          1           0        3.218737    0.791435   -0.000000
      2          1           0        3.218737   -0.284795   -0.000000
      3          1           0        2.145825    0.706995   -0.000000
      4          1           0        2.145825   -0.369235   -0.000000
      5          1           0        1.072912    0.622555   -0.000000
      6          1           0        1.072912   -0.453675   -0.000000
      7          1           0        0.000000    0.538115   -0.000000
      8          1           0       -0.000000   -0.538115   -0.000000
      9          1           0       -1.072912    0.453675    0.000000
     10          1           0       -1.072912   -0.622555   -0.000000
     11          1           0       -2.145825    0.369235   -0.000000
     12          1           0       -2.145825   -0.706995   -0.000000
     13          1           0       -3.218737    0.284795   -0.000000
     14          1           0       -3.218737   -0.791435   -0.000000
 ---------------------------------------------------------------------

 SCF Done:  E(RHF) =  -6.89725556517     A.U. after    9 cycles
 E2 =    -0.1577895428D+00 EUMP2 =    -0.70550451079900D+01

 The electronic state is 1-AG.
 Alpha  occ. eigenvalues --   -0.89362  -0.82457  -0.70475  -0.54405  -0.45978
 Alpha  occ. eigenvalues --   -0.36353  -0.34131
 Alpha virt. eigenvalues --   -0.01611   0.14433   0.18379   0.42223   0.45125
 Alpha virt. eigenvalues --    0.72351   0.98882

 Mulliken charges:
               1
     1  H    0.013949
     2  H    0.031387
     3  H   -0.005308
     4  H   -0.045444
     5  H   -0.021741
     6  H    0.030973
     7  H   -0.003817
     8  H   -0.003817
     9  H    0.030973
    10  H   -0.021741
    11  H   -0.045444
    12  H   -0.005308
    13  H    0.031387
    14  H    0.013949
 Sum of Mulliken charges =   0.00000

 Dipole moment (field-independent basis, Debye):
    X=             -0.0000    Y=              0.0000    Z=             -0.0000  Tot=              0.0000
 Quadrupole moment (field-independent basis, Debye-Ang):
   XX=            -19.4349   YY=            -21.2526   ZZ=            -17.9834
   XY=              0.0366   XZ=              0.0000   YZ=             -0.0000

 Normal termination of Gaussian 09 at Wed Feb 15 13:09:53 2017.
