 Gaussian 09, Revision E.01,
 Gaussian 09:  ES64L-G09RevE.01 30-Nov-2015

 ------------------------------------
 # opt rhf/6-31g(d) geom=connectivity
 ------------------------------------

 -------------------
 Title Card Required
 -------------------
 Symbolic Z-matrix:
 Charge =  0 Multiplicity = 1

 SCF Done:  E(RHF) =  -78.0302384921     A.U. after   11 cycles
 SCF Done:  E(RHF) =  -78.0316356893     A.U. after   10 cycles
 SCF Done:  E(RHF) =  -78.0317177938     A.U. after    9 cycles
 Optimization completed.
    -- Stationary point found.

                         Standard orientation:
 ---------------------------------------------------------------------
 Center     Atomic      Atomic             Coordinates (Angstroms)
 Number     Number       Type             X           Y           Z
 ---------------------------------------------------------------------
      1          6           0       -0.000034   -0.658465    0.000000
      2          1           0       -0.913765   -1.225818    0.000000
      3          1           0        0.914708   -1.225593    0.000000
      4          6           0       -0.000034    0.658457    0.000000
      5          1           0        0.914008    1.225491    0.000000
      6          1           0       -0.914540    1.225964    0.000000
 ---------------------------------------------------------------------

 The electronic state is 1-A'.
 Alpha  occ. eigenvalues --  -11.22430 -11.22250  -1.03317  -0.78961  -0.64068
 Alpha  occ. eigenvalues --   -0.58655  -0.50197  -0.37439
 Alpha virt. eigenvalues --    0.18392   0.26683   0.29316   0.31115   0.39306
 Alpha virt. eigenvalues --    0.49571   0.66185   0.76791   0.77265   0.85240
 Alpha virt. eigenvalues --    0.89376   0.96624   1.11003   1.16373   1.21229

 Mulliken charges:
               1
     1  C   -0.352729
     2  H    0.176441
     3  H    0.176299
     4  C   -0.352740
     5  H    0.176406
     6  H    0.176323
 Sum of Mulliken charges =  -0.00000

 Dipole moment (field-independent basis, Debye):
    X=             -0.0000    Y=             -0.0000    Z=              0.0000  Tot=              0.0000
 Quadrupole moment (field-independent basis, Debye-Ang):
   XX=            -12.2381   YY=            -11.9815   ZZ=            -15.3747
   XY=              0.0007   XZ=              0.0000   YZ=              0.0000

 Normal termination of Gaussian 09 at Tue Nov 29 15:33:06 2016.
