 Gaussian 09, Revision E.01,
 Gaussian 09:  ES64L-G09RevE.01 30-Nov-2015

 ----------------------------------------------------------------------
 #rhf/gen scf(symm,tight,novaracc,noincfock,fulldiag) stable(crhf) gues
 s=read geom=nocrowd test
 ----------------------------------------------------------------------

 ----------------------------------------------------------------------
 hf stability analysis of h12 triangular lattice, y= 2.5066432657105051
 ----------------------------------------------------------------------
 Symbolic Z-matrix:
 Charge =  0 Multiplicity = 1

                         Standard orientation:
 ---------------------------------------------------------------------
 Center     Atomic      Atomic             Coordinates (Angstroms)
 Number     Number       Type             X           Y           Z
 ---------------------------------------------------------------------
      1          1           0        0.458724    6.250857   -0.000000
      2          1           0        0.000000    3.775805    0.000000
      3          1           0        0.458724    3.733654   -0.000000
      4          1           0        0.000000    1.258602    0.000000
      5          1           0       -0.458724    1.300752    0.000000
      6          1           0       -0.458724   -1.216451    0.000000
      7          1           0       -0.458724   -3.733654   -0.000000
      8          1           0       -0.000000   -1.258602   -0.000000
      9          1           0        0.458724    1.216451    0.000000
     10          1           0        0.458724   -1.300752    0.000000
     11          1           0       -0.000000   -3.775805   -0.000000
     12          1           0       -0.458724   -6.250857   -0.000000
 ---------------------------------------------------------------------

 SCF Done:  E(RHF) =  -4.23322504386     A.U. after    6 cycles
 E2 =    -0.1122794844D+01 EUMP2 =    -0.53560198877171D+01

 The electronic state is 1-AG.
 Alpha  occ. eigenvalues --   -0.95193  -0.94761  -0.73155  -0.73148  -0.20616
 Alpha  occ. eigenvalues --   -0.17739
 Alpha virt. eigenvalues --   -0.16395   0.06671   0.65298   0.65406   1.56352
 Alpha virt. eigenvalues --    1.66156

 Mulliken charges:
               1
     1  H    0.001348
     2  H   -0.002283
     3  H   -0.001280
     4  H   -0.723772
     5  H    0.361318
     6  H    0.364670
     7  H   -0.001280
     8  H   -0.723772
     9  H    0.364670
    10  H    0.361318
    11  H   -0.002283
    12  H    0.001348
 Sum of Mulliken charges =  -0.00000

 Dipole moment (field-independent basis, Debye):
    X=              0.0000    Y=              0.0000    Z=              0.0000  Tot=              0.0000
 Quadrupole moment (field-independent basis, Debye-Ang):
   XX=            -16.8115   YY=            -16.1657   ZZ=            -15.5072
   XY=             -0.0877   XZ=              0.0000   YZ=             -0.0000

 Normal termination of Gaussian 09 at Fri Feb 17 15:08:42 2017.
