 Gaussian 09, Revision E.01,
 Gaussian 09:  ES64L-G09RevE.01 30-Nov-2015

 ----------------------------------------------------------------------
 #uhf/gen scf(tight,novaracc,noincfock,fulldiag, ) stable(crhf) guess=m
 ix geom=nocrowd test
 ----------------------------------------------------------------------

 hf stability analysis of h10 triangular lattice, y= 0.4799368795303601
 3 alpha= 21.750000000000000
 ----------------------------------------------------------------------
 Symbolic Z-matrix:
 Charge =  0 Multiplicity = 1

                         Standard orientation:
 ---------------------------------------------------------------------
 Center     Atomic      Atomic             Coordinates (Angstroms)
 Number     Number       Type             X           Y           Z
 ---------------------------------------------------------------------
      1          1           0        1.783080   -1.231386   -0.000000
      2          1           0        1.783080   -2.526562   -0.000000
      3          1           0        0.891540   -0.291899   -0.000000
      4          1           0        0.891540   -1.587075   -0.000000
      5          1           0        0.000000    0.647588    0.000000
      6          1           0       -0.000000   -0.647588    0.000000
      7          1           0       -0.891540    1.587075   -0.000000
      8          1           0       -0.891540    0.291899    0.000000
      9          1           0       -1.783080    2.526562   -0.000000
     10          1           0       -1.783080    1.231386   -0.000000
 ---------------------------------------------------------------------

 SCF Done:  E(UHF) =  -4.82662042054     A.U. after   21 cycles
 E2 =    -0.8479489462D-01 EUMP2 =    -0.49114153151667D+01

 Unable to determine electronic state:  partially filled degenerate orbitals.
 Alpha  occ. eigenvalues --   -0.82204  -0.71546  -0.56435  -0.35235  -0.27195
 Alpha virt. eigenvalues --    0.07013   0.16249   0.21066   0.38025   0.60024
  Beta  occ. eigenvalues --   -0.82204  -0.71546  -0.56435  -0.35235  -0.27195
  Beta virt. eigenvalues --    0.07013   0.16249   0.21066   0.38025   0.60024

 Mulliken charges and spin densities:
               1          2
     1  H    0.005773  -0.447104
     2  H   -0.031739  -0.025698
     3  H   -0.025397  -0.081486
     4  H    0.119242  -0.049376
     5  H   -0.067879   0.289001
     6  H   -0.067879  -0.289001
     7  H    0.119242   0.049376
     8  H   -0.025397   0.081486
     9  H   -0.031739   0.025698
    10  H    0.005773   0.447104
 Sum of Mulliken charges =   0.00000   0.00000

 Dipole moment (field-independent basis, Debye):
    X=             -0.0000    Y=              0.0000    Z=             -0.0000  Tot=              0.0000
 Quadrupole moment (field-independent basis, Debye-Ang):
   XX=            -14.5698   YY=            -14.5788   ZZ=            -13.0301
   XY=              0.3039   XZ=              0.0000   YZ=             -0.0000

 Normal termination of Gaussian 09 at Tue Feb 28 15:36:15 2017.
