 Gaussian 09, Revision E.01,
 Gaussian 09:  ES64L-G09RevE.01 30-Nov-2015

 ----------------------------------------------------------------------
 #uhf/gen scf(tight,novaracc,noincfock,fulldiag, ) stable(crhf) guess=m
 ix geom=nocrowd test
 ----------------------------------------------------------------------

 hf stability analysis of h10 triangular lattice, y= 0.4521619835073459
 3 alpha= 19.500000000000000
 ----------------------------------------------------------------------
 Symbolic Z-matrix:
 Charge =  0 Multiplicity = 1

                         Standard orientation:
 ---------------------------------------------------------------------
 Center     Atomic      Atomic             Coordinates (Angstroms)
 Number     Number       Type             X           Y           Z
 ---------------------------------------------------------------------
      1          1           0        1.704907   -1.428103    0.000000
      2          1           0        1.704907   -2.782665    0.000000
      3          1           0        0.852453   -0.375411    0.000000
      4          1           0        0.852453   -1.729973    0.000000
      5          1           0       -0.000000    0.677281   -0.000000
      6          1           0       -0.000000   -0.677281   -0.000000
      7          1           0       -0.852453    1.729973    0.000000
      8          1           0       -0.852453    0.375411    0.000000
      9          1           0       -1.704907    2.782665    0.000000
     10          1           0       -1.704907    1.428103    0.000000
 ---------------------------------------------------------------------

 SCF Done:  E(UHF) =  -4.88977673878     A.U. after   18 cycles
 E2 =    -0.5319236656D-01 EUMP2 =    -0.49429691053407D+01

 Unable to determine electronic state:  partially filled degenerate orbitals.
 Alpha  occ. eigenvalues --   -0.80283  -0.72028  -0.58774  -0.41756  -0.28506
 Alpha virt. eigenvalues --    0.09406   0.22457   0.24689   0.40636   0.59507
  Beta  occ. eigenvalues --   -0.80283  -0.72028  -0.58774  -0.41756  -0.28506
  Beta virt. eigenvalues --    0.09406   0.22457   0.24689   0.40636   0.59507

 Mulliken charges and spin densities:
               1          2
     1  H   -0.055830  -0.405827
     2  H   -0.095945  -0.831296
     3  H    0.062100   0.247511
     4  H    0.122077   0.288984
     5  H   -0.032401   0.298278
     6  H   -0.032401  -0.298278
     7  H    0.122077  -0.288984
     8  H    0.062100  -0.247511
     9  H   -0.095945   0.831296
    10  H   -0.055830   0.405827
 Sum of Mulliken charges =  -0.00000  -0.00000

 Dipole moment (field-independent basis, Debye):
    X=             -0.0000    Y=              0.0000    Z=             -0.0000  Tot=              0.0000
 Quadrupole moment (field-independent basis, Debye-Ang):
   XX=            -16.1763   YY=            -21.8431   ZZ=            -12.6067
   XY=              6.9681   XZ=              0.0000   YZ=             -0.0000

 Normal termination of Gaussian 09 at Tue Feb 28 15:35:47 2017.
