 Gaussian 09, Revision E.01,
 Gaussian 09:  ES64L-G09RevE.01 30-Nov-2015

 ----------------------------------------------------------------------
 #uhf/gen scf(tight,novaracc,noincfock,fulldiag, ) stable(crhf) guess=m
 ix geom=nocrowd test
 ----------------------------------------------------------------------

 hf stability analysis of h10 triangular lattice, y= 0.5099777844418526
 0 alpha= 24.250000000000000
 ----------------------------------------------------------------------
 Symbolic Z-matrix:
 Charge =  0 Multiplicity = 1

                         Standard orientation:
 ---------------------------------------------------------------------
 Center     Atomic      Atomic             Coordinates (Angstroms)
 Number     Number       Type             X           Y           Z
 ---------------------------------------------------------------------
      1          1           0        1.859913   -1.024677    0.000000
      2          1           0        1.859913   -2.266348    0.000000
      3          1           0        0.929957   -0.201921    0.000000
      4          1           0        0.929957   -1.443592    0.000000
      5          1           0       -0.000000    0.620836    0.000000
      6          1           0       -0.000000   -0.620836   -0.000000
      7          1           0       -0.929957    1.443592    0.000000
      8          1           0       -0.929957    0.201921    0.000000
      9          1           0       -1.859913    2.266348    0.000000
     10          1           0       -1.859913    1.024677    0.000000
 ---------------------------------------------------------------------

 SCF Done:  E(UHF) =  -4.86202325406     A.U. after   21 cycles
 E2 =    -0.7531563730D-01 EUMP2 =    -0.49373388913512D+01

 Unable to determine electronic state:  partially filled degenerate orbitals.
 Alpha  occ. eigenvalues --   -0.83614  -0.71576  -0.56514  -0.34902  -0.31161
 Alpha virt. eigenvalues --    0.08173   0.16513   0.25163   0.40968   0.59564
  Beta  occ. eigenvalues --   -0.83614  -0.71576  -0.56514  -0.34902  -0.31161
  Beta virt. eigenvalues --    0.08173   0.16513   0.25163   0.40968   0.59564

 Mulliken charges and spin densities:
               1          2
     1  H    0.083395   0.438820
     2  H   -0.028491  -0.466761
     3  H   -0.119382   0.197440
     4  H    0.056151   0.231203
     5  H    0.008326  -0.287749
     6  H    0.008326   0.287749
     7  H    0.056151  -0.231203
     8  H   -0.119382  -0.197440
     9  H   -0.028491   0.466761
    10  H    0.083395  -0.438820
 Sum of Mulliken charges =  -0.00000  -0.00000

 Dipole moment (field-independent basis, Debye):
    X=              0.0000    Y=             -0.0000    Z=              0.0000  Tot=              0.0000
 Quadrupole moment (field-independent basis, Debye-Ang):
   XX=            -13.4774   YY=            -14.6511   ZZ=            -12.9923
   XY=             -0.4340   XZ=             -0.0000   YZ=             -0.0000

 Normal termination of Gaussian 09 at Tue Feb 28 15:36:47 2017.
