 Gaussian 09, Revision E.01,
 Gaussian 09:  ES64L-G09RevE.01 30-Nov-2015

 ----------------------------------------------------------------------
 #uhf/gen scf(tight,novaracc,noincfock,fulldiag, ) stable(crhf) guess=m
 ix geom=nocrowd test
 ----------------------------------------------------------------------

 hf stability analysis of h10 triangular lattice, y= 0.4266589340790049
 6 alpha= 17.500000000000000
 ----------------------------------------------------------------------
 Symbolic Z-matrix:
 Charge =  0 Multiplicity = 1

                         Standard orientation:
 ---------------------------------------------------------------------
 Center     Atomic      Atomic             Coordinates (Angstroms)
 Number     Number       Type             X           Y           Z
 ---------------------------------------------------------------------
      1          1           0        1.627647   -1.615092    0.000000
      2          1           0        1.627647   -3.033951    0.000000
      3          1           0        0.813824   -0.452832    0.000000
      4          1           0        0.813824   -1.871690    0.000000
      5          1           0       -0.000000    0.709429    0.000000
      6          1           0       -0.000000   -0.709429   -0.000000
      7          1           0       -0.813824    1.871690    0.000000
      8          1           0       -0.813824    0.452832    0.000000
      9          1           0       -1.627647    3.033951    0.000000
     10          1           0       -1.627647    1.615092    0.000000
 ---------------------------------------------------------------------

 SCF Done:  E(UHF) =  -4.98996996305     A.U. after   15 cycles
 E2 =    -0.5778006331D-01 EUMP2 =    -0.50477500263604D+01

 Unable to determine electronic state:  partially filled degenerate orbitals.
 Alpha  occ. eigenvalues --   -0.77977  -0.70758  -0.59034  -0.44227  -0.31442
 Alpha virt. eigenvalues --    0.13408   0.22764   0.25808   0.43611   0.61461
  Beta  occ. eigenvalues --   -0.77977  -0.70758  -0.59034  -0.44227  -0.31442
  Beta virt. eigenvalues --    0.13408   0.22764   0.25808   0.43611   0.61461

 Mulliken charges and spin densities:
               1          2
     1  H   -0.023177  -0.158881
     2  H   -0.070187  -0.918016
     3  H    0.024502   0.095052
     4  H    0.071083   0.101237
     5  H   -0.002221   0.113860
     6  H   -0.002221  -0.113860
     7  H    0.071083  -0.101237
     8  H    0.024502  -0.095052
     9  H   -0.070187   0.918016
    10  H   -0.023177   0.158881
 Sum of Mulliken charges =  -0.00000   0.00000

 Dipole moment (field-independent basis, Debye):
    X=              0.0000    Y=             -0.0000    Z=             -0.0000  Tot=              0.0000
 Quadrupole moment (field-independent basis, Debye-Ang):
   XX=            -14.4246   YY=            -21.9793   ZZ=            -12.6097
   XY=              6.3304   XZ=              0.0000   YZ=             -0.0000

 Normal termination of Gaussian 09 at Tue Feb 28 15:35:23 2017.
