 Gaussian 09, Revision E.01,
 Gaussian 09:  ES64L-G09RevE.01 30-Nov-2015

 ----------------------------------------------------------------------
 #uhf/gen scf(tight,novaracc,noincfock,fulldiag, ) stable(crhf) guess=m
 ix geom=nocrowd test
 ----------------------------------------------------------------------

 hf stability analysis of h10 triangular lattice, y= 1.0879998015825072
  alpha= 64.000000000000000
 ----------------------------------------------------------------------
 Symbolic Z-matrix:
 Charge =  0 Multiplicity = 1

                         Standard orientation:
 ---------------------------------------------------------------------
 Center     Atomic      Atomic             Coordinates (Angstroms)
 Number     Number       Type             X           Y           Z
 ---------------------------------------------------------------------
      1          1           0        1.907791    2.095785    0.000000
      2          1           0        1.907791    0.885274    0.000000
      3          1           0        0.953895    1.350520    0.000000
      4          1           0        0.953895    0.140009    0.000000
      5          1           0        0.000000    0.605255    0.000000
      6          1           0       -0.000000   -0.605255    0.000000
      7          1           0       -0.953895   -0.140009    0.000000
      8          1           0       -0.953895   -1.350520    0.000000
      9          1           0       -1.907791   -0.885274    0.000000
     10          1           0       -1.907791   -2.095785    0.000000
 ---------------------------------------------------------------------

 SCF Done:  E(UHF) =  -4.87472813203     A.U. after   19 cycles
 E2 =    -0.7712763584D-01 EUMP2 =    -0.49518557678704D+01

 Unable to determine electronic state:  partially filled degenerate orbitals.
 Alpha  occ. eigenvalues --   -0.84398  -0.72209  -0.56280  -0.33870  -0.33292
 Alpha virt. eigenvalues --    0.06797   0.17520   0.26024   0.44790   0.58332
  Beta  occ. eigenvalues --   -0.84398  -0.72209  -0.56280  -0.33870  -0.33292
  Beta virt. eigenvalues --    0.06797   0.17520   0.26024   0.44790   0.58332

 Mulliken charges and spin densities:
               1          2
     1  H   -0.049330   0.429646
     2  H    0.096402  -0.422723
     3  H    0.066668  -0.235967
     4  H   -0.135415  -0.161310
     5  H    0.021675  -0.246155
     6  H    0.021675   0.246155
     7  H   -0.135415   0.161310
     8  H    0.066668   0.235967
     9  H    0.096402   0.422723
    10  H   -0.049330  -0.429646
 Sum of Mulliken charges =   0.00000   0.00000

 Dipole moment (field-independent basis, Debye):
    X=             -0.0000    Y=             -0.0000    Z=              0.0000  Tot=              0.0000
 Quadrupole moment (field-independent basis, Debye-Ang):
   XX=            -13.9055   YY=            -15.2551   ZZ=            -12.9738
   XY=             -0.2624   XZ=             -0.0000   YZ=             -0.0000

 Normal termination of Gaussian 09 at Tue Feb 28 15:45:05 2017.
