 Gaussian 09, Revision E.01,
 Gaussian 09:  ES64L-G09RevE.01 30-Nov-2015

 ----------------------------------------------------------------------
 #uhf/gen scf(tight,novaracc,noincfock,fulldiag, ) stable(crhf) guess=m
 ix geom=nocrowd test
 ----------------------------------------------------------------------

 hf stability analysis of h10 triangular lattice, y= 1.2184637462790018
  alpha= 68.750000000000000
 ----------------------------------------------------------------------
 Symbolic Z-matrix:
 Charge =  0 Multiplicity = 1

                         Standard orientation:
 ---------------------------------------------------------------------
 Center     Atomic      Atomic             Coordinates (Angstroms)
 Number     Number       Type             X           Y           Z
 ---------------------------------------------------------------------
      1          1           0        1.766470    2.581441    0.000000
      2          1           0        1.766470    1.274087    0.000000
      3          1           0        0.883235    1.617559    0.000000
      4          1           0        0.883235    0.310205    0.000000
      5          1           0        0.000000    0.653677    0.000000
      6          1           0       -0.000000   -0.653677    0.000000
      7          1           0       -0.883235   -0.310205   -0.000000
      8          1           0       -0.883235   -1.617559   -0.000000
      9          1           0       -1.766470   -1.274087   -0.000000
     10          1           0       -1.766470   -2.581441   -0.000000
 ---------------------------------------------------------------------

 SCF Done:  E(UHF) =  -4.82017327744     A.U. after   24 cycles
 E2 =    -0.8471909835D-01 EUMP2 =    -0.49048923757899D+01

 Unable to determine electronic state:  partially filled degenerate orbitals.
 Alpha  occ. eigenvalues --   -0.82008  -0.70991  -0.56573  -0.35751  -0.26456
 Alpha virt. eigenvalues --    0.07234   0.16030   0.20464   0.38140   0.60831
  Beta  occ. eigenvalues --   -0.82008  -0.70991  -0.56573  -0.35751  -0.26456
  Beta virt. eigenvalues --    0.07234   0.16030   0.20464   0.38140   0.60831

 Mulliken charges and spin densities:
               1          2
     1  H   -0.017565  -0.156815
     2  H    0.019099   0.478116
     3  H    0.098141   0.112251
     4  H   -0.050915   0.118563
     5  H   -0.048759   0.306060
     6  H   -0.048759  -0.306060
     7  H   -0.050915  -0.118563
     8  H    0.098141  -0.112251
     9  H    0.019099  -0.478116
    10  H   -0.017565   0.156815
 Sum of Mulliken charges =   0.00000   0.00000

 Dipole moment (field-independent basis, Debye):
    X=             -0.0000    Y=             -0.0000    Z=             -0.0000  Tot=              0.0000
 Quadrupole moment (field-independent basis, Debye-Ang):
   XX=            -14.0610   YY=            -13.8956   ZZ=            -13.0412
   XY=              0.4290   XZ=             -0.0000   YZ=              0.0000

 Normal termination of Gaussian 09 at Tue Feb 28 15:46:03 2017.
