 Gaussian 09, Revision E.01,
 Gaussian 09:  ES64L-G09RevE.01 30-Nov-2015

 ----------------------------------------------------------------------
 #uhf/gen scf(tight,novaracc,noincfock,fulldiag, ) stable(crhf) guess=m
 ix geom=nocrowd test
 ----------------------------------------------------------------------

 hf stability analysis of h10 triangular lattice, y= 0.4102222107631511
 3 alpha= 16.250000000000000
 ----------------------------------------------------------------------
 Symbolic Z-matrix:
 Charge =  0 Multiplicity = 1

                         Standard orientation:
 ---------------------------------------------------------------------
 Center     Atomic      Atomic             Coordinates (Angstroms)
 Number     Number       Type             X           Y           Z
 ---------------------------------------------------------------------
      1          1           0        1.575335   -1.739793   -0.000000
      2          1           0        1.575335   -3.205768    0.000000
      3          1           0        0.787668   -0.503403   -0.000000
      4          1           0        0.787668   -1.969378    0.000000
      5          1           0        0.000000    0.732987   -0.000000
      6          1           0       -0.000000   -0.732987    0.000000
      7          1           0       -0.787668    1.969378   -0.000000
      8          1           0       -0.787668    0.503403   -0.000000
      9          1           0       -1.575335    3.205768   -0.000000
     10          1           0       -1.575335    1.739793   -0.000000
 ---------------------------------------------------------------------

 SCF Done:  E(UHF) =  -5.05410732391     A.U. after   13 cycles
 E2 =    -0.5546377971D-01 EUMP2 =    -0.51095711036135D+01

 Unable to determine electronic state:  partially filled degenerate orbitals.
 Alpha  occ. eigenvalues --   -0.76856  -0.70278  -0.59486  -0.45891  -0.34266
 Alpha virt. eigenvalues --    0.16363   0.21516   0.28151   0.45421   0.62755
  Beta  occ. eigenvalues --   -0.76856  -0.70278  -0.59486  -0.45891  -0.34266
  Beta virt. eigenvalues --    0.16363   0.21516   0.28151   0.45421   0.62755

 Mulliken charges and spin densities:
               1          2
     1  H   -0.013034   0.078880
     2  H   -0.049193   0.946435
     3  H    0.011690  -0.043558
     4  H    0.047212  -0.040898
     5  H    0.003325  -0.055274
     6  H    0.003325   0.055274
     7  H    0.047212   0.040898
     8  H    0.011690   0.043558
     9  H   -0.049193  -0.946435
    10  H   -0.013034  -0.078880
 Sum of Mulliken charges =   0.00000  -0.00000

 Dipole moment (field-independent basis, Debye):
    X=              0.0000    Y=             -0.0000    Z=              0.0000  Tot=              0.0000
 Quadrupole moment (field-independent basis, Debye-Ang):
   XX=            -13.5576   YY=            -21.2099   ZZ=            -12.6582
   XY=              5.3082   XZ=             -0.0000   YZ=              0.0000

 Normal termination of Gaussian 09 at Tue Feb 28 15:35:08 2017.
