 Gaussian 09, Revision E.01,
 Gaussian 09:  ES64L-G09RevE.01 30-Nov-2015

 ----------------------------------------------------------------------
 #uhf/gen scf(tight,novaracc,noincfock,fulldiag, ) stable(crhf) guess=m
 ix geom=nocrowd test
 ----------------------------------------------------------------------

 hf stability analysis of h10 triangular lattice, y= 0.9122757376900774
 2 alpha= 55.250000000000000
 ----------------------------------------------------------------------
 Symbolic Z-matrix:
 Charge =  0 Multiplicity = 1

                         Standard orientation:
 ---------------------------------------------------------------------
 Center     Atomic      Atomic             Coordinates (Angstroms)
 Number     Number       Type             X           Y           Z
 ---------------------------------------------------------------------
      1          1           0        2.079977    1.332822    0.000000
      2          1           0        2.079977    0.222521    0.000000
      3          1           0        1.039988    0.943986    0.000000
      4          1           0        1.039988   -0.166315    0.000000
      5          1           0       -0.000000    0.555151    0.000000
      6          1           0       -0.000000   -0.555151   -0.000000
      7          1           0       -1.039988    0.166315    0.000000
      8          1           0       -1.039988   -0.943986    0.000000
      9          1           0       -2.079977   -0.222521    0.000000
     10          1           0       -2.079977   -1.332822    0.000000
 ---------------------------------------------------------------------

 SCF Done:  E(UHF) =  -4.92860215792     A.U. after   17 cycles
 E2 =    -0.5448458681D-01 EUMP2 =    -0.49830867447333D+01

 Unable to determine electronic state:  partially filled degenerate orbitals.
 Alpha  occ. eigenvalues --   -0.86074  -0.74468  -0.56182  -0.41484  -0.36843
 Alpha virt. eigenvalues --    0.05082   0.22042   0.31415   0.54833   0.73918
  Beta  occ. eigenvalues --   -0.86074  -0.74468  -0.56182  -0.41484  -0.36843
  Beta virt. eigenvalues --    0.05082   0.22042   0.31415   0.54833   0.73918

 Mulliken charges and spin densities:
               1          2
     1  H    0.042424  -0.586910
     2  H   -0.001684   0.520949
     3  H    0.021635   0.489431
     4  H   -0.048219  -0.482752
     5  H   -0.014155  -0.300062
     6  H   -0.014155   0.300062
     7  H   -0.048219   0.482752
     8  H    0.021635  -0.489431
     9  H   -0.001684  -0.520949
    10  H    0.042424   0.586910
 Sum of Mulliken charges =   0.00000  -0.00000

 Dipole moment (field-independent basis, Debye):
    X=              0.0000    Y=              0.0000    Z=              0.0000  Tot=              0.0000
 Quadrupole moment (field-independent basis, Debye-Ang):
   XX=            -13.8196   YY=            -14.2216   ZZ=            -12.8433
   XY=              1.8011   XZ=              0.0000   YZ=             -0.0000

 Normal termination of Gaussian 09 at Tue Feb 28 15:43:18 2017.
