 Gaussian 09, Revision E.01,
 Gaussian 09:  ES64L-G09RevE.01 30-Nov-2015

 ----------------------------------------------------------------------
 #uhf/gen scf(tight,novaracc,noincfock,fulldiag, ) stable(crhf) guess=m
 ix geom=nocrowd test
 ----------------------------------------------------------------------

 hf stability analysis of h10 triangular lattice, y= 1.3330047374615932
  alpha= 72.000000000000000
 ----------------------------------------------------------------------
 Symbolic Z-matrix:
 Charge =  0 Multiplicity = 1

                         Standard orientation:
 ---------------------------------------------------------------------
 Center     Atomic      Atomic             Coordinates (Angstroms)
 Number     Number       Type             X           Y           Z
 ---------------------------------------------------------------------
      1          1           0        1.647684    2.968645    0.000000
      2          1           0        1.647684    1.567041   -0.000000
      3          1           0        0.823842    1.834724    0.000000
      4          1           0        0.823842    0.433119   -0.000000
      5          1           0        0.000000    0.700802    0.000000
      6          1           0       -0.000000   -0.700802   -0.000000
      7          1           0       -0.823842   -0.433119   -0.000000
      8          1           0       -0.823842   -1.834724   -0.000000
      9          1           0       -1.647684   -1.567041   -0.000000
     10          1           0       -1.647684   -2.968645   -0.000000
 ---------------------------------------------------------------------

 SCF Done:  E(UHF) =  -4.96361251241     A.U. after   16 cycles
 E2 =    -0.5780705273D-01 EUMP2 =    -0.50214195651377D+01

 Unable to determine electronic state:  partially filled degenerate orbitals.
 Alpha  occ. eigenvalues --   -0.78497  -0.71019  -0.58914  -0.43591  -0.30466
 Alpha virt. eigenvalues --    0.12287   0.23264   0.24926   0.42878   0.60925
  Beta  occ. eigenvalues --   -0.78497  -0.71019  -0.58914  -0.43591  -0.30466
  Beta virt. eigenvalues --    0.12287   0.23264   0.24926   0.42878   0.60925

 Mulliken charges and spin densities:
               1          2
     1  H   -0.078657   0.902771
     2  H   -0.029803   0.210681
     3  H    0.083164  -0.142444
     4  H    0.032463  -0.128956
     5  H   -0.007167   0.152307
     6  H   -0.007167  -0.152307
     7  H    0.032463   0.128956
     8  H    0.083164   0.142444
     9  H   -0.029803  -0.210681
    10  H   -0.078657  -0.902771
 Sum of Mulliken charges =   0.00000   0.00000

 Dipole moment (field-independent basis, Debye):
    X=             -0.0000    Y=             -0.0000    Z=              0.0000  Tot=              0.0000
 Quadrupole moment (field-independent basis, Debye-Ang):
   XX=            -14.8471   YY=            -22.1717   ZZ=            -12.5979
   XY=             -6.6786   XZ=             -0.0000   YZ=             -0.0000

 Normal termination of Gaussian 09 at Tue Feb 28 15:46:43 2017.
