 Gaussian 09, Revision E.01,
 Gaussian 09:  ES64L-G09RevE.01 30-Nov-2015

 ----------------------------------------------------------------------
 #uhf/gen scf(tight,novaracc,noincfock,fulldiag, ) stable(crhf) guess=m
 ix geom=nocrowd test
 ----------------------------------------------------------------------

 hf stability analysis of h10 triangular lattice, y= 0.3829207402470090
 1 alpha= 14.250000000000000
 ----------------------------------------------------------------------
 Symbolic Z-matrix:
 Charge =  0 Multiplicity = 1

                         Standard orientation:
 ---------------------------------------------------------------------
 Center     Atomic      Atomic             Coordinates (Angstroms)
 Number     Number       Type             X           Y           Z
 ---------------------------------------------------------------------
      1          1           0        1.484554   -1.956400    0.000000
      2          1           0        1.484554   -3.512019    0.000000
      3          1           0        0.742277   -0.589295    0.000000
      4          1           0        0.742277   -2.144914    0.000000
      5          1           0        0.000000    0.777809   -0.000000
      6          1           0       -0.000000   -0.777809   -0.000000
      7          1           0       -0.742277    2.144914    0.000000
      8          1           0       -0.742277    0.589295    0.000000
      9          1           0       -1.484554    3.512019    0.000000
     10          1           0       -1.484554    1.956400    0.000000
 ---------------------------------------------------------------------

 SCF Done:  E(UHF) =  -5.14070490669     A.U. after   11 cycles
 E2 =    -0.4987945150D-01 EUMP2 =    -0.51905843581869D+01

 Unable to determine electronic state:  partially filled degenerate orbitals.
 Alpha  occ. eigenvalues --   -0.75424  -0.69834  -0.60531  -0.48847  -0.39066
 Alpha virt. eigenvalues --    0.18947   0.22012   0.32309   0.48368   0.64533
  Beta  occ. eigenvalues --   -0.75424  -0.69834  -0.60531  -0.48847  -0.39066
  Beta virt. eigenvalues --    0.18947   0.22012   0.32309   0.48368   0.64533

 Mulliken charges and spin densities:
               1          2
     1  H   -0.006605   0.026499
     2  H   -0.022684   0.976128
     3  H    0.003176  -0.012893
     4  H    0.022390  -0.009661
     5  H    0.003723  -0.018450
     6  H    0.003723   0.018450
     7  H    0.022390   0.009661
     8  H    0.003176   0.012893
     9  H   -0.022684  -0.976128
    10  H   -0.006605  -0.026499
 Sum of Mulliken charges =   0.00000   0.00000

 Dipole moment (field-independent basis, Debye):
    X=             -0.0000    Y=              0.0000    Z=             -0.0000  Tot=              0.0000
 Quadrupole moment (field-independent basis, Debye-Ang):
   XX=            -12.6672   YY=            -19.7423   ZZ=            -12.7692
   XY=              3.7512   XZ=              0.0000   YZ=             -0.0000

 Normal termination of Gaussian 09 at Tue Feb 28 15:34:45 2017.
