 Gaussian 09, Revision E.01,
 Gaussian 09:  ES64L-G09RevE.01 30-Nov-2015

 ----------------------------------------------------------------------
 #uhf/gen scf(tight,novaracc,noincfock,fulldiag, ) stable(crhf) guess=m
 ix geom=nocrowd test
 ----------------------------------------------------------------------

 hf stability analysis of h10 triangular lattice, y= 1.1733815430447392
  alpha= 67.250000000000000
 ----------------------------------------------------------------------
 Symbolic Z-matrix:
 Charge =  0 Multiplicity = 1

                         Standard orientation:
 ---------------------------------------------------------------------
 Center     Atomic      Atomic             Coordinates (Angstroms)
 Number     Number       Type             X           Y           Z
 ---------------------------------------------------------------------
      1          1           0        1.815038    2.419818   -0.000000
      2          1           0        1.815038    1.147448   -0.000000
      3          1           0        0.907519    1.528002   -0.000000
      4          1           0        0.907519    0.255631   -0.000000
      5          1           0        0.000000    0.636185    0.000000
      6          1           0       -0.000000   -0.636185   -0.000000
      7          1           0       -0.907519   -0.255631   -0.000000
      8          1           0       -0.907519   -1.528002   -0.000000
      9          1           0       -1.815038   -1.147448   -0.000000
     10          1           0       -1.815038   -2.419818   -0.000000
 ---------------------------------------------------------------------

 SCF Done:  E(UHF) =  -4.84541905402     A.U. after   29 cycles
 E2 =    -0.7355792727D-01 EUMP2 =    -0.49189769812900D+01

 Unable to determine electronic state:  partially filled degenerate orbitals.
 Alpha  occ. eigenvalues --   -0.82887  -0.70931  -0.56771  -0.36003  -0.29052
 Alpha virt. eigenvalues --    0.08671   0.16369   0.23563   0.39063   0.60712
  Beta  occ. eigenvalues --   -0.82887  -0.70931  -0.56771  -0.36003  -0.29052
  Beta virt. eigenvalues --    0.08671   0.16369   0.23563   0.39063   0.60712

 Mulliken charges and spin densities:
               1          2
     1  H   -0.007457  -0.506194
     2  H    0.069042   0.457266
     3  H    0.045673   0.238491
     4  H   -0.106272   0.216049
     5  H   -0.000986   0.315473
     6  H   -0.000986  -0.315473
     7  H   -0.106272  -0.216049
     8  H    0.045673  -0.238491
     9  H    0.069042  -0.457266
    10  H   -0.007457   0.506194
 Sum of Mulliken charges =  -0.00000  -0.00000

 Dipole moment (field-independent basis, Debye):
    X=              0.0000    Y=              0.0000    Z=             -0.0000  Tot=              0.0000
 Quadrupole moment (field-independent basis, Debye-Ang):
   XX=            -13.1777   YY=            -13.8194   ZZ=            -13.0062
   XY=              1.1436   XZ=              0.0000   YZ=              0.0000

 Normal termination of Gaussian 09 at Tue Feb 28 15:45:45 2017.
