 Gaussian 09, Revision E.01,
 Gaussian 09:  ES64L-G09RevE.01 30-Nov-2015

 ----------------------------------------------------------------------
 #uhf/gen scf(tight,novaracc,noincfock,fulldiag, ) stable(crhf) guess=m
 ix geom=nocrowd test
 ----------------------------------------------------------------------

 hf stability analysis of h10 triangular lattice, y= 0.4768902663057268
 4 alpha= 21.500000000000000
 ----------------------------------------------------------------------
 Symbolic Z-matrix:
 Charge =  0 Multiplicity = 1

                         Standard orientation:
 ---------------------------------------------------------------------
 Center     Atomic      Atomic             Coordinates (Angstroms)
 Number     Number       Type             X           Y           Z
 ---------------------------------------------------------------------
      1          1           0        1.774828   -1.252672   -0.000000
      2          1           0        1.774828   -2.553869   -0.000000
      3          1           0        0.887414   -0.301037   -0.000000
      4          1           0        0.887414   -1.602234   -0.000000
      5          1           0        0.000000    0.650598    0.000000
      6          1           0       -0.000000   -0.650598    0.000000
      7          1           0       -0.887414    1.602234   -0.000000
      8          1           0       -0.887414    0.301037   -0.000000
      9          1           0       -1.774828    2.553869   -0.000000
     10          1           0       -1.774828    1.252672   -0.000000
 ---------------------------------------------------------------------

 SCF Done:  E(UHF) =  -4.82361018369     A.U. after   23 cycles
 E2 =    -0.8525246234D-01 EUMP2 =    -0.49088626460219D+01

 Unable to determine electronic state:  partially filled degenerate orbitals.
 Alpha  occ. eigenvalues --   -0.82108  -0.71254  -0.56492  -0.35442  -0.26840
 Alpha virt. eigenvalues --    0.07149   0.16127   0.20699   0.38070   0.60453
  Beta  occ. eigenvalues --   -0.82108  -0.71254  -0.56492  -0.35442  -0.26840
  Beta virt. eigenvalues --    0.07149   0.16127   0.20699   0.38070   0.60453

 Mulliken charges and spin densities:
               1          2
     1  H    0.013914  -0.465024
     2  H   -0.024548   0.076141
     3  H   -0.040843  -0.101941
     4  H    0.108262  -0.083766
     5  H   -0.056786   0.298566
     6  H   -0.056786  -0.298566
     7  H    0.108262   0.083766
     8  H   -0.040843   0.101941
     9  H   -0.024548  -0.076141
    10  H    0.013914   0.465024
 Sum of Mulliken charges =   0.00000   0.00000

 Dipole moment (field-independent basis, Debye):
    X=              0.0000    Y=             -0.0000    Z=             -0.0000  Tot=              0.0000
 Quadrupole moment (field-independent basis, Debye-Ang):
   XX=            -14.2890   YY=            -14.2204   ZZ=            -13.0376
   XY=             -0.0922   XZ=             -0.0000   YZ=              0.0000

 Normal termination of Gaussian 09 at Tue Feb 28 15:36:12 2017.
