 Gaussian 09, Revision E.01,
 Gaussian 09:  ES64L-G09RevE.01 30-Nov-2015

 ----------------------------------------------------------------------
 #uhf/gen scf(tight,novaracc,noincfock,fulldiag, ) stable(crhf) guess=m
 ix geom=nocrowd test
 ----------------------------------------------------------------------

 hf stability analysis of h10 triangular lattice, y= 1.2857983717814927
  alpha= 70.750000000000000
 ----------------------------------------------------------------------
 Symbolic Z-matrix:
 Charge =  0 Multiplicity = 1

                         Standard orientation:
 ---------------------------------------------------------------------
 Center     Atomic      Atomic             Coordinates (Angstroms)
 Number     Number       Type             X           Y           Z
 ---------------------------------------------------------------------
      1          1           0        1.695663    2.812713   -0.000000
      2          1           0        1.695663    1.450767   -0.000000
      3          1           0        0.847831    1.746843   -0.000000
      4          1           0        0.847831    0.384897   -0.000000
      5          1           0        0.000000    0.680973    0.000000
      6          1           0       -0.000000   -0.680973    0.000000
      7          1           0       -0.847831   -0.384897   -0.000000
      8          1           0       -0.847831   -1.746843   -0.000000
      9          1           0       -1.695663   -1.450767   -0.000000
     10          1           0       -1.695663   -2.812713   -0.000000
 ---------------------------------------------------------------------

 SCF Done:  E(UHF) =  -4.90102599306     A.U. after   18 cycles
 E2 =    -0.5418476728D-01 EUMP2 =    -0.49552107603474D+01

 Unable to determine electronic state:  partially filled degenerate orbitals.
 Alpha  occ. eigenvalues --   -0.79976  -0.71850  -0.58789  -0.42066  -0.28736
 Alpha virt. eigenvalues --    0.09831   0.22853   0.24480   0.41013   0.59712
  Beta  occ. eigenvalues --   -0.79976  -0.71850  -0.58789  -0.42066  -0.28736
  Beta virt. eigenvalues --    0.09831   0.22853   0.24480   0.41013   0.59712

 Mulliken charges and spin densities:
               1          2
     1  H   -0.094317   0.846836
     2  H   -0.051484   0.375195
     3  H    0.115964  -0.268550
     4  H    0.057207  -0.231273
     5  H   -0.027370   0.275466
     6  H   -0.027370  -0.275466
     7  H    0.057207   0.231273
     8  H    0.115964   0.268550
     9  H   -0.051484  -0.375195
    10  H   -0.094317  -0.846836
 Sum of Mulliken charges =  -0.00000  -0.00000

 Dipole moment (field-independent basis, Debye):
    X=              0.0000    Y=              0.0000    Z=              0.0000  Tot=              0.0000
 Quadrupole moment (field-independent basis, Debye-Ang):
   XX=            -15.9706   YY=            -22.0068   ZZ=            -12.5995
   XY=             -7.0215   XZ=              0.0000   YZ=              0.0000

 Normal termination of Gaussian 09 at Tue Feb 28 15:46:27 2017.
