 Gaussian 09, Revision E.01,
 Gaussian 09:  ES64L-G09RevE.01 30-Nov-2015

 ----------------------------------------------------------------------
 #uhf/gen scf(tight,novaracc,noincfock,fulldiag, ) stable(crhf) guess=m
 ix geom=nocrowd test
 ----------------------------------------------------------------------

 hf stability analysis of h10 triangular lattice, y= 0.8955390333684565
 3 alpha= 54.250000000000000
 ----------------------------------------------------------------------
 Symbolic Z-matrix:
 Charge =  0 Multiplicity = 1

                         Standard orientation:
 ---------------------------------------------------------------------
 Center     Atomic      Atomic             Coordinates (Angstroms)
 Number     Number       Type             X           Y           Z
 ---------------------------------------------------------------------
      1          1           0        2.092873    1.251995    0.000000
      2          1           0        2.092873    0.148536    0.000000
      3          1           0        1.046437    0.901863   -0.000000
      4          1           0        1.046437   -0.201597    0.000000
      5          1           0        0.000000    0.551730   -0.000000
      6          1           0       -0.000000   -0.551730   -0.000000
      7          1           0       -1.046437    0.201597    0.000000
      8          1           0       -1.046437   -0.901863    0.000000
      9          1           0       -2.092873   -0.148536    0.000000
     10          1           0       -2.092873   -1.251995    0.000000
 ---------------------------------------------------------------------

 SCF Done:  E(UHF) =  -4.93478356409     A.U. after   16 cycles
 E2 =    -0.5297685721D-01 EUMP2 =    -0.49877604212963D+01

 Unable to determine electronic state:  partially filled degenerate orbitals.
 Alpha  occ. eigenvalues --   -0.86308  -0.74561  -0.56139  -0.42300  -0.37223
 Alpha virt. eigenvalues --    0.05367   0.21868   0.32374   0.54576   0.76846
  Beta  occ. eigenvalues --   -0.86308  -0.74561  -0.56139  -0.42300  -0.37223
  Beta virt. eigenvalues --    0.05367   0.21868   0.32374   0.54576   0.76846

 Mulliken charges and spin densities:
               1          2
     1  H    0.046118  -0.592872
     2  H   -0.002552   0.535023
     3  H    0.013142   0.504591
     4  H   -0.044984  -0.501993
     5  H   -0.011724  -0.324707
     6  H   -0.011724   0.324707
     7  H   -0.044984   0.501993
     8  H    0.013142  -0.504591
     9  H   -0.002552  -0.535023
    10  H    0.046118   0.592872
 Sum of Mulliken charges =  -0.00000   0.00000

 Dipole moment (field-independent basis, Debye):
    X=             -0.0000    Y=             -0.0000    Z=              0.0000  Tot=              0.0000
 Quadrupole moment (field-independent basis, Debye-Ang):
   XX=            -13.6855   YY=            -14.4077   ZZ=            -12.8316
   XY=              1.7724   XZ=             -0.0000   YZ=             -0.0000

 Normal termination of Gaussian 09 at Tue Feb 28 15:43:06 2017.
