 Gaussian 09, Revision E.01,
 Gaussian 09:  ES64L-G09RevE.01 30-Nov-2015

 ----------------------------------------------------------------------
 #uhf/gen scf(tight,novaracc,noincfock,fulldiag, ) stable(crhf) guess=m
 ix geom=nocrowd test
 ----------------------------------------------------------------------

 hf stability analysis of h10 triangular lattice, y= 2.2510753219802888
  alpha= 83.500000000000000
 ----------------------------------------------------------------------
 Symbolic Z-matrix:
 Charge =  0 Multiplicity = 1

                         Standard orientation:
 ---------------------------------------------------------------------
 Center     Atomic      Atomic             Coordinates (Angstroms)
 Number     Number       Type             X           Y           Z
 ---------------------------------------------------------------------
      1          1           0        1.019316    5.547962    0.000000
      2          1           0        1.019316    3.282322    0.000000
      3          1           0        0.509658    3.340391    0.000000
      4          1           0        0.509658    1.074751    0.000000
      5          1           0       -0.000000    1.132820    0.000000
      6          1           0       -0.000000   -1.132820    0.000000
      7          1           0       -0.509658   -1.074751    0.000000
      8          1           0       -0.509658   -3.340391    0.000000
      9          1           0       -1.019316   -3.282322    0.000000
     10          1           0       -1.019316   -5.547962    0.000000
 ---------------------------------------------------------------------

 SCF Done:  E(UHF) =  -4.88069068568     A.U. after    7 cycles
 E2 =    -0.2896204967D-01 EUMP2 =    -0.49096527353571D+01

 Unable to determine electronic state:  partially filled degenerate orbitals.
 Alpha  occ. eigenvalues --   -0.73426  -0.71876  -0.69640  -0.67505  -0.49543
 Alpha virt. eigenvalues --    0.13436   0.50870   0.56308   0.63892   0.70832
  Beta  occ. eigenvalues --   -0.73426  -0.71876  -0.69640  -0.67505  -0.49543
  Beta virt. eigenvalues --    0.13436   0.50870   0.56308   0.63892   0.70832

 Mulliken charges and spin densities:
               1          2
     1  H    0.003641   1.003638
     2  H   -0.001155  -0.001795
     3  H   -0.002498  -0.001858
     4  H   -0.000120  -0.000022
     5  H    0.000131   0.000036
     6  H    0.000131  -0.000036
     7  H   -0.000120   0.000022
     8  H   -0.002498   0.001858
     9  H   -0.001155   0.001795
    10  H    0.003641  -1.003638
 Sum of Mulliken charges =   0.00000  -0.00000

 Dipole moment (field-independent basis, Debye):
    X=              0.0000    Y=              0.0000    Z=              0.0000  Tot=              0.0000
 Quadrupole moment (field-independent basis, Debye-Ang):
   XX=            -12.5530   YY=            -14.9553   ZZ=            -13.4107
   XY=             -0.4104   XZ=             -0.0000   YZ=              0.0000

 Normal termination of Gaussian 09 at Tue Feb 28 15:49:00 2017.
