 Gaussian 09, Revision E.01,
 Gaussian 09:  ES64L-G09RevE.01 30-Nov-2015

 ----------------------------------------------------------------------
 #uhf/gen scf(tight,novaracc,noincfock,fulldiag, ) stable(crhf) guess=m
 ix geom=nocrowd test
 ----------------------------------------------------------------------

 hf stability analysis of h10 triangular lattice, y= 1.4941379400594756
  alpha= 75.500000000000000
 ----------------------------------------------------------------------
 Symbolic Z-matrix:
 Charge =  0 Multiplicity = 1

                         Standard orientation:
 ---------------------------------------------------------------------
 Center     Atomic      Atomic             Coordinates (Angstroms)
 Number     Number       Type             X           Y           Z
 ---------------------------------------------------------------------
      1          1           0        1.496409    3.471241   -0.000000
      2          1           0        1.496409    1.927946   -0.000000
      3          1           0        0.748205    2.121444   -0.000000
      4          1           0        0.748205    0.578149   -0.000000
      5          1           0       -0.000000    0.771648    0.000000
      6          1           0       -0.000000   -0.771648    0.000000
      7          1           0       -0.748205   -0.578149   -0.000000
      8          1           0       -0.748205   -2.121444   -0.000000
      9          1           0       -1.496409   -1.927946   -0.000000
     10          1           0       -1.496409   -3.471241   -0.000000
 ---------------------------------------------------------------------

 SCF Done:  E(UHF) =  -5.13142574817     A.U. after   12 cycles
 E2 =    -0.5060777184D-01 EUMP2 =    -0.51820335200109D+01

 Unable to determine electronic state:  partially filled degenerate orbitals.
 Alpha  occ. eigenvalues --   -0.75583  -0.69872  -0.60380  -0.48450  -0.38474
 Alpha virt. eigenvalues --    0.19087   0.21455   0.31761   0.47992   0.64331
  Beta  occ. eigenvalues --   -0.75583  -0.69872  -0.60380  -0.48450  -0.38474
  Beta virt. eigenvalues --    0.19087   0.21455   0.31761   0.47992   0.64331

 Mulliken charges and spin densities:
               1          2
     1  H   -0.025443   0.973173
     2  H   -0.007087   0.030494
     3  H    0.024857  -0.011493
     4  H    0.003801  -0.015016
     5  H    0.003872   0.021149
     6  H    0.003872  -0.021149
     7  H    0.003801   0.015016
     8  H    0.024857   0.011493
     9  H   -0.007087  -0.030494
    10  H   -0.025443  -0.973173
 Sum of Mulliken charges =  -0.00000   0.00000

 Dipole moment (field-independent basis, Debye):
    X=             -0.0000    Y=             -0.0000    Z=              0.0000  Tot=              0.0000
 Quadrupole moment (field-independent basis, Debye-Ang):
   XX=            -12.7504   YY=            -19.9282   ZZ=            -12.7536
   XY=             -3.9314   XZ=              0.0000   YZ=             -0.0000

 Normal termination of Gaussian 09 at Tue Feb 28 15:47:25 2017.
