 Gaussian 09, Revision E.01,
 Gaussian 09:  ES64L-G09RevE.01 30-Nov-2015

 ----------------------------------------------------------------------
 #uhf/gen scf(tight,novaracc,noincfock,fulldiag, ) stable(crhf) guess=m
 ix geom=nocrowd test
 ----------------------------------------------------------------------

 hf stability analysis of h10 triangular lattice, y= 0.6269799200977310
 7 alpha= 34.250000000000000
 ----------------------------------------------------------------------
 Symbolic Z-matrix:
 Charge =  0 Multiplicity = 1

                         Standard orientation:
 ---------------------------------------------------------------------
 Center     Atomic      Atomic             Coordinates (Angstroms)
 Number     Number       Type             X           Y           Z
 ---------------------------------------------------------------------
      1          1           0        2.073021   -0.259571   -0.000000
      2          1           0        2.073021   -1.373598   -0.000000
      3          1           0        1.036510    0.148721    0.000000
      4          1           0        1.036510   -0.965306   -0.000000
      5          1           0        0.000000    0.557014    0.000000
      6          1           0       -0.000000   -0.557014    0.000000
      7          1           0       -1.036510    0.965306   -0.000000
      8          1           0       -1.036510   -0.148721    0.000000
      9          1           0       -2.073021    1.373598   -0.000000
     10          1           0       -2.073021    0.259571   -0.000000
 ---------------------------------------------------------------------

 SCF Done:  E(UHF) =  -4.92530738214     A.U. after   17 cycles
 E2 =    -0.5540064698D-01 EUMP2 =    -0.49807080291235D+01

 Unable to determine electronic state:  partially filled degenerate orbitals.
 Alpha  occ. eigenvalues --   -0.85950  -0.74419  -0.56201  -0.41038  -0.36645
 Alpha virt. eigenvalues --    0.04944   0.22087   0.30942   0.54952   0.72402
  Beta  occ. eigenvalues --   -0.85950  -0.74419  -0.56201  -0.41038  -0.36645
  Beta virt. eigenvalues --    0.04944   0.22087   0.30942   0.54952   0.72402

 Mulliken charges and spin densities:
               1          2
     1  H   -0.000616   0.513065
     2  H    0.039911  -0.583321
     3  H   -0.050182  -0.471138
     4  H    0.026286   0.480728
     5  H   -0.015400   0.285800
     6  H   -0.015400  -0.285800
     7  H    0.026286  -0.480728
     8  H   -0.050182   0.471138
     9  H    0.039911   0.583321
    10  H   -0.000616  -0.513065
 Sum of Mulliken charges =   0.00000   0.00000

 Dipole moment (field-independent basis, Debye):
    X=             -0.0000    Y=             -0.0000    Z=             -0.0000  Tot=              0.0000
 Quadrupole moment (field-independent basis, Debye-Ang):
   XX=            -13.8853   YY=            -14.1360   ZZ=            -12.8500
   XY=             -1.7959   XZ=             -0.0000   YZ=              0.0000

 Normal termination of Gaussian 09 at Tue Feb 28 15:38:53 2017.
