 Gaussian 09, Revision E.01,
 Gaussian 09:  ES64L-G09RevE.01 30-Nov-2015

 ----------------------------------------------------------------------
 #uhf/gen scf(tight,novaracc,noincfock,fulldiag, ) stable(crhf) guess=m
 ix geom=nocrowd test
 ----------------------------------------------------------------------

 hf stability analysis of h10 triangular lattice, y= 0.8221863201757335
 6 alpha= 49.500000000000000
 ----------------------------------------------------------------------
 Symbolic Z-matrix:
 Charge =  0 Multiplicity = 1

                         Standard orientation:
 ---------------------------------------------------------------------
 Center     Atomic      Atomic             Coordinates (Angstroms)
 Number     Number       Type             X           Y           Z
 ---------------------------------------------------------------------
      1          1           0        2.135869    0.878912    0.000000
      2          1           0        2.135869   -0.202335    0.000000
      3          1           0        1.067935    0.709767    0.000000
      4          1           0        1.067935   -0.371479    0.000000
      5          1           0        0.000000    0.540623    0.000000
      6          1           0       -0.000000   -0.540623    0.000000
      7          1           0       -1.067935    0.371479    0.000000
      8          1           0       -1.067935   -0.709767    0.000000
      9          1           0       -2.135869    0.202335    0.000000
     10          1           0       -2.135869   -0.878912    0.000000
 ---------------------------------------------------------------------

 SCF Done:  E(UHF) =  -4.95570439404     A.U. after   15 cycles
 E2 =    -0.4954430091D-01 EUMP2 =    -0.50052486949554D+01

 Unable to determine electronic state:  partially filled degenerate orbitals.
 Alpha  occ. eigenvalues --   -0.87115  -0.74889  -0.55884  -0.44901  -0.38600
 Alpha virt. eigenvalues --    0.06639   0.20502   0.36317   0.53295   0.87845
  Beta  occ. eigenvalues --   -0.87115  -0.74889  -0.55884  -0.44901  -0.38600
  Beta virt. eigenvalues --    0.06639   0.20502   0.36317   0.53295   0.87845

 Mulliken charges and spin densities:
               1          2
     1  H    0.045273   0.603391
     2  H    0.008550  -0.577600
     3  H   -0.014513  -0.546006
     4  H   -0.035631   0.548198
     5  H   -0.003679   0.391785
     6  H   -0.003679  -0.391785
     7  H   -0.035631  -0.548198
     8  H   -0.014513   0.546006
     9  H    0.008550   0.577600
    10  H    0.045273  -0.603391
 Sum of Mulliken charges =  -0.00000   0.00000

 Dipole moment (field-independent basis, Debye):
    X=              0.0000    Y=              0.0000    Z=              0.0000  Tot=              0.0000
 Quadrupole moment (field-independent basis, Debye-Ang):
   XX=            -13.1405   YY=            -15.2557   ZZ=            -12.7985
   XY=              1.0903   XZ=              0.0000   YZ=             -0.0000

 Normal termination of Gaussian 09 at Tue Feb 28 15:42:06 2017.
