 Gaussian 09, Revision E.01,
 Gaussian 09:  ES64L-G09RevE.01 30-Nov-2015

 ----------------------------------------------------------------------
 #uhf/gen scf(tight,novaracc,noincfock,fulldiag, ) stable(crhf) guess=m
 ix geom=nocrowd test
 ----------------------------------------------------------------------

 hf stability analysis of h10 triangular lattice, y= 1.8574471710024862
  alpha= 80.500000000000000
 ----------------------------------------------------------------------
 Symbolic Z-matrix:
 Charge =  0 Multiplicity = 1

                         Standard orientation:
 ---------------------------------------------------------------------
 Center     Atomic      Atomic             Coordinates (Angstroms)
 Number     Number       Type             X           Y           Z
 ---------------------------------------------------------------------
      1          1           0        1.226269    4.502981    0.000000
      2          1           0        1.226269    2.619706    0.000000
      3          1           0        0.613134    2.722309    0.000000
      4          1           0        0.613134    0.839034    0.000000
      5          1           0        0.000000    0.941638    0.000000
      6          1           0       -0.000000   -0.941638    0.000000
      7          1           0       -0.613134   -0.839034    0.000000
      8          1           0       -0.613134   -2.722309    0.000000
      9          1           0       -1.226269   -2.619706    0.000000
     10          1           0       -1.226269   -4.502981    0.000000
 ---------------------------------------------------------------------

 SCF Done:  E(UHF) =  -5.16432199745     A.U. after    8 cycles
 E2 =    -0.3642316840D-01 EUMP2 =    -0.52007451658524D+01

 Unable to determine electronic state:  partially filled degenerate orbitals.
 Alpha  occ. eigenvalues --   -0.73370  -0.70134  -0.64934  -0.59022  -0.47548
 Alpha virt. eigenvalues --    0.15073   0.36914   0.44810   0.56488   0.67817
  Beta  occ. eigenvalues --   -0.73370  -0.70134  -0.64934  -0.59022  -0.47548
  Beta virt. eigenvalues --    0.15073   0.36914   0.44810   0.56488   0.67817

 Mulliken charges and spin densities:
               1          2
     1  H    0.003728   1.003672
     2  H   -0.002459  -0.001360
     3  H   -0.001711  -0.002782
     4  H   -0.000296  -0.000467
     5  H    0.000738   0.000896
     6  H    0.000738  -0.000896
     7  H   -0.000296   0.000467
     8  H   -0.001711   0.002782
     9  H   -0.002459   0.001360
    10  H    0.003728  -1.003672
 Sum of Mulliken charges =  -0.00000   0.00000

 Dipole moment (field-independent basis, Debye):
    X=             -0.0000    Y=             -0.0000    Z=              0.0000  Tot=              0.0000
 Quadrupole moment (field-independent basis, Debye-Ang):
   XX=            -12.1773   YY=            -16.5230   ZZ=            -13.1401
   XY=             -1.2237   XZ=             -0.0000   YZ=              0.0000

 Normal termination of Gaussian 09 at Tue Feb 28 15:48:25 2017.
