 Gaussian 09, Revision E.01,
 Gaussian 09:  ES64L-G09RevE.01 30-Nov-2015

 ----------------------------------------------------------------------
 #uhf/gen scf(tight,novaracc,noincfock,fulldiag, ) stable(crhf) guess=m
 ix geom=nocrowd test
 ----------------------------------------------------------------------

 hf stability analysis of h10 triangular lattice, y= 0.6595943070875844
 9 alpha= 37.000000000000000
 ----------------------------------------------------------------------
 Symbolic Z-matrix:
 Charge =  0 Multiplicity = 1

                         Standard orientation:
 ---------------------------------------------------------------------
 Center     Atomic      Atomic             Coordinates (Angstroms)
 Number     Number       Type             X           Y           Z
 ---------------------------------------------------------------------
      1          1           0        2.107102   -0.056198    0.000000
      2          1           0        2.107102   -1.152206    0.000000
      3          1           0        1.053551    0.245903    0.000000
      4          1           0        1.053551   -0.850105    0.000000
      5          1           0        0.000000    0.548004    0.000000
      6          1           0       -0.000000   -0.548004    0.000000
      7          1           0       -1.053551    0.850105    0.000000
      8          1           0       -1.053551   -0.245903    0.000000
      9          1           0       -2.107102    1.152206    0.000000
     10          1           0       -2.107102    0.056198    0.000000
 ---------------------------------------------------------------------

 SCF Done:  E(UHF) =  -4.94167967718     A.U. after   16 cycles
 E2 =    -0.5158470984D-01 EUMP2 =    -0.49932643870146D+01

 Unable to determine electronic state:  partially filled degenerate orbitals.
 Alpha  occ. eigenvalues --   -0.86571  -0.74666  -0.56074  -0.43181  -0.37660
 Alpha virt. eigenvalues --    0.05727   0.21548   0.33549   0.54234   0.80263
  Beta  occ. eigenvalues --   -0.86571  -0.74666  -0.56074  -0.43181  -0.37660
  Beta virt. eigenvalues --    0.05727   0.21548   0.33549   0.54234   0.80263

 Mulliken charges and spin densities:
               1          2
     1  H   -0.001660   0.549684
     2  H    0.048515  -0.598206
     3  H   -0.041847  -0.520125
     4  H    0.003980   0.519811
     5  H   -0.008989   0.349357
     6  H   -0.008989  -0.349357
     7  H    0.003980  -0.519811
     8  H   -0.041847   0.520125
     9  H    0.048515   0.598206
    10  H   -0.001660  -0.549684
 Sum of Mulliken charges =  -0.00000   0.00000

 Dipole moment (field-independent basis, Debye):
    X=             -0.0000    Y=              0.0000    Z=              0.0000  Tot=              0.0000
 Quadrupole moment (field-independent basis, Debye-Ang):
   XX=            -13.5203   YY=            -14.6519   ZZ=            -12.8196
   XY=             -1.6706   XZ=              0.0000   YZ=              0.0000

 Normal termination of Gaussian 09 at Tue Feb 28 15:39:29 2017.
