 Gaussian 09, Revision E.01,
 Gaussian 09:  ES64L-G09RevE.01 30-Nov-2015

 ----------------------------------------------------------------------
 #uhf/gen scf(tight,novaracc,noincfock,fulldiag, ) stable(crhf) guess=m
 ix geom=nocrowd test
 ----------------------------------------------------------------------

 hf stability analysis of h10 triangular lattice, y= 0.3310791093259662
 4 alpha= 10.750000000000000
 ----------------------------------------------------------------------
 Symbolic Z-matrix:
 Charge =  0 Multiplicity = 1

                         Standard orientation:
 ---------------------------------------------------------------------
 Center     Atomic      Atomic             Coordinates (Angstroms)
 Number     Number       Type             X           Y           Z
 ---------------------------------------------------------------------
      1          1           0        1.301075   -2.415475    0.000000
      2          1           0        1.301075   -4.190469    0.000000
      3          1           0        0.650538   -0.763989    0.000000
      4          1           0        0.650538   -2.538983    0.000000
      5          1           0       -0.000000    0.887497    0.000000
      6          1           0       -0.000000   -0.887497    0.000000
      7          1           0       -0.650538    2.538983    0.000000
      8          1           0       -0.650538    0.763989    0.000000
      9          1           0       -1.301075    4.190469    0.000000
     10          1           0       -1.301075    2.415475    0.000000
 ---------------------------------------------------------------------

 SCF Done:  E(UHF) =  -5.19543567560     A.U. after   10 cycles
 E2 =    -0.3981494829D-01 EUMP2 =    -0.52352506238855D+01

 Unable to determine electronic state:  partially filled degenerate orbitals.
 Alpha  occ. eigenvalues --   -0.73719  -0.69834  -0.63448  -0.55816  -0.45982
 Alpha virt. eigenvalues --    0.15978   0.32367   0.41041   0.54095   0.66971
  Beta  occ. eigenvalues --   -0.73719  -0.69834  -0.63448  -0.55816  -0.45982
  Beta virt. eigenvalues --    0.15978   0.32367   0.41041   0.54095   0.66971

 Mulliken charges and spin densities:
               1          2
     1  H   -0.003120   0.000940
     2  H    0.000871   1.000735
     3  H   -0.000190  -0.001261
     4  H    0.001160  -0.002809
     5  H    0.001278  -0.002263
     6  H    0.001278   0.002263
     7  H    0.001160   0.002809
     8  H   -0.000190   0.001261
     9  H    0.000871  -1.000735
    10  H   -0.003120  -0.000940
 Sum of Mulliken charges =   0.00000  -0.00000

 Dipole moment (field-independent basis, Debye):
    X=              0.0000    Y=             -0.0000    Z=              0.0000  Tot=              0.0000
 Quadrupole moment (field-independent basis, Debye-Ang):
   XX=            -12.1411   YY=            -17.2914   ZZ=            -13.0307
   XY=              1.7289   XZ=              0.0000   YZ=              0.0000

 Normal termination of Gaussian 09 at Tue Feb 28 15:34:04 2017.
