 Gaussian 09, Revision E.01,
 Gaussian 09:  ES64L-G09RevE.01 30-Nov-2015

 ----------------------------------------------------------------------
 #uhf/gen scf(tight,novaracc,noincfock,fulldiag, ) stable(crhf) guess=m
 ix geom=nocrowd test
 ----------------------------------------------------------------------

 hf stability analysis of h10 triangular lattice, y= 0.3540551300279828
 3 alpha= 12.250000000000000
 ----------------------------------------------------------------------
 Symbolic Z-matrix:
 Charge =  0 Multiplicity = 1

                         Standard orientation:
 ---------------------------------------------------------------------
 Center     Atomic      Atomic             Coordinates (Angstroms)
 Number     Number       Type             X           Y           Z
 ---------------------------------------------------------------------
      1          1           0        1.383975   -2.202519   -0.000000
      2          1           0        1.383975   -3.871192   -0.000000
      3          1           0        0.691987   -0.684091   -0.000000
      4          1           0        0.691987   -2.352764   -0.000000
      5          1           0        0.000000    0.834336   -0.000000
      6          1           0       -0.000000   -0.834336   -0.000000
      7          1           0       -0.691987    2.352764   -0.000000
      8          1           0       -0.691987    0.684091   -0.000000
      9          1           0       -1.383975    3.871192   -0.000000
     10          1           0       -1.383975    2.202519   -0.000000
 ---------------------------------------------------------------------

 SCF Done:  E(UHF) =  -5.19235013212     A.U. after   11 cycles
 E2 =    -0.4405619631D-01 EUMP2 =    -0.52364063284241D+01

 Unable to determine electronic state:  partially filled degenerate orbitals.
 Alpha  occ. eigenvalues --   -0.74328  -0.69703  -0.61996  -0.52460  -0.43425
 Alpha virt. eigenvalues --    0.17216   0.27546   0.37026   0.51510   0.65989
  Beta  occ. eigenvalues --   -0.74328  -0.69703  -0.61996  -0.52460  -0.43425
  Beta virt. eigenvalues --    0.17216   0.27546   0.37026   0.51510   0.65989

 Mulliken charges and spin densities:
               1          2
     1  H   -0.004153   0.007080
     2  H   -0.006036   0.993610
     3  H    0.000423  -0.003625
     4  H    0.007549  -0.003400
     5  H    0.002216  -0.005915
     6  H    0.002216   0.005915
     7  H    0.007549   0.003400
     8  H    0.000423   0.003625
     9  H   -0.006036  -0.993610
    10  H   -0.004153  -0.007080
 Sum of Mulliken charges =   0.00000  -0.00000

 Dipole moment (field-independent basis, Debye):
    X=              0.0000    Y=             -0.0000    Z=              0.0000  Tot=              0.0000
 Quadrupole moment (field-independent basis, Debye-Ang):
   XX=            -12.2363   YY=            -18.2952   ZZ=            -12.9094
   XY=              2.4818   XZ=             -0.0000   YZ=              0.0000

 Normal termination of Gaussian 09 at Tue Feb 28 15:34:21 2017.
