 Gaussian 09, Revision E.01,
 Gaussian 09:  ES64L-G09RevE.01 30-Nov-2015

 ----------------------------------------------------------------------
 #uhf/gen scf(tight,novaracc,noincfock,fulldiag, ) stable(crhf) guess=m
 ix geom=nocrowd test
 ----------------------------------------------------------------------

 hf stability analysis of h10 triangular lattice, y= 2.0596822134404817
  alpha= 82.250000000000000
 ----------------------------------------------------------------------
 Symbolic Z-matrix:
 Charge =  0 Multiplicity = 1

                         Standard orientation:
 ---------------------------------------------------------------------
 Center     Atomic      Atomic             Coordinates (Angstroms)
 Number     Number       Type             X           Y           Z
 ---------------------------------------------------------------------
      1          1           0        1.111000    5.045472    0.000000
      2          1           0        1.111000    2.966803    0.000000
      3          1           0        0.555500    3.042403    0.000000
      4          1           0        0.555500    0.963734    0.000000
      5          1           0       -0.000000    1.039334    0.000000
      6          1           0       -0.000000   -1.039334    0.000000
      7          1           0       -0.555500   -0.963734    0.000000
      8          1           0       -0.555500   -3.042403    0.000000
      9          1           0       -1.111000   -2.966803    0.000000
     10          1           0       -1.111000   -5.045472    0.000000
 ---------------------------------------------------------------------

 SCF Done:  E(UHF) =  -5.04565162448     A.U. after    7 cycles
 E2 =    -0.3194533092D-01 EUMP2 =    -0.50775969554017D+01

 Unable to determine electronic state:  partially filled degenerate orbitals.
 Alpha  occ. eigenvalues --   -0.73206  -0.70936  -0.67479  -0.63904  -0.48969
 Alpha virt. eigenvalues --    0.14023   0.44408   0.50989   0.60420   0.69288
  Beta  occ. eigenvalues --   -0.73206  -0.70936  -0.67479  -0.63904  -0.48969
  Beta virt. eigenvalues --    0.14023   0.44408   0.50989   0.60420   0.69288

 Mulliken charges and spin densities:
               1          2
     1  H    0.004521   1.004508
     2  H   -0.001668  -0.002160
     3  H   -0.002934  -0.002438
     4  H   -0.000212  -0.000091
     5  H    0.000293   0.000176
     6  H    0.000293  -0.000176
     7  H   -0.000212   0.000091
     8  H   -0.002934   0.002438
     9  H   -0.001668   0.002160
    10  H    0.004521  -1.004508
 Sum of Mulliken charges =  -0.00000   0.00000

 Dipole moment (field-independent basis, Debye):
    X=              0.0000    Y=              0.0000    Z=              0.0000  Tot=              0.0000
 Quadrupole moment (field-independent basis, Debye-Ang):
   XX=            -12.3592   YY=            -15.5593   ZZ=            -13.2999
   XY=             -0.6858   XZ=              0.0000   YZ=              0.0000

 Normal termination of Gaussian 09 at Tue Feb 28 15:48:45 2017.
