 Gaussian 09, Revision E.01,
 Gaussian 09:  ES64L-G09RevE.01 30-Nov-2015

 ----------------------------------------------------------------------
 #uhf/gen scf(tight,novaracc,noincfock,fulldiag, ) stable(crhf) guess=m
 ix geom=nocrowd test
 ----------------------------------------------------------------------

 hf stability analysis of h10 triangular lattice, y= 1.0702532558662603
  alpha= 63.250000000000000
 ----------------------------------------------------------------------
 Symbolic Z-matrix:
 Charge =  0 Multiplicity = 1

                         Standard orientation:
 ---------------------------------------------------------------------
 Center     Atomic      Atomic             Coordinates (Angstroms)
 Number     Number       Type             X           Y           Z
 ---------------------------------------------------------------------
      1          1           0        1.926877    2.025074    0.000000
      2          1           0        1.926877    0.826554    0.000000
      3          1           0        0.963439    1.312167    0.000000
      4          1           0        0.963439    0.113647    0.000000
      5          1           0       -0.000000    0.599260    0.000000
      6          1           0       -0.000000   -0.599260    0.000000
      7          1           0       -0.963439   -0.113647   -0.000000
      8          1           0       -0.963439   -1.312167   -0.000000
      9          1           0       -1.926877   -0.826554   -0.000000
     10          1           0       -1.926877   -2.025074   -0.000000
 ---------------------------------------------------------------------

 SCF Done:  E(UHF) =  -4.87848381507     A.U. after   20 cycles
 E2 =    -0.7757388630D-01 EUMP2 =    -0.49560577013726D+01

 Unable to determine electronic state:  partially filled degenerate orbitals.
 Alpha  occ. eigenvalues --   -0.84692  -0.72452  -0.56214  -0.34145  -0.33499
 Alpha virt. eigenvalues --    0.06122   0.18060   0.26242   0.46786   0.57883
  Beta  occ. eigenvalues --   -0.84692  -0.72452  -0.56214  -0.34145  -0.33499
  Beta virt. eigenvalues --    0.06122   0.18060   0.26242   0.46786   0.57883

 Mulliken charges and spin densities:
               1          2
     1  H   -0.055283   0.425432
     2  H    0.099345  -0.419932
     3  H    0.070114  -0.245242
     4  H   -0.142324  -0.135309
     5  H    0.028148  -0.223870
     6  H    0.028148   0.223870
     7  H   -0.142324   0.135309
     8  H    0.070114   0.245242
     9  H    0.099345   0.419932
    10  H   -0.055283  -0.425432
 Sum of Mulliken charges =   0.00000  -0.00000

 Dipole moment (field-independent basis, Debye):
    X=             -0.0000    Y=             -0.0000    Z=              0.0000  Tot=              0.0000
 Quadrupole moment (field-independent basis, Debye-Ang):
   XX=            -14.0978   YY=            -15.3662   ZZ=            -12.9650
   XY=             -0.4607   XZ=             -0.0000   YZ=             -0.0000

 Normal termination of Gaussian 09 at Tue Feb 28 15:44:56 2017.
