 Gaussian 09, Revision E.01,
 Gaussian 09:  ES64L-G09RevE.01 30-Nov-2015

 ----------------------------------------------------------------------
 #uhf/gen scf(tight,novaracc,noincfock,fulldiag, ) stable(crhf) guess=m
 ix geom=nocrowd test
 ----------------------------------------------------------------------

 hf stability analysis of h10 triangular lattice, y= 0.3614429856522110
 0 alpha= 12.750000000000000
 ----------------------------------------------------------------------
 Symbolic Z-matrix:
 Charge =  0 Multiplicity = 1

                         Standard orientation:
 ---------------------------------------------------------------------
 Center     Atomic      Atomic             Coordinates (Angstroms)
 Number     Number       Type             X           Y           Z
 ---------------------------------------------------------------------
      1          1           0        1.410123   -2.137518   -0.000000
      2          1           0        1.410123   -3.775249   -0.000000
      3          1           0        0.705061   -0.659326   -0.000000
      4          1           0        0.705061   -2.297057   -0.000000
      5          1           0       -0.000000    0.818865    0.000000
      6          1           0       -0.000000   -0.818865    0.000000
      7          1           0       -0.705061    2.297057   -0.000000
      8          1           0       -0.705061    0.659326   -0.000000
      9          1           0       -1.410123    3.775249   -0.000000
     10          1           0       -1.410123    2.137518   -0.000000
 ---------------------------------------------------------------------

 SCF Done:  E(UHF) =  -5.18375879086     A.U. after   11 cycles
 E2 =    -0.4550122951D-01 EUMP2 =    -0.52292600203696D+01

 Unable to determine electronic state:  partially filled degenerate orbitals.
 Alpha  occ. eigenvalues --   -0.74572  -0.69705  -0.61584  -0.51472  -0.42419
 Alpha virt. eigenvalues --    0.17658   0.26063   0.35787   0.50698   0.65648
  Beta  occ. eigenvalues --   -0.74572  -0.69705  -0.61584  -0.51472  -0.42419
  Beta virt. eigenvalues --    0.17658   0.26063   0.35787   0.50698   0.65648

 Mulliken charges and spin densities:
               1          2
     1  H   -0.004604   0.010373
     2  H   -0.009338   0.990181
     3  H    0.000834  -0.005035
     4  H    0.010517  -0.004060
     5  H    0.002591  -0.007948
     6  H    0.002591   0.007948
     7  H    0.010517   0.004060
     8  H    0.000834   0.005035
     9  H   -0.009338  -0.990181
    10  H   -0.004604  -0.010373
 Sum of Mulliken charges =   0.00000   0.00000

 Dipole moment (field-independent basis, Debye):
    X=             -0.0000    Y=              0.0000    Z=              0.0000  Tot=              0.0000
 Quadrupole moment (field-independent basis, Debye-Ang):
   XX=            -12.3081   YY=            -18.6474   ZZ=            -12.8719
   XY=              2.7703   XZ=             -0.0000   YZ=              0.0000

 Normal termination of Gaussian 09 at Tue Feb 28 15:34:27 2017.
