 Gaussian 09, Revision E.01,
 Gaussian 09:  ES64L-G09RevE.01 30-Nov-2015

 ----------------------------------------------------------------------
 #uhf/gen scf(tight,novaracc,noincfock,fulldiag, ) stable(crhf) guess=m
 ix geom=nocrowd test
 ----------------------------------------------------------------------

 hf stability analysis of h10 triangular lattice, y= 0.5010379721798762
 2 alpha= 23.500000000000000
 ----------------------------------------------------------------------
 Symbolic Z-matrix:
 Charge =  0 Multiplicity = 1

                         Standard orientation:
 ---------------------------------------------------------------------
 Center     Atomic      Atomic             Coordinates (Angstroms)
 Number     Number       Type             X           Y           Z
 ---------------------------------------------------------------------
      1          1           0        1.837928   -1.085633    0.000000
      2          1           0        1.837928   -2.342157    0.000000
      3          1           0        0.918964   -0.228685    0.000000
      4          1           0        0.918964   -1.485210    0.000000
      5          1           0        0.000000    0.628262    0.000000
      6          1           0       -0.000000   -0.628262    0.000000
      7          1           0       -0.918964    1.485210   -0.000000
      8          1           0       -0.918964    0.228685   -0.000000
      9          1           0       -1.837928    2.342157   -0.000000
     10          1           0       -1.837928    1.085633   -0.000000
 ---------------------------------------------------------------------

 SCF Done:  E(UHF) =  -4.85447286958     A.U. after   22 cycles
 E2 =    -0.7441434318D-01 EUMP2 =    -0.49288872127582D+01

 Unable to determine electronic state:  partially filled degenerate orbitals.
 Alpha  occ. eigenvalues --   -0.83255  -0.71266  -0.56638  -0.35436  -0.30137
 Alpha virt. eigenvalues --    0.08538   0.16331   0.24478   0.39837   0.60132
  Beta  occ. eigenvalues --   -0.83255  -0.71266  -0.56638  -0.35436  -0.30137
  Beta virt. eigenvalues --    0.08538   0.16331   0.24478   0.39837   0.60132

 Mulliken charges and spin densities:
               1          2
     1  H    0.076470   0.447693
     2  H   -0.018111  -0.486944
     3  H   -0.112744   0.207832
     4  H    0.050915   0.233920
     5  H    0.003470  -0.302556
     6  H    0.003470   0.302556
     7  H    0.050915  -0.233920
     8  H   -0.112744  -0.207832
     9  H   -0.018111   0.486944
    10  H    0.076470  -0.447693
 Sum of Mulliken charges =   0.00000  -0.00000

 Dipole moment (field-independent basis, Debye):
    X=              0.0000    Y=             -0.0000    Z=             -0.0000  Tot=              0.0000
 Quadrupole moment (field-independent basis, Debye-Ang):
   XX=            -13.3168   YY=            -14.2687   ZZ=            -12.9994
   XY=             -0.7830   XZ=             -0.0000   YZ=             -0.0000

 Normal termination of Gaussian 09 at Tue Feb 28 15:36:37 2017.
