 Gaussian 09, Revision E.01,
 Gaussian 09:  ES64L-G09RevE.01 30-Nov-2015

 ----------------------------------------------------------------------
 #uhf/gen scf(tight,novaracc,noincfock,fulldiag, ) stable(crhf) guess=m
 ix geom=nocrowd test
 ----------------------------------------------------------------------

 hf stability analysis of h10 triangular lattice, y= 0.5365223526570523
 9 alpha= 26.500000000000000
 ----------------------------------------------------------------------
 Symbolic Z-matrix:
 Charge =  0 Multiplicity = 1

                         Standard orientation:
 ---------------------------------------------------------------------
 Center     Atomic      Atomic             Coordinates (Angstroms)
 Number     Number       Type             X           Y           Z
 ---------------------------------------------------------------------
      1          1           0        1.920609   -0.846067    0.000000
      2          1           0        1.920609   -2.048499    0.000000
      3          1           0        0.960305   -0.122426    0.000000
      4          1           0        0.960305   -1.324857    0.000000
      5          1           0        0.000000    0.601216   -0.000000
      6          1           0       -0.000000   -0.601216   -0.000000
      7          1           0       -0.960305    1.324857    0.000000
      8          1           0       -0.960305    0.122426   -0.000000
      9          1           0       -1.920609    2.048499    0.000000
     10          1           0       -1.920609    0.846067   -0.000000
 ---------------------------------------------------------------------

 SCF Done:  E(UHF) =  -4.87732235583     A.U. after   20 cycles
 E2 =    -0.7745985664D-01 EUMP2 =    -0.49547822124667D+01

 Unable to determine electronic state:  partially filled degenerate orbitals.
 Alpha  occ. eigenvalues --   -0.84598  -0.72371  -0.56233  -0.33911  -0.33569
 Alpha virt. eigenvalues --    0.06348   0.17880   0.26170   0.46105   0.58024
  Beta  occ. eigenvalues --   -0.84598  -0.72371  -0.56233  -0.33911  -0.33569
  Beta virt. eigenvalues --    0.06348   0.17880   0.26170   0.46105   0.58024

 Mulliken charges and spin densities:
               1          2
     1  H    0.098654   0.420443
     2  H   -0.053615  -0.425603
     3  H   -0.140051   0.145181
     4  H    0.069037   0.241481
     5  H    0.025975  -0.231794
     6  H    0.025975   0.231794
     7  H    0.069037  -0.241481
     8  H   -0.140051  -0.145181
     9  H   -0.053615   0.425603
    10  H    0.098654  -0.420443
 Sum of Mulliken charges =  -0.00000   0.00000

 Dipole moment (field-independent basis, Debye):
    X=             -0.0000    Y=              0.0000    Z=              0.0000  Tot=              0.0000
 Quadrupole moment (field-independent basis, Debye-Ang):
   XX=            -14.0340   YY=            -15.3413   ZZ=            -12.9680
   XY=              0.4052   XZ=             -0.0000   YZ=             -0.0000

 Normal termination of Gaussian 09 at Tue Feb 28 15:37:15 2017.
