 Gaussian 09, Revision E.01,
 Gaussian 09:  ES64L-G09RevE.01 30-Nov-2015

 ----------------------------------------------------------------------
 #rhf/gen scf(symm,tight,novaracc,noincfock,fulldiag) stable(crhf) gues
 s=read geom=nocrowd test
 ----------------------------------------------------------------------

 hf stability analysis of h10 triangular lattice, y= 0.7868496627299574
 9
 ----------------------------------------------------------------------
 Symbolic Z-matrix:
 Charge =  0 Multiplicity = 1

                         Standard orientation:
 ---------------------------------------------------------------------
 Center     Atomic      Atomic             Coordinates (Angstroms)
 Number     Number       Type             X           Y           Z
 ---------------------------------------------------------------------
      1          1           0        0.000000    0.733749    1.573699
      2          1           0       -0.000000    1.467498    0.786850
      3          1           0        0.000000    0.000000    0.786850
      4          1           0       -0.000000    0.733749    0.000000
      5          1           0        0.000000   -0.000000   -0.786850
      6          1           0       -0.000000   -0.733749   -1.573699
      7          1           0       -0.000000   -0.733749   -0.000000
      8          1           0       -0.000000   -1.467498   -0.786850
      9          1           0       -0.000000   -0.733749    1.573699
     10          1           0       -0.000000   -1.467498    0.786850
     11          1           0        0.000000    1.467498   -0.786850
     12          1           0        0.000000    0.733749   -1.573699
 ---------------------------------------------------------------------

 SCF Done:  E(RHF) =  -5.22009997459     A.U. after    7 cycles
 E2 =    -0.2483283545D+00 EUMP2 =    -0.54684283290507D+01

 The electronic state is 1-AG.
 Alpha  occ. eigenvalues --   -0.90989  -0.67290  -0.67021  -0.37283  -0.32592
 Alpha  occ. eigenvalues --   -0.08508
 Alpha virt. eigenvalues --   -0.22486   0.15665   0.34859   0.41942   0.42264
 Alpha virt. eigenvalues --    0.90229

 Mulliken charges:
               1
     1  H   -0.103326
     2  H    0.202588
     3  H    0.037756
     4  H   -0.236281
     5  H    0.037756
     6  H   -0.103326
     7  H   -0.236281
     8  H    0.202588
     9  H   -0.103326
    10  H    0.202588
    11  H    0.202588
    12  H   -0.103326
 Sum of Mulliken charges =  -0.00000

 Dipole moment (field-independent basis, Debye):
    X=             -0.0000    Y=             -0.0000    Z=             -0.0000  Tot=              0.0000
 Quadrupole moment (field-independent basis, Debye-Ang):
   XX=            -14.6901   YY=            -12.5632   ZZ=            -21.0772
   XY=              0.0000   XZ=              0.0000   YZ=              0.0000

 Normal termination of Gaussian 09 at Thu Feb  9 19:15:53 2017.
