 Gaussian 09, Revision E.01,
 Gaussian 09:  ES64L-G09RevE.01 30-Nov-2015

 ----------------------------------------------------------------------
 #rhf/gen scf(symm,tight,novaracc,noincfock,fulldiag) stable(crhf) gues
 s=read geom=nocrowd test
 ----------------------------------------------------------------------

 ----------------------------------------------------------------------
 hf stability analysis of h10 triangular lattice, y= 1.2594669489559134
 ----------------------------------------------------------------------
 Symbolic Z-matrix:
 Charge =  0 Multiplicity = 1

                         Standard orientation:
 ---------------------------------------------------------------------
 Center     Atomic      Atomic             Coordinates (Angstroms)
 Number     Number       Type             X           Y           Z
 ---------------------------------------------------------------------
      1          1           0        0.000000    0.458408    2.518934
      2          1           0        0.000000    0.916817    1.259467
      3          1           0       -0.000000    0.000000    1.259467
      4          1           0        0.000000    0.458408   -0.000000
      5          1           0        0.000000   -0.000000   -1.259467
      6          1           0       -0.000000   -0.458408   -2.518934
      7          1           0       -0.000000   -0.458408    0.000000
      8          1           0       -0.000000   -0.916817   -1.259467
      9          1           0       -0.000000   -0.458408    2.518934
     10          1           0       -0.000000   -0.916817    1.259467
     11          1           0        0.000000    0.916817   -1.259467
     12          1           0        0.000000    0.458408   -2.518934
 ---------------------------------------------------------------------

 SCF Done:  E(RHF) =  -4.70651769097     A.U. after    9 cycles
 E2 =    -0.1492402333D+01 EUMP2 =    -0.61989200238050D+01

 The electronic state is 1-AG.
 Alpha  occ. eigenvalues --   -0.83700  -0.76861  -0.51964  -0.40491  -0.16930
 Alpha  occ. eigenvalues --    0.07800
 Alpha virt. eigenvalues --   -0.21791  -0.15959   0.33553   0.46574   0.53281
 Alpha virt. eigenvalues --    0.65248

 Mulliken charges:
               1
     1  H   -0.051726
     2  H    0.255947
     3  H   -0.011811
     4  H   -0.396632
     5  H   -0.011811
     6  H   -0.051726
     7  H   -0.396632
     8  H    0.255947
     9  H   -0.051726
    10  H    0.255947
    11  H    0.255947
    12  H   -0.051726
 Sum of Mulliken charges =   0.00000

 Dipole moment (field-independent basis, Debye):
    X=             -0.0000    Y=              0.0000    Z=             -0.0000  Tot=              0.0000
 Quadrupole moment (field-independent basis, Debye-Ang):
   XX=            -14.5351   YY=            -14.4588   ZZ=            -18.1425
   XY=             -0.0000   XZ=              0.0000   YZ=             -0.0000

 Normal termination of Gaussian 09 at Thu Feb  9 19:16:42 2017.
