 Gaussian 09, Revision E.01,
 Gaussian 09:  ES64L-G09RevE.01 30-Nov-2015

 ----------------------------------------------------------------------
 #rhf/gen scf(symm,tight,novaracc,noincfock,fulldiag) stable(crhf) gues
 s=read geom=nocrowd test
 ----------------------------------------------------------------------

 hf stability analysis of h10 triangular lattice, y= 0.5306529471566099
 3
 ----------------------------------------------------------------------
 Symbolic Z-matrix:
 Charge =  0 Multiplicity = 1

                         Standard orientation:
 ---------------------------------------------------------------------
 Center     Atomic      Atomic             Coordinates (Angstroms)
 Number     Number       Type             X           Y           Z
 ---------------------------------------------------------------------
      1          1           0       -0.000000    1.061306    1.088000
      2          1           0        0.000000    0.530653    2.175999
      3          1           0       -0.000000    0.530653   -0.000000
      4          1           0        0.000000    0.000000    1.088000
      5          1           0       -0.000000   -0.530653    0.000000
      6          1           0       -0.000000   -1.061306   -1.088000
      7          1           0        0.000000   -0.000000   -1.088000
      8          1           0       -0.000000   -0.530653   -2.175999
      9          1           0        0.000000    1.061306   -1.088000
     10          1           0        0.000000    0.530653   -2.175999
     11          1           0       -0.000000   -0.530653    2.175999
     12          1           0       -0.000000   -1.061306    1.088000
 ---------------------------------------------------------------------

 SCF Done:  E(RHF) =  -5.32473974818     A.U. after   10 cycles
 E2 =    -0.1673972477D+00 EUMP2 =    -0.54921369958414D+01

 The electronic state is 1-AG.
 Alpha  occ. eigenvalues --   -0.89508  -0.77241  -0.56323  -0.48815  -0.34082
 Alpha  occ. eigenvalues --   -0.07622
 Alpha virt. eigenvalues --   -0.16765   0.22107   0.34813   0.37115   0.39976
 Alpha virt. eigenvalues --    0.65540

 Mulliken charges:
               1
     1  H   -0.007993
     2  H    0.012274
     3  H    0.000964
     4  H   -0.009527
     5  H    0.000964
     6  H   -0.007993
     7  H   -0.009527
     8  H    0.012274
     9  H   -0.007993
    10  H    0.012274
    11  H    0.012274
    12  H   -0.007993
 Sum of Mulliken charges =  -0.00000

 Dipole moment (field-independent basis, Debye):
    X=              0.0000    Y=             -0.0000    Z=             -0.0000  Tot=              0.0000
 Quadrupole moment (field-independent basis, Debye-Ang):
   XX=            -14.7894   YY=            -15.9139   ZZ=            -20.5360
   XY=              0.0000   XZ=              0.0000   YZ=             -0.0000

 Normal termination of Gaussian 09 at Thu Feb  9 19:15:06 2017.
