 Gaussian 09, Revision E.01,
 Gaussian 09:  ES64L-G09RevE.01 30-Nov-2015

 ----------------------------------------------------------------------
 #rhf/gen scf(symm,tight,novaracc,noincfock,fulldiag) stable(crhf) gues
 s=read geom=nocrowd test
 ----------------------------------------------------------------------

 hf stability analysis of h10 triangular lattice, y= 0.3190649348779894
 3
 ----------------------------------------------------------------------
 Symbolic Z-matrix:
 Charge =  0 Multiplicity = 1

                         Standard orientation:
 ---------------------------------------------------------------------
 Center     Atomic      Atomic             Coordinates (Angstroms)
 Number     Number       Type             X           Y           Z
 ---------------------------------------------------------------------
      1          1           0        0.000000    0.638130    1.809507
      2          1           0        0.000000    0.319065    3.619014
      3          1           0        0.000000    0.319065    0.000000
      4          1           0        0.000000    0.000000    1.809507
      5          1           0       -0.000000   -0.319065    0.000000
      6          1           0       -0.000000   -0.638130   -1.809507
      7          1           0        0.000000    0.000000   -1.809507
      8          1           0       -0.000000   -0.319065   -3.619014
      9          1           0        0.000000    0.638130   -1.809507
     10          1           0        0.000000    0.319065   -3.619014
     11          1           0       -0.000000   -0.319065    3.619014
     12          1           0       -0.000000   -0.638130    1.809507
 ---------------------------------------------------------------------

 SCF Done:  E(RHF) =  -5.75539659253     A.U. after    7 cycles
 E2 =    -0.1539478656D+00 EUMP2 =    -0.59093444581473D+01

 The electronic state is 1-AG.
 Alpha  occ. eigenvalues --   -0.85773  -0.84181  -0.66890  -0.64932  -0.61018
 Alpha  occ. eigenvalues --   -0.23007
 Alpha virt. eigenvalues --   -0.06971   0.48082   0.50875   0.58133   1.01458
 Alpha virt. eigenvalues --    1.02811

 Mulliken charges:
               1
     1  H    0.191474
     2  H   -0.009448
     3  H   -0.049703
     4  H   -0.314347
     5  H   -0.049703
     6  H    0.191474
     7  H   -0.314347
     8  H   -0.009448
     9  H    0.191474
    10  H   -0.009448
    11  H   -0.009448
    12  H    0.191474
 Sum of Mulliken charges =  -0.00000

 Dipole moment (field-independent basis, Debye):
    X=             -0.0000    Y=              0.0000    Z=              0.0000  Tot=              0.0000
 Quadrupole moment (field-independent basis, Debye-Ang):
   XX=            -15.4117   YY=            -15.2180   ZZ=            -19.4686
   XY=              0.0000   XZ=              0.0000   YZ=             -0.0000

 Normal termination of Gaussian 09 at Thu Feb  9 19:14:30 2017.
