 Gaussian 09, Revision E.01,
 Gaussian 09:  ES64L-G09RevE.01 30-Nov-2015

 ----------------------------------------------------------------------
 #rhf/gen scf(symm,tight,novaracc,noincfock,fulldiag) stable(crhf) gues
 s=read geom=nocrowd test
 ----------------------------------------------------------------------

 ----------------------------------------------------------------------
 hf stability analysis of h10 triangular lattice, y= 1.3330047374615932
 ----------------------------------------------------------------------
 Symbolic Z-matrix:
 Charge =  0 Multiplicity = 1

                         Standard orientation:
 ---------------------------------------------------------------------
 Center     Atomic      Atomic             Coordinates (Angstroms)
 Number     Number       Type             X           Y           Z
 ---------------------------------------------------------------------
      1          1           0       -0.000000    0.433119    2.666009
      2          1           0       -0.000000    0.866239    1.333005
      3          1           0       -0.000000    0.000000    1.333005
      4          1           0        0.000000    0.433119    0.000000
      5          1           0        0.000000    0.000000   -1.333005
      6          1           0       -0.000000   -0.433119   -2.666009
      7          1           0       -0.000000   -0.433119    0.000000
      8          1           0       -0.000000   -0.866239   -1.333005
      9          1           0       -0.000000   -0.433119    2.666009
     10          1           0       -0.000000   -0.866239    1.333005
     11          1           0        0.000000    0.866239   -1.333005
     12          1           0        0.000000    0.433119   -2.666009
 ---------------------------------------------------------------------

 SCF Done:  E(RHF) =  -4.68667975106     A.U. after    9 cycles
 E2 =    -0.7885317479D+00 EUMP2 =    -0.54752114989796D+01

 The electronic state is 1-AG.
 Alpha  occ. eigenvalues --   -0.83534  -0.77764  -0.52764  -0.37727  -0.24073
 Alpha  occ. eigenvalues --    0.10624
 Alpha virt. eigenvalues --   -0.26329  -0.14749   0.32863   0.53860   0.59519
 Alpha virt. eigenvalues --    0.63355

 Mulliken charges:
               1
     1  H   -0.037906
     2  H    0.248536
     3  H   -0.062138
     4  H   -0.359121
     5  H   -0.062138
     6  H   -0.037906
     7  H   -0.359121
     8  H    0.248536
     9  H   -0.037906
    10  H    0.248536
    11  H    0.248536
    12  H   -0.037906
 Sum of Mulliken charges =   0.00000

 Dipole moment (field-independent basis, Debye):
    X=             -0.0000    Y=              0.0000    Z=             -0.0000  Tot=              0.0000
 Quadrupole moment (field-independent basis, Debye-Ang):
   XX=            -14.5818   YY=            -15.1115   ZZ=            -16.8186
   XY=             -0.0000   XZ=              0.0000   YZ=             -0.0000

 Normal termination of Gaussian 09 at Thu Feb  9 19:16:46 2017.
