 Gaussian 09, Revision E.01,
 Gaussian 09:  ES64L-G09RevE.01 30-Nov-2015

 ----------------------------------------------------------------------
 #rhf/gen scf(symm,tight,novaracc,noincfock,fulldiag) stable(crhf) gues
 s=read geom=nocrowd test
 ----------------------------------------------------------------------

 hf stability analysis of h10 triangular lattice, y= 0.9612250668035587
 9
 ----------------------------------------------------------------------
 Symbolic Z-matrix:
 Charge =  0 Multiplicity = 1

                         Standard orientation:
 ---------------------------------------------------------------------
 Center     Atomic      Atomic             Coordinates (Angstroms)
 Number     Number       Type             X           Y           Z
 ---------------------------------------------------------------------
      1          1           0        0.000000    0.600640    1.922450
      2          1           0        0.000000    1.201280    0.961225
      3          1           0        0.000000    0.000000    0.961225
      4          1           0       -0.000000    0.600640   -0.000000
      5          1           0        0.000000    0.000000   -0.961225
      6          1           0       -0.000000   -0.600640   -1.922450
      7          1           0       -0.000000   -0.600640   -0.000000
      8          1           0       -0.000000   -1.201280   -0.961225
      9          1           0       -0.000000   -0.600640    1.922450
     10          1           0       -0.000000   -1.201280    0.961225
     11          1           0        0.000000    1.201280   -0.961225
     12          1           0        0.000000    0.600640   -1.922450
 ---------------------------------------------------------------------

 SCF Done:  E(RHF) =  -5.02093043897     A.U. after    8 cycles
 E2 =    -0.3574043761D+00 EUMP2 =    -0.53783348151076D+01

 The electronic state is 1-AG.
 Alpha  occ. eigenvalues --   -0.90139  -0.73612  -0.57826  -0.47774  -0.15045
 Alpha  occ. eigenvalues --   -0.07376
 Alpha virt. eigenvalues --   -0.21236   0.07171   0.24758   0.38275   0.58938
 Alpha virt. eigenvalues --    0.62675

 Mulliken charges:
               1
     1  H   -0.040533
     2  H    0.144426
     3  H    0.014502
     4  H   -0.222288
     5  H    0.014502
     6  H   -0.040533
     7  H   -0.222288
     8  H    0.144426
     9  H   -0.040533
    10  H    0.144426
    11  H    0.144426
    12  H   -0.040533
 Sum of Mulliken charges =   0.00000

 Dipole moment (field-independent basis, Debye):
    X=             -0.0000    Y=              0.0000    Z=             -0.0000  Tot=              0.0000
 Quadrupole moment (field-independent basis, Debye-Ang):
   XX=            -14.6897   YY=            -17.4921   ZZ=            -16.9630
   XY=             -0.0000   XZ=              0.0000   YZ=              0.0000

 Normal termination of Gaussian 09 at Thu Feb  9 19:16:17 2017.
