 Gaussian 09, Revision E.01,
 Gaussian 09:  ES64L-G09RevE.01 30-Nov-2015

 ----------------------------------------------------------------------
 #rhf/gen scf(symm,tight,novaracc,noincfock,fulldiag) stable(crhf) gues
 s=read geom=nocrowd test
 ----------------------------------------------------------------------

 hf stability analysis of h10 triangular lattice, y= 0.3503135618487248
 1
 ----------------------------------------------------------------------
 Symbolic Z-matrix:
 Charge =  0 Multiplicity = 1

                         Standard orientation:
 ---------------------------------------------------------------------
 Center     Atomic      Atomic             Coordinates (Angstroms)
 Number     Number       Type             X           Y           Z
 ---------------------------------------------------------------------
      1          1           0        0.000000    0.700627    1.648096
      2          1           0        0.000000    0.350314    3.296191
      3          1           0        0.000000    0.350314    0.000000
      4          1           0        0.000000    0.000000    1.648096
      5          1           0       -0.000000   -0.350314   -0.000000
      6          1           0       -0.000000   -0.700627   -1.648096
      7          1           0        0.000000    0.000000   -1.648096
      8          1           0       -0.000000   -0.350314   -3.296191
      9          1           0        0.000000    0.700627   -1.648096
     10          1           0        0.000000    0.350314   -3.296191
     11          1           0       -0.000000   -0.350314    3.296191
     12          1           0       -0.000000   -0.700627    1.648096
 ---------------------------------------------------------------------

 SCF Done:  E(RHF) =  -5.92630696470     A.U. after    6 cycles
 E2 =    -0.1347418726D+00 EUMP2 =    -0.60610488373277D+01

 The electronic state is 1-AG.
 Alpha  occ. eigenvalues --   -0.84831  -0.82131  -0.65005  -0.61237  -0.54240
 Alpha  occ. eigenvalues --   -0.26989
 Alpha virt. eigenvalues --   -0.08744   0.43310   0.47665   0.58352   0.86593
 Alpha virt. eigenvalues --    0.88933

 Mulliken charges:
               1
     1  H    0.175842
     2  H   -0.013470
     3  H   -0.071785
     4  H   -0.252958
     5  H   -0.071785
     6  H    0.175842
     7  H   -0.252958
     8  H   -0.013470
     9  H    0.175842
    10  H   -0.013470
    11  H   -0.013470
    12  H    0.175842
 Sum of Mulliken charges =  -0.00000

 Dipole moment (field-independent basis, Debye):
    X=             -0.0000    Y=              0.0000    Z=              0.0000  Tot=              0.0000
 Quadrupole moment (field-independent basis, Debye-Ang):
   XX=            -15.3266   YY=            -14.6158   ZZ=            -20.3524
   XY=              0.0000   XZ=              0.0000   YZ=              0.0000

 Normal termination of Gaussian 09 at Thu Feb  9 19:14:35 2017.
