 Gaussian 09, Revision E.01,
 Gaussian 09:  ES64L-G09RevE.01 30-Nov-2015

 ----------------------------------------------------------------------
 #rhf/gen scf(symm,tight,novaracc,noincfock,fulldiag) stable(crhf) gues
 s=read geom=nocrowd test
 ----------------------------------------------------------------------

 hf stability analysis of h10 triangular lattice, y= 0.4458672966047664
 3
 ----------------------------------------------------------------------
 Symbolic Z-matrix:
 Charge =  0 Multiplicity = 1

                         Standard orientation:
 ---------------------------------------------------------------------
 Center     Atomic      Atomic             Coordinates (Angstroms)
 Number     Number       Type             X           Y           Z
 ---------------------------------------------------------------------
      1          1           0       -0.000000    0.891735    1.294893
      2          1           0        0.000000    0.445867    2.589785
      3          1           0       -0.000000    0.445867   -0.000000
      4          1           0        0.000000    0.000000    1.294893
      5          1           0       -0.000000   -0.445867    0.000000
      6          1           0       -0.000000   -0.891735   -1.294893
      7          1           0        0.000000   -0.000000   -1.294893
      8          1           0       -0.000000   -0.445867   -2.589785
      9          1           0        0.000000    0.891735   -1.294893
     10          1           0        0.000000    0.445867   -2.589785
     11          1           0       -0.000000   -0.445867    2.589785
     12          1           0       -0.000000   -0.891735    1.294893
 ---------------------------------------------------------------------

 SCF Done:  E(RHF) =  -5.82379113650     A.U. after    7 cycles
 E2 =    -0.1294831661D+00 EUMP2 =    -0.59532743026194D+01

 The electronic state is 1-AG.
 Alpha  occ. eigenvalues --   -0.84519  -0.77901  -0.59265  -0.47207  -0.38242
 Alpha  occ. eigenvalues --   -0.28111
 Alpha virt. eigenvalues --   -0.13190   0.31697   0.42512   0.52444   0.58676
 Alpha virt. eigenvalues --    0.64571

 Mulliken charges:
               1
     1  H    0.161401
     2  H   -0.023726
     3  H   -0.134256
     4  H   -0.141094
     5  H   -0.134256
     6  H    0.161401
     7  H   -0.141094
     8  H   -0.023726
     9  H    0.161401
    10  H   -0.023726
    11  H   -0.023726
    12  H    0.161401
 Sum of Mulliken charges =  -0.00000

 Dipole moment (field-independent basis, Debye):
    X=             -0.0000    Y=              0.0000    Z=              0.0000  Tot=              0.0000
 Quadrupole moment (field-independent basis, Debye-Ang):
   XX=            -14.9623   YY=            -12.5120   ZZ=            -22.4857
   XY=              0.0000   XZ=              0.0000   YZ=              0.0000

 Normal termination of Gaussian 09 at Thu Feb  9 19:14:50 2017.
