 Gaussian 09, Revision E.01,
 Gaussian 09:  ES64L-G09RevE.01 30-Nov-2015

 ----------------------------------------------------------------------
 #rhf/gen scf(symm,tight,novaracc,noincfock,fulldiag) stable(crhf) gues
 s=read geom=nocrowd test
 ----------------------------------------------------------------------

 hf stability analysis of h10 triangular lattice, y= 0.4331194750473593
 1
 ----------------------------------------------------------------------
 Symbolic Z-matrix:
 Charge =  0 Multiplicity = 1

                         Standard orientation:
 ---------------------------------------------------------------------
 Center     Atomic      Atomic             Coordinates (Angstroms)
 Number     Number       Type             X           Y           Z
 ---------------------------------------------------------------------
      1          1           0       -0.000000    0.866239    1.333005
      2          1           0       -0.000000    0.433119    2.666009
      3          1           0        0.000000    0.433119   -0.000000
      4          1           0       -0.000000    0.000000    1.333005
      5          1           0       -0.000000   -0.433119   -0.000000
      6          1           0       -0.000000   -0.866239   -1.333005
      7          1           0        0.000000    0.000000   -1.333005
      8          1           0       -0.000000   -0.433119   -2.666009
      9          1           0        0.000000    0.866239   -1.333005
     10          1           0        0.000000    0.433119   -2.666009
     11          1           0       -0.000000   -0.433119    2.666009
     12          1           0       -0.000000   -0.866239    1.333005
 ---------------------------------------------------------------------

 SCF Done:  E(RHF) =  -5.87956015894     A.U. after    7 cycles
 E2 =    -0.1262167861D+00 EUMP2 =    -0.60057769450897D+01

 The electronic state is 1-AG.
 Alpha  occ. eigenvalues --   -0.84440  -0.78371  -0.60038  -0.49227  -0.36821
 Alpha  occ. eigenvalues --   -0.31868
 Alpha virt. eigenvalues --   -0.12651   0.33007   0.42880   0.56220   0.61927
 Alpha virt. eigenvalues --    0.63547

 Mulliken charges:
               1
     1  H    0.164342
     2  H   -0.022851
     3  H   -0.127529
     4  H   -0.155454
     5  H   -0.127529
     6  H    0.164342
     7  H   -0.155454
     8  H   -0.022851
     9  H    0.164342
    10  H   -0.022851
    11  H   -0.022851
    12  H    0.164342
 Sum of Mulliken charges =  -0.00000

 Dipole moment (field-independent basis, Debye):
    X=             -0.0000    Y=              0.0000    Z=              0.0000  Tot=              0.0000
 Quadrupole moment (field-independent basis, Debye-Ang):
   XX=            -15.0151   YY=            -12.7605   ZZ=            -22.2743
   XY=              0.0000   XZ=              0.0000   YZ=             -0.0000

 Normal termination of Gaussian 09 at Thu Feb  9 19:14:48 2017.
