 Gaussian 09, Revision E.01,
 Gaussian 09:  ES64L-G09RevE.01 30-Nov-2015

 ----------------------------------------------------------------------
 #rhf/gen scf(symm,tight,novaracc,noincfock,fulldiag) stable(crhf) gues
 s=read geom=nocrowd test
 ----------------------------------------------------------------------

 ----------------------------------------------------------------------
 hf stability analysis of h10 triangular lattice, y= 1.1127136872907215
 ----------------------------------------------------------------------
 Symbolic Z-matrix:
 Charge =  0 Multiplicity = 1

                         Standard orientation:
 ---------------------------------------------------------------------
 Center     Atomic      Atomic             Coordinates (Angstroms)
 Number     Number       Type             X           Y           Z
 ---------------------------------------------------------------------
      1          1           0       -0.000000    0.518867    2.225427
      2          1           0       -0.000000    1.037734    1.112714
      3          1           0       -0.000000    0.000000    1.112714
      4          1           0       -0.000000    0.518867    0.000000
      5          1           0        0.000000    0.000000   -1.112714
      6          1           0       -0.000000   -0.518867   -2.225427
      7          1           0       -0.000000   -0.518867   -0.000000
      8          1           0       -0.000000   -1.037734   -1.112714
      9          1           0       -0.000000   -0.518867    2.225427
     10          1           0       -0.000000   -1.037734    1.112714
     11          1           0        0.000000    1.037734   -1.112714
     12          1           0        0.000000    0.518867   -2.225427
 ---------------------------------------------------------------------

 SCF Done:  E(RHF) =  -4.67500304675     A.U. after   11 cycles
 E2 =    -0.4921766767D+00 EUMP2 =    -0.51671797234375D+01

 The electronic state is 1-AG.
 Alpha  occ. eigenvalues --   -0.87852  -0.76968  -0.52219  -0.48081  -0.03456
 Alpha  occ. eigenvalues --   -0.00595
 Alpha virt. eigenvalues --   -0.18873  -0.10729   0.34276   0.34393   0.37373
 Alpha virt. eigenvalues --    0.65299

 Mulliken charges:
               1
     1  H   -0.034097
     2  H    0.115681
     3  H    0.138765
     4  H   -0.301934
     5  H    0.138765
     6  H   -0.034097
     7  H   -0.301934
     8  H    0.115681
     9  H   -0.034097
    10  H    0.115681
    11  H    0.115681
    12  H   -0.034097
 Sum of Mulliken charges =   0.00000

 Dipole moment (field-independent basis, Debye):
    X=              0.0000    Y=             -0.0000    Z=             -0.0000  Tot=              0.0000
 Quadrupole moment (field-independent basis, Debye-Ang):
   XX=            -14.5512   YY=            -17.6397   ZZ=            -16.9267
   XY=             -0.0000   XZ=              0.0000   YZ=              0.0000

 Normal termination of Gaussian 09 at Thu Feb  9 19:16:32 2017.
