 Gaussian 09, Revision E.01,
 Gaussian 09:  ES64L-G09RevE.01 30-Nov-2015

 ----------------------------------------------------------------------
 #rhf/gen scf(symm,tight,novaracc,noincfock,fulldiag) stable(crhf) gues
 s=read geom=nocrowd test
 ----------------------------------------------------------------------

 hf stability analysis of h10 triangular lattice, y= 0.6595943070875844
 9
 ----------------------------------------------------------------------
 Symbolic Z-matrix:
 Charge =  0 Multiplicity = 1

                         Standard orientation:
 ---------------------------------------------------------------------
 Center     Atomic      Atomic             Coordinates (Angstroms)
 Number     Number       Type             X           Y           Z
 ---------------------------------------------------------------------
      1          1           0        0.000000    1.319189    0.875311
      2          1           0        0.000000    0.659594    1.750622
      3          1           0        0.000000    0.659594    0.000000
      4          1           0        0.000000   -0.000000    0.875311
      5          1           0       -0.000000   -0.659594   -0.000000
      6          1           0       -0.000000   -1.319189   -0.875311
      7          1           0        0.000000    0.000000   -0.875311
      8          1           0       -0.000000   -0.659594   -1.750622
      9          1           0        0.000000    1.319189   -0.875311
     10          1           0        0.000000    0.659594   -1.750622
     11          1           0       -0.000000   -0.659594    1.750622
     12          1           0       -0.000000   -1.319189    0.875311
 ---------------------------------------------------------------------

 SCF Done:  E(RHF) =  -5.15595124841     A.U. after    8 cycles
 E2 =    -0.2359510994D+00 EUMP2 =    -0.53919023478068D+01

 The electronic state is 1-AG.
 Alpha  occ. eigenvalues --   -0.93301  -0.73183  -0.61887  -0.47068  -0.23913
 Alpha  occ. eigenvalues --   -0.09958
 Alpha virt. eigenvalues --   -0.19547   0.15079   0.20817   0.40366   0.54616
 Alpha virt. eigenvalues --    0.72039

 Mulliken charges:
               1
     1  H   -0.054100
     2  H    0.070370
     3  H    0.074165
     4  H   -0.106705
     5  H    0.074165
     6  H   -0.054100
     7  H   -0.106705
     8  H    0.070370
     9  H   -0.054100
    10  H    0.070370
    11  H    0.070370
    12  H   -0.054100
 Sum of Mulliken charges =  -0.00000

 Dipole moment (field-independent basis, Debye):
    X=             -0.0000    Y=              0.0000    Z=              0.0000  Tot=              0.0000
 Quadrupole moment (field-independent basis, Debye-Ang):
   XX=            -14.7416   YY=            -18.3390   ZZ=            -17.4072
   XY=             -0.0000   XZ=              0.0000   YZ=              0.0000

 Normal termination of Gaussian 09 at Thu Feb  9 19:15:30 2017.
