 Gaussian 09, Revision E.01,
 Gaussian 09:  ES64L-G09RevE.01 30-Nov-2015

 ----------------------------------------------------------------------
 #rhf/gen scf(symm,tight,novaracc,noincfock,fulldiag) stable(crhf) gues
 s=read geom=nocrowd test
 ----------------------------------------------------------------------

 ----------------------------------------------------------------------
 hf stability analysis of h10 triangular lattice, y= 1.4189643903365978
 ----------------------------------------------------------------------
 Symbolic Z-matrix:
 Charge =  0 Multiplicity = 1

                         Standard orientation:
 ---------------------------------------------------------------------
 Center     Atomic      Atomic             Coordinates (Angstroms)
 Number     Number       Type             X           Y           Z
 ---------------------------------------------------------------------
      1          1           0        0.000000    0.406881    2.837929
      2          1           0        0.000000    0.813763    1.418964
      3          1           0       -0.000000   -0.000000    1.418964
      4          1           0       -0.000000    0.406881    0.000000
      5          1           0        0.000000    0.000000   -1.418964
      6          1           0       -0.000000   -0.406881   -2.837929
      7          1           0       -0.000000   -0.406881   -0.000000
      8          1           0       -0.000000   -0.813763   -1.418964
      9          1           0       -0.000000   -0.406881    2.837929
     10          1           0       -0.000000   -0.813763    1.418964
     11          1           0        0.000000    0.813763   -1.418964
     12          1           0        0.000000    0.406881   -2.837929
 ---------------------------------------------------------------------

 SCF Done:  E(RHF) =  -4.61957512755     A.U. after    8 cycles
 E2 =    -0.2070176712D+01 EUMP2 =    -0.66897518394351D+01

 The electronic state is 1-AG.
 Alpha  occ. eigenvalues --   -0.83535  -0.78810  -0.53660  -0.34705  -0.31245
 Alpha  occ. eigenvalues --    0.13699
 Alpha virt. eigenvalues --   -0.30781  -0.13349   0.32352   0.61421   0.62477
 Alpha virt. eigenvalues --    0.66994

 Mulliken charges:
               1
     1  H   -0.022316
     2  H    0.233742
     3  H   -0.113228
     4  H   -0.309624
     5  H   -0.113228
     6  H   -0.022316
     7  H   -0.309624
     8  H    0.233742
     9  H   -0.022316
    10  H    0.233742
    11  H    0.233742
    12  H   -0.022316
 Sum of Mulliken charges =   0.00000

 Dipole moment (field-independent basis, Debye):
    X=             -0.0000    Y=              0.0000    Z=              0.0000  Tot=              0.0000
 Quadrupole moment (field-independent basis, Debye-Ang):
   XX=            -14.6178   YY=            -15.8605   ZZ=            -15.2441
   XY=             -0.0000   XZ=              0.0000   YZ=              0.0000

 Normal termination of Gaussian 09 at Thu Feb  9 19:16:50 2017.
