 Gaussian 09, Revision E.01,
 Gaussian 09:  ES64L-G09RevE.01 30-Nov-2015

 ----------------------------------------------------------------------
 #rhf/gen scf(symm,tight,novaracc,noincfock,fulldiag) stable(crhf) gues
 s=read geom=nocrowd test
 ----------------------------------------------------------------------

 hf stability analysis of h10 triangular lattice, y= 0.8596363675198261
 9
 ----------------------------------------------------------------------
 Symbolic Z-matrix:
 Charge =  0 Multiplicity = 1

                         Standard orientation:
 ---------------------------------------------------------------------
 Center     Atomic      Atomic             Coordinates (Angstroms)
 Number     Number       Type             X           Y           Z
 ---------------------------------------------------------------------
      1          1           0        0.000000    0.671622    1.719273
      2          1           0        0.000000    1.343243    0.859636
      3          1           0        0.000000    0.000000    0.859636
      4          1           0        0.000000    0.671622    0.000000
      5          1           0        0.000000    0.000000   -0.859636
      6          1           0       -0.000000   -0.671622   -1.719273
      7          1           0       -0.000000   -0.671622    0.000000
      8          1           0       -0.000000   -1.343243   -0.859636
      9          1           0       -0.000000   -0.671622    1.719273
     10          1           0       -0.000000   -1.343243    0.859636
     11          1           0        0.000000    1.343243   -0.859636
     12          1           0        0.000000    0.671622   -1.719273
 ---------------------------------------------------------------------

 SCF Done:  E(RHF) =  -5.18234531605     A.U. after    7 cycles
 E2 =    -0.3058570681D+00 EUMP2 =    -0.54882023841330D+01

 The electronic state is 1-AG.
 Alpha  occ. eigenvalues --   -0.90777  -0.70311  -0.63429  -0.42380  -0.25337
 Alpha  occ. eigenvalues --   -0.08808
 Alpha virt. eigenvalues --   -0.22306   0.16710   0.24303   0.41022   0.53296
 Alpha virt. eigenvalues --    0.80136

 Mulliken charges:
               1
     1  H   -0.073217
     2  H    0.181455
     3  H    0.021329
     4  H   -0.237807
     5  H    0.021329
     6  H   -0.073217
     7  H   -0.237807
     8  H    0.181455
     9  H   -0.073217
    10  H    0.181455
    11  H    0.181455
    12  H   -0.073217
 Sum of Mulliken charges =   0.00000

 Dipole moment (field-independent basis, Debye):
    X=             -0.0000    Y=              0.0000    Z=             -0.0000  Tot=              0.0000
 Quadrupole moment (field-independent basis, Debye-Ang):
   XX=            -14.6956   YY=            -14.8881   ZZ=            -19.3286
   XY=             -0.0000   XZ=              0.0000   YZ=              0.0000

 Normal termination of Gaussian 09 at Thu Feb  9 19:16:04 2017.
