 Gaussian 09, Revision E.01,
 Gaussian 09:  ES64L-G09RevE.01 30-Nov-2015

 ----------------------------------------------------------------------
 #rhf/gen scf(symm,tight,novaracc,noincfock,fulldiag) stable(crhf) gues
 s=read geom=nocrowd test
 ----------------------------------------------------------------------

 hf stability analysis of h10 triangular lattice, y= 0.7466864790071482
 4
 ----------------------------------------------------------------------
 Symbolic Z-matrix:
 Charge =  0 Multiplicity = 1

                         Standard orientation:
 ---------------------------------------------------------------------
 Center     Atomic      Atomic             Coordinates (Angstroms)
 Number     Number       Type             X           Y           Z
 ---------------------------------------------------------------------
      1          1           0        0.000000    1.493373    0.773216
      2          1           0        0.000000    0.746686    1.546433
      3          1           0        0.000000    0.746686    0.000000
      4          1           0        0.000000    0.000000    0.773216
      5          1           0       -0.000000   -0.746686   -0.000000
      6          1           0       -0.000000   -1.493373   -0.773216
      7          1           0        0.000000   -0.000000   -0.773216
      8          1           0       -0.000000   -0.746686   -1.546433
      9          1           0        0.000000    1.493373   -0.773216
     10          1           0        0.000000    0.746686   -1.546433
     11          1           0       -0.000000   -0.746686    1.546433
     12          1           0       -0.000000   -1.493373    0.773216
 ---------------------------------------------------------------------

 SCF Done:  E(RHF) =  -5.20670124715     A.U. after    7 cycles
 E2 =    -0.2330431734D+00 EUMP2 =    -0.54397444205878D+01

 The electronic state is 1-AG.
 Alpha  occ. eigenvalues --   -0.91029  -0.69336  -0.64792  -0.36869  -0.33576
 Alpha  occ. eigenvalues --   -0.07703
 Alpha virt. eigenvalues --   -0.22293   0.14785   0.34569   0.41983   0.42426
 Alpha virt. eigenvalues --    0.90789

 Mulliken charges:
               1
     1  H   -0.124377
     2  H    0.212619
     3  H    0.047876
     4  H   -0.224359
     5  H    0.047876
     6  H   -0.124377
     7  H   -0.224359
     8  H    0.212619
     9  H   -0.124377
    10  H    0.212619
    11  H    0.212619
    12  H   -0.124377
 Sum of Mulliken charges =  -0.00000

 Dipole moment (field-independent basis, Debye):
    X=              0.0000    Y=             -0.0000    Z=              0.0000  Tot=              0.0000
 Quadrupole moment (field-independent basis, Debye-Ang):
   XX=            -14.6828   YY=            -22.1011   ZZ=            -11.0681
   XY=             -0.0000   XZ=             -0.0000   YZ=              0.0000

 Normal termination of Gaussian 09 at Thu Feb  9 19:15:46 2017.
