 Gaussian 09, Revision E.01,
 Gaussian 09:  ES64L-G09RevE.01 30-Nov-2015

 ----------------------------------------------------------------------
 #rhf/gen scf(symm,tight,novaracc,noincfock,fulldiag) stable(crhf) gues
 s=read geom=nocrowd test
 ----------------------------------------------------------------------

 ----------------------------------------------------------------------
 hf stability analysis of h10 triangular lattice, y= 1.1387493349689228
 ----------------------------------------------------------------------
 Symbolic Z-matrix:
 Charge =  0 Multiplicity = 1

                         Standard orientation:
 ---------------------------------------------------------------------
 Center     Atomic      Atomic             Coordinates (Angstroms)
 Number     Number       Type             X           Y           Z
 ---------------------------------------------------------------------
      1          1           0       -0.000000    0.507004    2.277499
      2          1           0       -0.000000    1.014008    1.138749
      3          1           0        0.000000    0.000000    1.138749
      4          1           0       -0.000000    0.507004   -0.000000
      5          1           0        0.000000   -0.000000   -1.138749
      6          1           0       -0.000000   -0.507004   -2.277499
      7          1           0       -0.000000   -0.507004    0.000000
      8          1           0       -0.000000   -1.014008   -1.138749
      9          1           0       -0.000000   -0.507004    2.277499
     10          1           0       -0.000000   -1.014008    1.138749
     11          1           0        0.000000    1.014008   -1.138749
     12          1           0        0.000000    0.507004   -2.277499
 ---------------------------------------------------------------------

 SCF Done:  E(RHF) =  -4.66818990373     A.U. after   11 cycles
 E2 =    -0.5783923008D+00 EUMP2 =    -0.52465822044989D+01

 The electronic state is 1-AG.
 Alpha  occ. eigenvalues --   -0.85989  -0.76422  -0.51517  -0.46019  -0.04698
 Alpha  occ. eigenvalues --    0.01896
 Alpha virt. eigenvalues --   -0.18234  -0.13126   0.34519   0.35415   0.41624
 Alpha virt. eigenvalues --    0.66522

 Mulliken charges:
               1
     1  H   -0.054681
     2  H    0.185462
     3  H    0.120081
     4  H   -0.381644
     5  H    0.120081
     6  H   -0.054681
     7  H   -0.381644
     8  H    0.185462
     9  H   -0.054681
    10  H    0.185462
    11  H    0.185462
    12  H   -0.054681
 Sum of Mulliken charges =  -0.00000

 Dipole moment (field-independent basis, Debye):
    X=              0.0000    Y=              0.0000    Z=             -0.0000  Tot=              0.0000
 Quadrupole moment (field-independent basis, Debye-Ang):
   XX=            -14.4900   YY=            -15.4895   ZZ=            -18.5766
   XY=             -0.0000   XZ=              0.0000   YZ=              0.0000

 Normal termination of Gaussian 09 at Thu Feb  9 19:16:34 2017.
