 Gaussian 09, Revision E.01,
 Gaussian 09:  ES64L-G09RevE.01 30-Nov-2015

 ----------------------------------------------------------------------
 #rhf/gen scf(symm,tight,novaracc,noincfock,fulldiag) stable(crhf) gues
 s=read geom=nocrowd test
 ----------------------------------------------------------------------

 ----------------------------------------------------------------------
 hf stability analysis of h10 triangular lattice, y= 2.5688804782633659
 ----------------------------------------------------------------------
 Symbolic Z-matrix:
 Charge =  0 Multiplicity = 1

                         Standard orientation:
 ---------------------------------------------------------------------
 Center     Atomic      Atomic             Coordinates (Angstroms)
 Number     Number       Type             X           Y           Z
 ---------------------------------------------------------------------
      1          1           0        0.000000    0.224748    5.137761
      2          1           0        0.000000    0.449496    2.568880
      3          1           0        0.000000    0.000000    2.568880
      4          1           0        0.000000    0.224748    0.000000
      5          1           0        0.000000    0.000000   -2.568880
      6          1           0       -0.000000   -0.224748   -5.137761
      7          1           0       -0.000000   -0.224748   -0.000000
      8          1           0       -0.000000   -0.449496   -2.568880
      9          1           0       -0.000000   -0.224748    5.137761
     10          1           0       -0.000000   -0.449496    2.568880
     11          1           0        0.000000    0.449496   -2.568880
     12          1           0        0.000000    0.224748   -5.137761
 ---------------------------------------------------------------------

 SCF Done:  E(RHF) =  -1.87744091339     A.U. after    9 cycles
 E2 =    -0.4315434433D+01 EUMP2 =    -0.61928753458948D+01

 The electronic state is 1-AG.
 Alpha  occ. eigenvalues --   -0.95675  -0.95422  -0.73355  -0.53418  -0.10079
 Alpha  occ. eigenvalues --    0.42577
 Alpha virt. eigenvalues --   -0.48265   0.00246   0.47772   0.67216   1.66719
 Alpha virt. eigenvalues --    1.66755

 Mulliken charges:
               1
     1  H    0.002048
     2  H    0.385067
     3  H   -0.766767
     4  H   -0.007464
     5  H   -0.766767
     6  H    0.002048
     7  H   -0.007464
     8  H    0.385067
     9  H    0.002048
    10  H    0.385067
    11  H    0.385067
    12  H    0.002048
 Sum of Mulliken charges =  -0.00000

 Dipole moment (field-independent basis, Debye):
    X=             -0.0000    Y=              0.0000    Z=             -0.0000  Tot=              0.0000
 Quadrupole moment (field-independent basis, Debye-Ang):
   XX=            -14.4519   YY=            -18.8421   ZZ=            -14.2346
   XY=             -0.0000   XZ=              0.0000   YZ=             -0.0000

 Normal termination of Gaussian 09 at Thu Feb  9 19:17:14 2017.
