 Gaussian 09, Revision E.01,
 Gaussian 09:  ES64L-G09RevE.01 30-Nov-2015

 ----------------------------------------------------------------------
 #rhf/gen scf(symm,tight,novaracc,noincfock,fulldiag) stable(crhf) gues
 s=read geom=nocrowd test
 ----------------------------------------------------------------------

 hf stability analysis of h10 triangular lattice, y= 0.3794068973118231
 4
 ----------------------------------------------------------------------
 Symbolic Z-matrix:
 Charge =  0 Multiplicity = 1

                         Standard orientation:
 ---------------------------------------------------------------------
 Center     Atomic      Atomic             Coordinates (Angstroms)
 Number     Number       Type             X           Y           Z
 ---------------------------------------------------------------------
      1          1           0        0.000000    0.758814    1.521718
      2          1           0        0.000000    0.379407    3.043436
      3          1           0        0.000000    0.379407    0.000000
      4          1           0        0.000000   -0.000000    1.521718
      5          1           0       -0.000000   -0.379407   -0.000000
      6          1           0       -0.000000   -0.758814   -1.521718
      7          1           0        0.000000    0.000000   -1.521718
      8          1           0       -0.000000   -0.379407   -3.043436
      9          1           0        0.000000    0.758814   -1.521718
     10          1           0        0.000000    0.379407   -3.043436
     11          1           0       -0.000000   -0.379407    3.043436
     12          1           0       -0.000000   -0.758814    1.521718
 ---------------------------------------------------------------------

 SCF Done:  E(RHF) =  -5.98197827496     A.U. after    6 cycles
 E2 =    -0.1256513017D+00 EUMP2 =    -0.61076295766917D+01

 The electronic state is 1-AG.
 Alpha  occ. eigenvalues --   -0.84473  -0.80626  -0.63278  -0.57321  -0.46954
 Alpha  occ. eigenvalues --   -0.30564
 Alpha virt. eigenvalues --   -0.10221   0.39314   0.45427   0.59615   0.74626
 Alpha virt. eigenvalues --    0.78065

 Mulliken charges:
               1
     1  H    0.169945
     2  H   -0.017192
     3  H   -0.092671
     4  H   -0.212835
     5  H   -0.092671
     6  H    0.169945
     7  H   -0.212835
     8  H   -0.017192
     9  H    0.169945
    10  H   -0.017192
    11  H   -0.017192
    12  H    0.169945
 Sum of Mulliken charges =   0.00000

 Dipole moment (field-independent basis, Debye):
    X=             -0.0000    Y=              0.0000    Z=             -0.0000  Tot=              0.0000
 Quadrupole moment (field-independent basis, Debye-Ang):
   XX=            -15.2277   YY=            -13.9791   ZZ=            -21.1120
   XY=              0.0000   XZ=              0.0000   YZ=              0.0000

 Normal termination of Gaussian 09 at Thu Feb  9 19:14:39 2017.
