 Gaussian 09, Revision E.01,
 Gaussian 09:  ES64L-G09RevE.01 30-Nov-2015

 ----------------------------------------------------------------------
 #rhf/gen scf(symm,tight,novaracc,noincfock,fulldiag) stable(crhf) gues
 s=read geom=nocrowd test
 ----------------------------------------------------------------------

 hf stability analysis of h10 triangular lattice, y= 0.7084369783301545
 1
 ----------------------------------------------------------------------
 Symbolic Z-matrix:
 Charge =  0 Multiplicity = 1

                         Standard orientation:
 ---------------------------------------------------------------------
 Center     Atomic      Atomic             Coordinates (Angstroms)
 Number     Number       Type             X           Y           Z
 ---------------------------------------------------------------------
      1          1           0        0.000000    1.416874    0.814963
      2          1           0        0.000000    0.708437    1.629927
      3          1           0        0.000000    0.708437    0.000000
      4          1           0        0.000000   -0.000000    0.814963
      5          1           0       -0.000000   -0.708437   -0.000000
      6          1           0       -0.000000   -1.416874   -0.814963
      7          1           0        0.000000    0.000000   -0.814963
      8          1           0       -0.000000   -0.708437   -1.629927
      9          1           0        0.000000    1.416874   -0.814963
     10          1           0        0.000000    0.708437   -1.629927
     11          1           0       -0.000000   -0.708437    1.629927
     12          1           0       -0.000000   -1.416874    0.814963
 ---------------------------------------------------------------------

 SCF Done:  E(RHF) =  -5.16727803118     A.U. after    9 cycles
 E2 =    -0.2283262070D+00 EUMP2 =    -0.53956042381623D+01

 The electronic state is 1-AG.
 Alpha  occ. eigenvalues --   -0.91209  -0.71356  -0.62398  -0.40741  -0.29907
 Alpha  occ. eigenvalues --   -0.06442
 Alpha virt. eigenvalues --   -0.21901   0.14086   0.27077   0.42037   0.48837
 Alpha virt. eigenvalues --    0.86696

 Mulliken charges:
               1
     1  H   -0.153050
     2  H    0.221716
     3  H    0.055379
     4  H   -0.192711
     5  H    0.055379
     6  H   -0.153050
     7  H   -0.192711
     8  H    0.221716
     9  H   -0.153050
    10  H    0.221716
    11  H    0.221716
    12  H   -0.153050
 Sum of Mulliken charges =  -0.00000

 Dipole moment (field-independent basis, Debye):
    X=              0.0000    Y=              0.0000    Z=             -0.0000  Tot=              0.0000
 Quadrupole moment (field-independent basis, Debye-Ang):
   XX=            -14.6734   YY=            -23.2751   ZZ=             -9.4700
   XY=             -0.0000   XZ=             -0.0000   YZ=              0.0000

 Normal termination of Gaussian 09 at Thu Feb  9 19:15:39 2017.
