 Gaussian 09, Revision E.01,
 Gaussian 09:  ES64L-G09RevE.01 30-Nov-2015

 ----------------------------------------------------------------------
 #t rhf/gen scf(tight,novaracc,noincfock) stable(crhf) guess=mix geom=n
 ocrowd test
 ----------------------------------------------------------------------

 scf stability calculation for a triangular configuration of 10 H atoms
  (made up of 8 iscosceles triangles)
 ----------------------------------------------------------------------
 Symbolic Z-matrix:
 Charge =  0 Multiplicity = 1

                         Standard orientation:
 ---------------------------------------------------------------------
 Center     Atomic      Atomic             Coordinates (Angstroms)
 Number     Number       Type             X           Y           Z
 ---------------------------------------------------------------------
      1          1           0       -1.057375    5.630882   -0.000000
      2          1           0       -0.755268    3.148425   -0.000000
      3          1           0       -0.302107    3.246887   -0.000000
      4          1           0       -0.453161    0.665968   -0.000000
      5          1           0       -0.000000    0.764430   -0.000000
      6          1           0       -0.151054   -1.816490    0.000000
      7          1           0        0.302107   -1.718028    0.000000
      8          1           0        0.755268   -1.619566    0.000000
      9          1           0        0.604214   -4.200485    0.000000
     10          1           0        1.057375   -4.102023    0.000000
 ---------------------------------------------------------------------

 SCF Done:  E(RHF) =  -3.91799786162     A.U. after   11 cycles
 E2 =    -0.4557394628D+00 EUMP2 =    -0.43737373244678D+01

 The electronic state is 1-A'.
 Alpha  occ. eigenvalues --   -1.04310  -0.76462  -0.75390  -0.69737  -0.14910
 Alpha virt. eigenvalues --   -0.07864   0.60192   0.61527   0.70580   1.49117

 Mulliken charges:
               1
     1  H   -0.251269
     2  H   -0.001380
     3  H    0.000225
     4  H   -0.000844
     5  H   -0.001310
     6  H    0.518013
     7  H   -0.778901
     8  H    0.517586
     9  H   -0.001088
    10  H   -0.001032
 Sum of Mulliken charges =   0.00000

 Dipole moment (field-independent basis, Debye):
    X=              1.6458    Y=             -8.8970    Z=              0.0000  Tot=              9.0479

 Test job not archived.
 1\1\GINC-SULU\Stability\RHF\Gen\H10\LCJ1\05-Feb-2017\0\\#t rhf/gen scf
 (tight,novaracc,noincfock) stable(crhf) guess=mix geom=nocrowd test\\s
 cf stability calculation for a triangular configuration of 10 H atoms
 (made up of 8 iscosceles triangles)\\0,1\H,0,0.231867,0.,4.98\H,0,0.,0
 .,2.49\H,0,0.463734,0.,2.49\H,0,-0.231867,0.,0.\H,0,0.231867,0.,0.\H,0
 ,-0.463734,0.,-2.49\H,0,0.,0.,-2.49\H,0,0.463734,0.,-2.49\H,0,-0.23186
 7,0.,-4.98\H,0,0.231867,0.,-4.98\\Version=ES64L-G09RevE.01\State=1-A'\
 HF=-3.9179979\MP2=-4.3737373\RMSD=7.597e-10\Dipole=-0.1104535,0.,-3.55

 Normal termination of Gaussian 09 at Sun Feb  5 20:27:45 2017.
