 Gaussian 09, Revision E.01,
 Gaussian 09:  ES64L-G09RevE.01 30-Nov-2015

 ----------------------------------------------------------------------
 # rhf/gen scf(tight,novaracc,noincfock,fulldiag) stable(crhf) guess=mi
 x geom=nocrowd test
 ----------------------------------------------------------------------

 scf stability calculation for a triangular configuration of 10 H atoms
  (made up of 8 iscosceles triangles)
 ----------------------------------------------------------------------
 Symbolic Z-matrix:
 Charge =  0 Multiplicity = 1

                         Standard orientation:
 ---------------------------------------------------------------------
 Center     Atomic      Atomic             Coordinates (Angstroms)
 Number     Number       Type             X           Y           Z
 ---------------------------------------------------------------------
      1          1           0        0.923473    6.165938   -0.000000
      2          1           0        0.461736    3.708162   -0.000000
      3          1           0        0.923473    3.665165   -0.000000
      4          1           0       -0.000000    1.250386   -0.000000
      5          1           0        0.461736    1.207390   -0.000000
      6          1           0       -0.461736   -1.207390    0.000000
      7          1           0       -0.000000   -1.250386    0.000000
      8          1           0       -0.923473   -3.665165    0.000000
      9          1           0       -0.461736   -3.708162    0.000000
     10          1           0       -0.923473   -6.165938    0.000000
 ---------------------------------------------------------------------

 SCF Done:  E(RHF) =  -4.33423972658     A.U. after   54 cycles
 E2 =    -0.1037350806D+01 EUMP2 =    -0.53715905330676D+01

 The electronic state is 1-AG.
 Alpha  occ. eigenvalues --   -0.74044  -0.73153  -0.71958  -0.70906  -0.20536
 Alpha virt. eigenvalues --   -0.16292   0.58105   0.62282   0.67960   0.73019

 Mulliken charges:
               1
     1  H    0.001271
     2  H   -0.001098
     3  H   -0.000176
     4  H    0.000071
     5  H   -0.000068
     6  H   -0.000068
     7  H    0.000071
     8  H   -0.000176
     9  H   -0.001098
    10  H    0.001271
 Sum of Mulliken charges =  -0.00000

 Dipole moment (field-independent basis, Debye):
    X=              0.0000    Y=             -0.0000    Z=              0.0000  Tot=              0.0000
 Quadrupole moment (field-independent basis, Debye-Ang):
   XX=            -12.7688   YY=            -14.6766   ZZ=            -13.5078
   XY=             -0.2536   XZ=              0.0000   YZ=              0.0000

 Normal termination of Gaussian 09 at Mon Feb  6 17:47:55 2017.
