 Gaussian 09, Revision E.01,
 Gaussian 09:  ES64L-G09RevE.01 30-Nov-2015

 ----------------------------------------------------------------------
 #rhf/gen scf(symm,tight,novaracc,noincfock,fulldiag) stable(crhf) gues
 s=read geom=nocrowd test
 ----------------------------------------------------------------------

 hf stability analysis of h10 triangular lattice, y= 0.5188669005588153
 5
 ----------------------------------------------------------------------
 Symbolic Z-matrix:
 Charge =  0 Multiplicity = 1

                         Standard orientation:
 ---------------------------------------------------------------------
 Center     Atomic      Atomic             Coordinates (Angstroms)
 Number     Number       Type             X           Y           Z
 ---------------------------------------------------------------------
      1          1           0        2.225427    1.556601   -0.000000
      2          1           0        3.338141    1.037734   -0.000000
      3          1           0        1.112714    1.037734   -0.000000
      4          1           0        2.225427    0.518867   -0.000000
      5          1           0        0.000000    0.518867   -0.000000
      6          1           0        1.112714    0.000000   -0.000000
      7          1           0       -1.112714    0.000000   -0.000000
      8          1           0       -0.000000   -0.518867   -0.000000
      9          1           0       -2.225427   -0.518867   -0.000000
     10          1           0       -1.112714   -1.037734   -0.000000
     11          1           0       -3.338141   -1.037734   -0.000000
     12          1           0       -2.225427   -1.556601   -0.000000
 ---------------------------------------------------------------------

 SCF Done:  E(RHF) =  -5.40465867897     A.U. after   10 cycles
 E2 =    -0.5642558989D-01 EUMP2 =    -0.54610842688524D+01

 The electronic state is 1-AG.
 Alpha  occ. eigenvalues --   -0.84311  -0.77492  -0.63162  -0.46371  -0.30483
 Alpha  occ. eigenvalues --   -0.06448
 Alpha virt. eigenvalues --   -0.09559   0.01853   0.24409   0.26927   0.47242
 Alpha virt. eigenvalues --    0.60509

 Mulliken charges:
               1
     1  H   -0.107123
     2  H   -0.013225
     3  H    0.138545
     4  H    0.135466
     5  H   -0.050094
     6  H   -0.103568
     7  H   -0.103568
     8  H   -0.050094
     9  H    0.135466
    10  H    0.138545
    11  H   -0.013225
    12  H   -0.107123
 Sum of Mulliken charges =  -0.00000

 Dipole moment (field-independent basis, Debye):
    X=             -0.0000    Y=             -0.0000    Z=             -0.0000  Tot=              0.0000
 Quadrupole moment (field-independent basis, Debye-Ang):
   XX=            -18.2253   YY=            -18.6560   ZZ=            -15.3709
   XY=             -0.3598   XZ=             -0.0000   YZ=             -0.0000

 Normal termination of Gaussian 09 at Fri Feb 17 13:51:30 2017.
