 Gaussian 09, Revision E.01,
 Gaussian 09:  ES64L-G09RevE.01 30-Nov-2015

 ----------------------------------------------------------------------
 #rhf/gen scf(symm,tight,novaracc,noincfock,fulldiag) stable(crhf) gues
 s=read geom=nocrowd test
 ----------------------------------------------------------------------

 hf stability analysis of h10 triangular lattice, y= 0.7598357022583297
 5
 ----------------------------------------------------------------------
 Symbolic Z-matrix:
 Charge =  0 Multiplicity = 1

                         Standard orientation:
 ---------------------------------------------------------------------
 Center     Atomic      Atomic             Coordinates (Angstroms)
 Number     Number       Type             X           Y           Z
 ---------------------------------------------------------------------
      1          1           0        0.000000    0.537285    2.686425
      2          1           0       -0.000000   -0.537285    2.686425
      3          1           0        0.000000    0.537285    1.611855
      4          1           0       -0.000000   -0.537285    1.611855
      5          1           0        0.000000    0.537285    0.537285
      6          1           0       -0.000000   -0.537285    0.537285
      7          1           0        0.000000    0.537285   -0.537285
      8          1           0       -0.000000   -0.537285   -0.537285
      9          1           0        0.000000    0.537285   -1.611855
     10          1           0       -0.000000   -0.537285   -1.611855
     11          1           0        0.000000    0.537285   -2.686425
     12          1           0       -0.000000   -0.537285   -2.686425
 ---------------------------------------------------------------------

 SCF Done:  E(RHF) =  -5.52757523103     A.U. after    6 cycles
 E2 =    -0.9969706326D-01 EUMP2 =    -0.56272722942935D+01

 The electronic state is 1-AG.
 Alpha  occ. eigenvalues --   -0.88390  -0.80363  -0.63475  -0.43817  -0.41175
 Alpha  occ. eigenvalues --   -0.13677
 Alpha virt. eigenvalues --   -0.16578   0.05004   0.29647   0.41969   0.60217
 Alpha virt. eigenvalues --    0.95519

 Mulliken charges:
               1
     1  H   -0.053458
     2  H   -0.053458
     3  H    0.146724
     4  H    0.146724
     5  H   -0.093266
     6  H   -0.093266
     7  H   -0.093266
     8  H   -0.093266
     9  H    0.146724
    10  H    0.146724
    11  H   -0.053458
    12  H   -0.053458
 Sum of Mulliken charges =  -0.00000

 Dipole moment (field-independent basis, Debye):
    X=              0.0000    Y=              0.0000    Z=             -0.0000  Tot=              0.0000
 Quadrupole moment (field-independent basis, Debye-Ang):
   XX=            -15.2209   YY=            -18.5238   ZZ=            -19.0898
   XY=             -0.0000   XZ=              0.0000   YZ=              0.0000

 Normal termination of Gaussian 09 at Fri Feb 17 13:55:36 2017.
