 Gaussian 09, Revision E.01,
 Gaussian 09:  ES64L-G09RevE.01 30-Nov-2015

 ----------------------------------------------------------------------
 #rhf/gen scf(symm,tight,novaracc,noincfock,fulldiag) stable(crhf) gues
 s=read geom=nocrowd test
 ----------------------------------------------------------------------

 hf stability analysis of h10 triangular lattice, y= 0.3023959355609886
 5
 ----------------------------------------------------------------------
 Symbolic Z-matrix:
 Charge =  0 Multiplicity = 1

                         Standard orientation:
 ---------------------------------------------------------------------
 Center     Atomic      Atomic             Coordinates (Angstroms)
 Number     Number       Type             X           Y           Z
 ---------------------------------------------------------------------
      1          1           0        3.818505    0.907188   -0.000000
      2          1           0        5.727758    0.604792   -0.000000
      3          1           0        1.909253    0.604792   -0.000000
      4          1           0        3.818505    0.302396   -0.000000
      5          1           0       -0.000000    0.302396   -0.000000
      6          1           0        1.909253    0.000000   -0.000000
      7          1           0       -1.909253    0.000000   -0.000000
      8          1           0       -0.000000   -0.302396   -0.000000
      9          1           0       -3.818505   -0.302396   -0.000000
     10          1           0       -1.909253   -0.604792   -0.000000
     11          1           0       -5.727758   -0.604792   -0.000000
     12          1           0       -3.818505   -0.907188   -0.000000
 ---------------------------------------------------------------------

 SCF Done:  E(RHF) =  -4.51979200309     A.U. after    9 cycles
 E2 =    -0.9750189214D+00 EUMP2 =    -0.54948109245362D+01

 The electronic state is 1-AG.
 Alpha  occ. eigenvalues --   -0.73778  -0.72045  -0.66485  -0.63389  -0.19390
 Alpha  occ. eigenvalues --    0.03978
 Alpha virt. eigenvalues --   -0.29678  -0.14715   0.39251   0.45784   0.58374
 Alpha virt. eigenvalues --    0.63785

 Mulliken charges:
               1
     1  H    0.003335
     2  H   -0.005887
     3  H   -0.010101
     4  H   -0.002314
     5  H    0.067808
     6  H   -0.052840
     7  H   -0.052840
     8  H    0.067808
     9  H   -0.002314
    10  H   -0.010101
    11  H   -0.005887
    12  H    0.003335
 Sum of Mulliken charges =  -0.00000

 Dipole moment (field-independent basis, Debye):
    X=              0.0000    Y=             -0.0000    Z=              0.0000  Tot=              0.0000
 Quadrupole moment (field-independent basis, Debye-Ang):
   XX=            -19.8739   YY=            -17.9506   ZZ=            -15.6411
   XY=              0.2775   XZ=              0.0000   YZ=             -0.0000

 Normal termination of Gaussian 09 at Fri Feb 17 13:48:20 2017.
