 Gaussian 09, Revision E.01,
 Gaussian 09:  ES64L-G09RevE.01 30-Nov-2015

 ----------------------------------------------------------------------
 #rhf/gen scf(symm,tight,novaracc,noincfock,fulldiag) stable(crhf) gues
 s=read geom=nocrowd test
 ----------------------------------------------------------------------

 ----------------------------------------------------------------------
 hf stability analysis of h10 triangular lattice, y= 1.6480958607190197
 ----------------------------------------------------------------------
 Symbolic Z-matrix:
 Charge =  0 Multiplicity = 1

                         Standard orientation:
 ---------------------------------------------------------------------
 Center     Atomic      Atomic             Coordinates (Angstroms)
 Number     Number       Type             X           Y           Z
 ---------------------------------------------------------------------
      1          1           0        4.944288    0.700627    0.000000
      2          1           0        3.296192    1.050941    0.000000
      3          1           0        3.296192    0.350314    0.000000
      4          1           0        1.648096    0.700627    0.000000
      5          1           0        1.648096    0.000000    0.000000
      6          1           0        0.000000    0.350314    0.000000
      7          1           0       -0.000000   -0.350314   -0.000000
      8          1           0       -1.648096    0.000000    0.000000
      9          1           0       -1.648096   -0.700627    0.000000
     10          1           0       -3.296192   -0.350314    0.000000
     11          1           0       -3.296192   -1.050941    0.000000
     12          1           0       -4.944288   -0.700627    0.000000
 ---------------------------------------------------------------------

 SCF Done:  E(RHF) =  -4.98020528506     A.U. after    8 cycles
 E2 =    -0.2447577846D+01 EUMP2 =    -0.74277831314586D+01

 The electronic state is 1-AG.
 Alpha  occ. eigenvalues --   -0.76653  -0.72841  -0.65496  -0.57469  -0.17851
 Alpha  occ. eigenvalues --   -0.04800
 Alpha virt. eigenvalues --   -0.23313  -0.11715   0.26917   0.38261   0.52509
 Alpha virt. eigenvalues --    0.62568

 Mulliken charges:
               1
     1  H   -0.022684
     2  H    0.013981
     3  H    0.002685
     4  H    0.021398
     5  H   -0.051692
     6  H    0.036312
     7  H    0.036312
     8  H   -0.051692
     9  H    0.021398
    10  H    0.002685
    11  H    0.013981
    12  H   -0.022684
 Sum of Mulliken charges =  -0.00000

 Dipole moment (field-independent basis, Debye):
    X=             -0.0000    Y=              0.0000    Z=             -0.0000  Tot=              0.0000
 Quadrupole moment (field-independent basis, Debye-Ang):
   XX=            -20.9639   YY=            -17.5932   ZZ=            -15.7202
   XY=              0.6786   XZ=             -0.0000   YZ=              0.0000

 Normal termination of Gaussian 09 at Fri Feb 17 14:02:11 2017.
