 Gaussian 09, Revision E.01,
 Gaussian 09:  ES64L-G09RevE.01 30-Nov-2015

 ----------------------------------------------------------------------
 #rhf/gen scf(symm,tight,novaracc,noincfock,fulldiag) stable(crhf) gues
 s=read geom=nocrowd test
 ----------------------------------------------------------------------

 hf stability analysis of h10 triangular lattice, y= 0.6476646814092581
 5
 ----------------------------------------------------------------------
 Symbolic Z-matrix:
 Charge =  0 Multiplicity = 1

                         Standard orientation:
 ---------------------------------------------------------------------
 Center     Atomic      Atomic             Coordinates (Angstroms)
 Number     Number       Type             X           Y           Z
 ---------------------------------------------------------------------
      1          1           0        1.782868    1.942994    0.000000
      2          1           0        2.674302    1.295329    0.000000
      3          1           0        0.891434    1.295329    0.000000
      4          1           0        1.782868    0.647665    0.000000
      5          1           0        0.000000    0.647665    0.000000
      6          1           0        0.891434   -0.000000    0.000000
      7          1           0       -0.891434    0.000000    0.000000
      8          1           0       -0.000000   -0.647665   -0.000000
      9          1           0       -1.782868   -0.647665    0.000000
     10          1           0       -0.891434   -1.295329   -0.000000
     11          1           0       -2.674302   -1.295329    0.000000
     12          1           0       -1.782868   -1.942994   -0.000000
 ---------------------------------------------------------------------

 SCF Done:  E(RHF) =  -5.50810886292     A.U. after    8 cycles
 E2 =    -0.1038785048D+00 EUMP2 =    -0.56119873676913D+01

 The electronic state is 1-AG.
 Alpha  occ. eigenvalues --   -0.87287  -0.79621  -0.63299  -0.42919  -0.40570
 Alpha  occ. eigenvalues --   -0.11446
 Alpha virt. eigenvalues --   -0.14412   0.03552   0.30483   0.36908   0.60259
 Alpha virt. eigenvalues --    0.80439

 Mulliken charges:
               1
     1  H   -0.118111
     2  H    0.023953
     3  H    0.160793
     4  H    0.114804
     5  H   -0.110880
     6  H   -0.070559
     7  H   -0.070559
     8  H   -0.110880
     9  H    0.114804
    10  H    0.160793
    11  H    0.023953
    12  H   -0.118111
 Sum of Mulliken charges =   0.00000

 Dipole moment (field-independent basis, Debye):
    X=             -0.0000    Y=             -0.0000    Z=              0.0000  Tot=              0.0000
 Quadrupole moment (field-independent basis, Debye-Ang):
   XX=            -16.1312   YY=            -19.7785   ZZ=            -15.2633
   XY=              0.2158   XZ=              0.0000   YZ=             -0.0000

 Normal termination of Gaussian 09 at Fri Feb 17 13:53:44 2017.
