 Gaussian 09, Revision E.01,
 Gaussian 09:  ES64L-G09RevE.01 30-Nov-2015

 ----------------------------------------------------------------------
 #rhf/gen scf(symm,tight,novaracc,noincfock,fulldiag) stable(crhf) gues
 s=read geom=nocrowd test
 ----------------------------------------------------------------------

 ----------------------------------------------------------------------
 hf stability analysis of h10 triangular lattice, y= 1.0879998015825072
 ----------------------------------------------------------------------
 Symbolic Z-matrix:
 Charge =  0 Multiplicity = 1

                         Standard orientation:
 ---------------------------------------------------------------------
 Center     Atomic      Atomic             Coordinates (Angstroms)
 Number     Number       Type             X           Y           Z
 ---------------------------------------------------------------------
      1          1           0        3.263999    1.061306   -0.000000
      2          1           0        2.176000    1.591959   -0.000000
      3          1           0        2.176000    0.530653   -0.000000
      4          1           0        1.088000    1.061306   -0.000000
      5          1           0        1.088000    0.000000   -0.000000
      6          1           0        0.000000    0.530653    0.000000
      7          1           0       -0.000000   -0.530653    0.000000
      8          1           0       -1.088000    0.000000   -0.000000
      9          1           0       -1.088000   -1.061306   -0.000000
     10          1           0       -2.176000   -0.530653   -0.000000
     11          1           0       -2.176000   -1.591959   -0.000000
     12          1           0       -3.263999   -1.061306   -0.000000
 ---------------------------------------------------------------------

 SCF Done:  E(RHF) =  -5.41216260491     A.U. after    9 cycles
 E2 =    -0.8350516230D-01 EUMP2 =    -0.54956677672071D+01

 The electronic state is 1-AG.
 Alpha  occ. eigenvalues --   -0.84473  -0.77712  -0.63001  -0.45916  -0.31647
 Alpha  occ. eigenvalues --   -0.06399
 Alpha virt. eigenvalues --   -0.09522   0.01338   0.24808   0.28826   0.49140
 Alpha virt. eigenvalues --    0.60627

 Mulliken charges:
               1
     1  H    0.013311
     2  H   -0.132979
     3  H    0.139182
     4  H    0.145533
     5  H   -0.094597
     6  H   -0.070451
     7  H   -0.070451
     8  H   -0.094597
     9  H    0.145533
    10  H    0.139182
    11  H   -0.132979
    12  H    0.013311
 Sum of Mulliken charges =   0.00000

 Dipole moment (field-independent basis, Debye):
    X=              0.0000    Y=              0.0000    Z=             -0.0000  Tot=              0.0000
 Quadrupole moment (field-independent basis, Debye-Ang):
   XX=            -16.1806   YY=            -19.2555   ZZ=            -15.3651
   XY=             -0.1520   XZ=             -0.0000   YZ=              0.0000

 Normal termination of Gaussian 09 at Fri Feb 17 13:59:24 2017.
