 Gaussian 09, Revision E.01,
 Gaussian 09:  ES64L-G09RevE.01 30-Nov-2015

 ----------------------------------------------------------------------
 #rhf/gen scf(symm,tight,novaracc,noincfock,fulldiag) stable(crhf) gues
 s=read geom=nocrowd test
 ----------------------------------------------------------------------

 hf stability analysis of h10 triangular lattice, y= 0.9428899751596989
 7
 ----------------------------------------------------------------------
 Symbolic Z-matrix:
 Charge =  0 Multiplicity = 1

                         Standard orientation:
 ---------------------------------------------------------------------
 Center     Atomic      Atomic             Coordinates (Angstroms)
 Number     Number       Type             X           Y           Z
 ---------------------------------------------------------------------
      1          1           0        2.828670    1.224640   -0.000000
      2          1           0        1.885780    1.836960   -0.000000
      3          1           0        1.885780    0.612320   -0.000000
      4          1           0        0.942890    1.224640   -0.000000
      5          1           0        0.942890    0.000000   -0.000000
      6          1           0        0.000000    0.612320    0.000000
      7          1           0       -0.000000   -0.612320   -0.000000
      8          1           0       -0.942890    0.000000   -0.000000
      9          1           0       -0.942890   -1.224640   -0.000000
     10          1           0       -1.885780   -0.612320   -0.000000
     11          1           0       -1.885780   -1.836960   -0.000000
     12          1           0       -2.828670   -1.224640   -0.000000
 ---------------------------------------------------------------------

 SCF Done:  E(RHF) =  -5.48799435283     A.U. after    9 cycles
 E2 =    -0.1070372850D+00 EUMP2 =    -0.55950316378500D+01

 The electronic state is 1-AG.
 Alpha  occ. eigenvalues --   -0.86461  -0.79087  -0.63142  -0.43505  -0.38685
 Alpha  occ. eigenvalues --   -0.09843
 Alpha virt. eigenvalues --   -0.12836   0.02519   0.31005   0.33264   0.60464
 Alpha virt. eigenvalues --    0.70974

 Mulliken charges:
               1
     1  H    0.048382
     2  H   -0.138993
     3  H    0.111339
     4  H    0.158915
     5  H   -0.066906
     6  H   -0.112736
     7  H   -0.112736
     8  H   -0.066906
     9  H    0.158915
    10  H    0.111339
    11  H   -0.138993
    12  H    0.048382
 Sum of Mulliken charges =  -0.00000

 Dipole moment (field-independent basis, Debye):
    X=              0.0000    Y=             -0.0000    Z=             -0.0000  Tot=              0.0000
 Quadrupole moment (field-independent basis, Debye-Ang):
   XX=            -14.6679   YY=            -20.0268   ZZ=            -15.2949
   XY=              0.4546   XZ=              0.0000   YZ=             -0.0000

 Normal termination of Gaussian 09 at Fri Feb 17 13:58:01 2017.
