 Gaussian 09, Revision E.01,
 Gaussian 09:  ES64L-G09RevE.01 30-Nov-2015

 ----------------------------------------------------------------------
 #rhf/gen scf(symm,tight,novaracc,noincfock,fulldiag) stable(crhf) gues
 s=read geom=nocrowd test
 ----------------------------------------------------------------------

 ----------------------------------------------------------------------
 hf stability analysis of h10 triangular lattice, y= 2.3437412473608381
 ----------------------------------------------------------------------
 Symbolic Z-matrix:
 Charge =  0 Multiplicity = 1

                         Standard orientation:
 ---------------------------------------------------------------------
 Center     Atomic      Atomic             Coordinates (Angstroms)
 Number     Number       Type             X           Y           Z
 ---------------------------------------------------------------------
      1          1           0        7.031224    0.492674    0.000000
      2          1           0        4.687482    0.739011    0.000000
      3          1           0        4.687482    0.246337    0.000000
      4          1           0        2.343741    0.492674    0.000000
      5          1           0        2.343741    0.000000    0.000000
      6          1           0        0.000000    0.246337    0.000000
      7          1           0       -0.000000   -0.246337    0.000000
      8          1           0       -2.343741    0.000000   -0.000000
      9          1           0       -2.343741   -0.492674    0.000000
     10          1           0       -4.687482   -0.246337   -0.000000
     11          1           0       -4.687482   -0.739011   -0.000000
     12          1           0       -7.031224   -0.492674   -0.000000
 ---------------------------------------------------------------------

 SCF Done:  E(RHF) =  -3.68439016205     A.U. after    8 cycles
 E2 =    -0.1180845658D+01 EUMP2 =    -0.48652358199216D+01

 The electronic state is 1-AG.
 Alpha  occ. eigenvalues --   -0.73042  -0.72883  -0.70210  -0.70036  -0.20093
 Alpha  occ. eigenvalues --    0.15029
 Alpha virt. eigenvalues --   -0.31361  -0.16338   0.56005   0.57790   0.67155
 Alpha virt. eigenvalues --    0.68813

 Mulliken charges:
               1
     1  H    0.001167
     2  H   -0.000484
     3  H   -0.001777
     4  H   -0.025322
     5  H   -0.041681
     6  H    0.068097
     7  H    0.068097
     8  H   -0.041681
     9  H   -0.025322
    10  H   -0.001777
    11  H   -0.000484
    12  H    0.001167
 Sum of Mulliken charges =  -0.00000

 Dipole moment (field-independent basis, Debye):
    X=              0.0000    Y=             -0.0000    Z=              0.0000  Tot=              0.0000
 Quadrupole moment (field-independent basis, Debye-Ang):
   XX=            -19.6712   YY=            -17.9500   ZZ=            -15.3805
   XY=             -0.1683   XZ=             -0.0000   YZ=             -0.0000

 Normal termination of Gaussian 09 at Fri Feb 17 14:03:18 2017.
