 Gaussian 09, Revision E.01,
 Gaussian 09:  ES64L-G09RevE.01 30-Nov-2015

 ----------------------------------------------------------------------
 #rhf/gen scf(symm,tight,novaracc,noincfock,fulldiag) stable(crhf) gues
 s=read geom=nocrowd test
 ----------------------------------------------------------------------

 hf stability analysis of h10 triangular lattice, y= 0.4331194750473593
 1
 ----------------------------------------------------------------------
 Symbolic Z-matrix:
 Charge =  0 Multiplicity = 1

                         Standard orientation:
 ---------------------------------------------------------------------
 Center     Atomic      Atomic             Coordinates (Angstroms)
 Number     Number       Type             X           Y           Z
 ---------------------------------------------------------------------
      1          1           0        2.666009    1.299358    0.000000
      2          1           0        3.999014    0.866239    0.000000
      3          1           0        1.333005    0.866239    0.000000
      4          1           0        2.666009    0.433119    0.000000
      5          1           0        0.000000    0.433119    0.000000
      6          1           0        1.333005    0.000000    0.000000
      7          1           0       -1.333005    0.000000    0.000000
      8          1           0       -0.000000   -0.433119   -0.000000
      9          1           0       -2.666009   -0.433119    0.000000
     10          1           0       -1.333005   -0.866239   -0.000000
     11          1           0       -3.999014   -0.866239    0.000000
     12          1           0       -2.666009   -1.299358   -0.000000
 ---------------------------------------------------------------------

 SCF Done:  E(RHF) =  -5.34448223530     A.U. after    9 cycles
 E2 =    -0.3613836069D-01 EUMP2 =    -0.53806205959897D+01

 The electronic state is 1-AG.
 Alpha  occ. eigenvalues --   -0.81532  -0.75181  -0.64436  -0.50623  -0.19811
 Alpha  occ. eigenvalues --   -0.11836
 Alpha virt. eigenvalues --   -0.13932   0.02960   0.13086   0.28451   0.46401
 Alpha virt. eigenvalues --    0.61397

 Mulliken charges:
               1
     1  H    0.017902
     2  H   -0.067055
     3  H    0.068725
     4  H    0.041887
     5  H    0.026447
     6  H   -0.087907
     7  H   -0.087907
     8  H    0.026447
     9  H    0.041887
    10  H    0.068725
    11  H   -0.067055
    12  H    0.017902
 Sum of Mulliken charges =   0.00000

 Dipole moment (field-independent basis, Debye):
    X=              0.0000    Y=              0.0000    Z=             -0.0000  Tot=              0.0000
 Quadrupole moment (field-independent basis, Debye-Ang):
   XX=            -24.9099   YY=            -16.7191   ZZ=            -15.5346
   XY=              0.1077   XZ=              0.0000   YZ=             -0.0000

 Normal termination of Gaussian 09 at Fri Feb 17 13:50:04 2017.
