 Gaussian 09, Revision E.01,
 Gaussian 09:  ES64L-G09RevE.01 30-Nov-2015

 ----------------------------------------------------------------------
 #rhf/gen scf(symm,tight,novaracc,noincfock,fulldiag) stable(crhf) gues
 s=read geom=nocrowd test
 ----------------------------------------------------------------------

 ----------------------------------------------------------------------
 hf stability analysis of h10 triangular lattice, y= 2.1684423371644423
 ----------------------------------------------------------------------
 Symbolic Z-matrix:
 Charge =  0 Multiplicity = 1

                         Standard orientation:
 ---------------------------------------------------------------------
 Center     Atomic      Atomic             Coordinates (Angstroms)
 Number     Number       Type             X           Y           Z
 ---------------------------------------------------------------------
      1          1           0        6.505327    0.532502    0.000000
      2          1           0        4.336885    0.798754    0.000000
      3          1           0        4.336885    0.266251    0.000000
      4          1           0        2.168442    0.532502    0.000000
      5          1           0        2.168442    0.000000    0.000000
      6          1           0        0.000000    0.266251   -0.000000
      7          1           0       -0.000000   -0.266251   -0.000000
      8          1           0       -2.168442    0.000000    0.000000
      9          1           0       -2.168442   -0.532502    0.000000
     10          1           0       -4.336885   -0.266251    0.000000
     11          1           0       -4.336885   -0.798754    0.000000
     12          1           0       -6.505327   -0.532502    0.000000
 ---------------------------------------------------------------------

 SCF Done:  E(RHF) =  -4.02742825881     A.U. after    9 cycles
 E2 =    -0.1094173439D+01 EUMP2 =    -0.51216016976363D+01

 The electronic state is 1-AG.
 Alpha  occ. eigenvalues --   -0.72743  -0.72287  -0.68428  -0.67833  -0.19917
 Alpha  occ. eigenvalues --    0.10379
 Alpha virt. eigenvalues --   -0.31401  -0.15854   0.50206   0.53140   0.64058
 Alpha virt. eigenvalues --    0.66675

 Mulliken charges:
               1
     1  H    0.000088
     2  H   -0.000183
     3  H   -0.002185
     4  H   -0.027606
     5  H   -0.051981
     6  H    0.081866
     7  H    0.081866
     8  H   -0.051981
     9  H   -0.027606
    10  H   -0.002185
    11  H   -0.000183
    12  H    0.000088
 Sum of Mulliken charges =  -0.00000

 Dipole moment (field-independent basis, Debye):
    X=             -0.0000    Y=             -0.0000    Z=             -0.0000  Tot=              0.0000
 Quadrupole moment (field-independent basis, Debye-Ang):
   XX=            -20.1738   YY=            -17.9458   ZZ=            -15.4488
   XY=             -0.1222   XZ=             -0.0000   YZ=             -0.0000

 Normal termination of Gaussian 09 at Fri Feb 17 14:03:07 2017.
