 Gaussian 09, Revision E.01,
 Gaussian 09:  ES64L-G09RevE.01 30-Nov-2015

 ----------------------------------------------------------------------
 #rhf/gen scf(symm,tight,novaracc,noincfock,fulldiag) stable(crhf) gues
 s=read geom=nocrowd test
 ----------------------------------------------------------------------

 ----------------------------------------------------------------------
 hf stability analysis of h10 triangular lattice, y= 1.1387493349689228
 ----------------------------------------------------------------------
 Symbolic Z-matrix:
 Charge =  0 Multiplicity = 1

                         Standard orientation:
 ---------------------------------------------------------------------
 Center     Atomic      Atomic             Coordinates (Angstroms)
 Number     Number       Type             X           Y           Z
 ---------------------------------------------------------------------
      1          1           0        3.416248    1.014008   -0.000000
      2          1           0        2.277499    1.521012   -0.000000
      3          1           0        2.277499    0.507004   -0.000000
      4          1           0        1.138749    1.014008   -0.000000
      5          1           0        1.138749    0.000000    0.000000
      6          1           0        0.000000    0.507004   -0.000000
      7          1           0       -0.000000   -0.507004   -0.000000
      8          1           0       -1.138749    0.000000   -0.000000
      9          1           0       -1.138749   -1.014008   -0.000000
     10          1           0       -2.277499   -0.507004   -0.000000
     11          1           0       -2.277499   -1.521012   -0.000000
     12          1           0       -3.416248   -1.014008   -0.000000
 ---------------------------------------------------------------------

 SCF Done:  E(RHF) =  -5.39945534781     A.U. after   10 cycles
 E2 =    -0.2444416812D-01 EUMP2 =    -0.54238995159259D+01

 The electronic state is 1-AG.
 Alpha  occ. eigenvalues --   -0.84137  -0.77241  -0.63367  -0.46856  -0.29285
 Alpha  occ. eigenvalues --   -0.06722
 Alpha virt. eigenvalues --   -0.09791   0.02611   0.24317   0.24442   0.45978
 Alpha virt. eigenvalues --    0.60433

 Mulliken charges:
               1
     1  H   -0.038079
     2  H   -0.078134
     3  H    0.126214
     4  H    0.129439
     5  H   -0.110142
     6  H   -0.029299
     7  H   -0.029299
     8  H   -0.110142
     9  H    0.129439
    10  H    0.126214
    11  H   -0.078134
    12  H   -0.038079
 Sum of Mulliken charges =  -0.00000

 Dipole moment (field-independent basis, Debye):
    X=              0.0000    Y=             -0.0000    Z=             -0.0000  Tot=              0.0000
 Quadrupole moment (field-independent basis, Debye-Ang):
   XX=            -20.3538   YY=            -18.0473   ZZ=            -15.3799
   XY=             -0.4976   XZ=             -0.0000   YZ=              0.0000

 Normal termination of Gaussian 09 at Fri Feb 17 13:59:48 2017.
