 Gaussian 09, Revision E.01,
 Gaussian 09:  ES64L-G09RevE.01 30-Nov-2015

 ----------------------------------------------------------------------
 #rhf/gen scf(symm,tight,novaracc,noincfock,fulldiag) stable(crhf) gues
 s=read geom=nocrowd test
 ----------------------------------------------------------------------

 hf stability analysis of h10 triangular lattice, y= 0.2848531043101661
 9
 ----------------------------------------------------------------------
 Symbolic Z-matrix:
 Charge =  0 Multiplicity = 1

                         Standard orientation:
 ---------------------------------------------------------------------
 Center     Atomic      Atomic             Coordinates (Angstroms)
 Number     Number       Type             X           Y           Z
 ---------------------------------------------------------------------
      1          1           0        4.053670    0.854559   -0.000000
      2          1           0        6.080505    0.569706   -0.000000
      3          1           0        2.026835    0.569706   -0.000000
      4          1           0        4.053670    0.284853   -0.000000
      5          1           0        0.000000    0.284853    0.000000
      6          1           0        2.026835    0.000000   -0.000000
      7          1           0       -2.026835    0.000000    0.000000
      8          1           0       -0.000000   -0.284853   -0.000000
      9          1           0       -4.053670   -0.284853    0.000000
     10          1           0       -2.026835   -0.569706    0.000000
     11          1           0       -6.080505   -0.569706    0.000000
     12          1           0       -4.053670   -0.854559    0.000000
 ---------------------------------------------------------------------

 SCF Done:  E(RHF) =  -4.29827914361     A.U. after    9 cycles
 E2 =    -0.6803360257D+00 EUMP2 =    -0.49786151692623D+01

 The electronic state is 1-AG.
 Alpha  occ. eigenvalues --   -0.73043  -0.72039  -0.67205  -0.65653  -0.19682
 Alpha  occ. eigenvalues --    0.06875
 Alpha virt. eigenvalues --   -0.30853  -0.15321   0.44597   0.49142   0.61109
 Alpha virt. eigenvalues --    0.64973

 Mulliken charges:
               1
     1  H    0.001004
     2  H   -0.002279
     3  H   -0.021619
     4  H   -0.002401
     5  H    0.080307
     6  H   -0.055013
     7  H   -0.055013
     8  H    0.080307
     9  H   -0.002401
    10  H   -0.021619
    11  H   -0.002279
    12  H    0.001004
 Sum of Mulliken charges =  -0.00000

 Dipole moment (field-independent basis, Debye):
    X=             -0.0000    Y=              0.0000    Z=              0.0000  Tot=              0.0000
 Quadrupole moment (field-independent basis, Debye-Ang):
   XX=            -20.1024   YY=            -17.9595   ZZ=            -15.5457
   XY=              0.0434   XZ=              0.0000   YZ=             -0.0000

 Normal termination of Gaussian 09 at Fri Feb 17 13:48:10 2017.
