 Gaussian 09, Revision E.01,
 Gaussian 09:  ES64L-G09RevE.01 30-Nov-2015

 ----------------------------------------------------------------------
 #rhf/gen scf(symm,tight,novaracc,noincfock,fulldiag) stable(crhf) gues
 s=read geom=nocrowd test
 ----------------------------------------------------------------------

 hf stability analysis of h10 triangular lattice, y= 0.3794068973118231
 4
 ----------------------------------------------------------------------
 Symbolic Z-matrix:
 Charge =  0 Multiplicity = 1

                         Standard orientation:
 ---------------------------------------------------------------------
 Center     Atomic      Atomic             Coordinates (Angstroms)
 Number     Number       Type             X           Y           Z
 ---------------------------------------------------------------------
      1          1           0        3.043436    1.138221   -0.000000
      2          1           0        4.565154    0.758814   -0.000000
      3          1           0        1.521718    0.758814   -0.000000
      4          1           0        3.043436    0.379407   -0.000000
      5          1           0        0.000000    0.379407    0.000000
      6          1           0        1.521718    0.000000   -0.000000
      7          1           0       -1.521718    0.000000    0.000000
      8          1           0       -0.000000   -0.379407    0.000000
      9          1           0       -3.043436   -0.379407    0.000000
     10          1           0       -1.521718   -0.758814    0.000000
     11          1           0       -4.565154   -0.758814    0.000000
     12          1           0       -3.043436   -1.138221    0.000000
 ---------------------------------------------------------------------

 SCF Done:  E(RHF) =  -5.16279892855     A.U. after    9 cycles
 E2 =    -0.7276007267D+00 EUMP2 =    -0.58903996552780D+01

 The electronic state is 1-AG.
 Alpha  occ. eigenvalues --   -0.78463  -0.73605  -0.65067  -0.54638  -0.16259
 Alpha  occ. eigenvalues --   -0.10316
 Alpha virt. eigenvalues --   -0.19161  -0.07991   0.21155   0.34371   0.49942
 Alpha virt. eigenvalues --    0.62242

 Mulliken charges:
               1
     1  H    0.019900
     2  H   -0.037376
     3  H    0.036942
     4  H    0.010903
     5  H    0.030078
     6  H   -0.060447
     7  H   -0.060447
     8  H    0.030078
     9  H    0.010903
    10  H    0.036942
    11  H   -0.037376
    12  H    0.019900
 Sum of Mulliken charges =   0.00000

 Dipole moment (field-independent basis, Debye):
    X=              0.0000    Y=              0.0000    Z=              0.0000  Tot=              0.0000
 Quadrupole moment (field-independent basis, Debye-Ang):
   XX=            -22.5194   YY=            -17.2426   ZZ=            -15.6743
   XY=              0.6309   XZ=              0.0000   YZ=             -0.0000

 Normal termination of Gaussian 09 at Fri Feb 17 13:49:15 2017.
