 Gaussian 09, Revision E.01,
 Gaussian 09:  ES64L-G09RevE.01 30-Nov-2015

 ----------------------------------------------------------------------
 #rhf/gen scf(symm,tight,novaracc,noincfock,fulldiag) stable(crhf) gues
 s=read geom=nocrowd test
 ----------------------------------------------------------------------

 hf stability analysis of h10 triangular lattice, y= 0.6960275979088506
 0
 ----------------------------------------------------------------------
 Symbolic Z-matrix:
 Charge =  0 Multiplicity = 1

                         Standard orientation:
 ---------------------------------------------------------------------
 Center     Atomic      Atomic             Coordinates (Angstroms)
 Number     Number       Type             X           Y           Z
 ---------------------------------------------------------------------
      1          1           0        1.658987    2.088083    0.000000
      2          1           0        2.488480    1.392055   -0.000000
      3          1           0        0.829493    1.392055    0.000000
      4          1           0        1.658987    0.696028   -0.000000
      5          1           0        0.000000    0.696028    0.000000
      6          1           0        0.829493    0.000000   -0.000000
      7          1           0       -0.829493    0.000000   -0.000000
      8          1           0       -0.000000   -0.696028    0.000000
      9          1           0       -1.658987   -0.696028   -0.000000
     10          1           0       -0.829493   -1.392055   -0.000000
     11          1           0       -2.488480   -1.392055   -0.000000
     12          1           0       -1.658987   -2.088083   -0.000000
 ---------------------------------------------------------------------

 SCF Done:  E(RHF) =  -5.52240422830     A.U. after    8 cycles
 E2 =    -0.1011095544D+00 EUMP2 =    -0.56235137826812D+01

 The electronic state is 1-AG.
 Alpha  occ. eigenvalues --   -0.88047  -0.80128  -0.63426  -0.43219  -0.41334
 Alpha  occ. eigenvalues --   -0.12969
 Alpha virt. eigenvalues --   -0.15896   0.04548   0.29915   0.40375   0.60183
 Alpha virt. eigenvalues --    0.90442

 Mulliken charges:
               1
     1  H   -0.090454
     2  H   -0.011614
     3  H    0.158630
     4  H    0.128009
     5  H   -0.104879
     6  H   -0.079693
     7  H   -0.079693
     8  H   -0.104879
     9  H    0.128009
    10  H    0.158630
    11  H   -0.011614
    12  H   -0.090454
 Sum of Mulliken charges =  -0.00000

 Dipole moment (field-independent basis, Debye):
    X=              0.0000    Y=             -0.0000    Z=             -0.0000  Tot=              0.0000
 Quadrupole moment (field-independent basis, Debye-Ang):
   XX=            -17.6522   YY=            -19.4291   ZZ=            -15.2341
   XY=             -0.1081   XZ=             -0.0000   YZ=             -0.0000

 Normal termination of Gaussian 09 at Fri Feb 17 13:54:34 2017.
