 Gaussian 09, Revision E.01,
 Gaussian 09:  ES64L-G09RevE.01 30-Nov-2015

 ----------------------------------------------------------------------
 #rhf/gen scf(symm,tight,novaracc,noincfock,fulldiag) stable(crhf) gues
 s=read geom=nocrowd test
 ----------------------------------------------------------------------

 hf stability analysis of h10 triangular lattice, y= 0.7210052279144877
 3
 ----------------------------------------------------------------------
 Symbolic Z-matrix:
 Charge =  0 Multiplicity = 1

                         Standard orientation:
 ---------------------------------------------------------------------
 Center     Atomic      Atomic             Coordinates (Angstroms)
 Number     Number       Type             X           Y           Z
 ---------------------------------------------------------------------
      1          1           0        1.601515    2.163016    0.000000
      2          1           0        2.402272    1.442010   -0.000000
      3          1           0        0.800757    1.442010    0.000000
      4          1           0        1.601515    0.721005   -0.000000
      5          1           0        0.000000    0.721005    0.000000
      6          1           0        0.800757    0.000000   -0.000000
      7          1           0       -0.800757    0.000000   -0.000000
      8          1           0       -0.000000   -0.721005   -0.000000
      9          1           0       -1.601515   -0.721005   -0.000000
     10          1           0       -0.800757   -1.442010   -0.000000
     11          1           0       -2.402272   -1.442010   -0.000000
     12          1           0       -1.601515   -2.163016   -0.000000
 ---------------------------------------------------------------------

 SCF Done:  E(RHF) =  -5.52580285022     A.U. after    8 cycles
 E2 =    -0.1002263562D+00 EUMP2 =    -0.56260292064699D+01

 The electronic state is 1-AG.
 Alpha  occ. eigenvalues --   -0.88266  -0.80278  -0.63458  -0.43584  -0.41252
 Alpha  occ. eigenvalues --   -0.13420
 Alpha virt. eigenvalues --   -0.16331   0.04839   0.29744   0.41393   0.60198
 Alpha virt. eigenvalues --    0.93642

 Mulliken charges:
               1
     1  H   -0.076161
     2  H   -0.028918
     3  H    0.155060
     4  H    0.135802
     5  H   -0.100691
     6  H   -0.085092
     7  H   -0.085092
     8  H   -0.100691
     9  H    0.135802
    10  H    0.155060
    11  H   -0.028918
    12  H   -0.076161
 Sum of Mulliken charges =  -0.00000

 Dipole moment (field-independent basis, Debye):
    X=             -0.0000    Y=              0.0000    Z=             -0.0000  Tot=              0.0000
 Quadrupole moment (field-independent basis, Debye-Ang):
   XX=            -18.2015   YY=            -19.2202   ZZ=            -15.2257
   XY=             -0.2180   XZ=             -0.0000   YZ=             -0.0000

 Normal termination of Gaussian 09 at Fri Feb 17 13:54:58 2017.
