 Gaussian 09, Revision E.01,
 Gaussian 09:  ES64L-G09RevE.01 30-Nov-2015

 ----------------------------------------------------------------------
 #rhf/gen scf(symm,tight,novaracc,noincfock,fulldiag) stable(crhf) gues
 s=read geom=nocrowd test
 ----------------------------------------------------------------------

 hf stability analysis of h10 triangular lattice, y= 0.7466864790071482
 4
 ----------------------------------------------------------------------
 Symbolic Z-matrix:
 Charge =  0 Multiplicity = 1

                         Standard orientation:
 ---------------------------------------------------------------------
 Center     Atomic      Atomic             Coordinates (Angstroms)
 Number     Number       Type             X           Y           Z
 ---------------------------------------------------------------------
      1          1           0        1.546433    2.240059   -0.000000
      2          1           0        2.319649    1.493373   -0.000000
      3          1           0        0.773216    1.493373   -0.000000
      4          1           0        1.546433    0.746686   -0.000000
      5          1           0        0.000000    0.746686   -0.000000
      6          1           0        0.773216    0.000000   -0.000000
      7          1           0       -0.773216    0.000000    0.000000
      8          1           0       -0.000000   -0.746686   -0.000000
      9          1           0       -1.546433   -0.746686    0.000000
     10          1           0       -0.773216   -1.493373   -0.000000
     11          1           0       -2.319649   -1.493373    0.000000
     12          1           0       -1.546433   -2.240059   -0.000000
 ---------------------------------------------------------------------

 SCF Done:  E(RHF) =  -5.52738330192     A.U. after    8 cycles
 E2 =    -0.9975720109D-01 EUMP2 =    -0.56271405030105D+01

 The electronic state is 1-AG.
 Alpha  occ. eigenvalues --   -0.88376  -0.80353  -0.63473  -0.43790  -0.41184
 Alpha  occ. eigenvalues --   -0.13649
 Alpha virt. eigenvalues --   -0.16550   0.04986   0.29658   0.41905   0.60215
 Alpha virt. eigenvalues --    0.95308

 Mulliken charges:
               1
     1  H   -0.061221
     2  H   -0.045486
     3  H    0.149861
     4  H    0.143292
     5  H   -0.095864
     6  H   -0.090582
     7  H   -0.090582
     8  H   -0.095864
     9  H    0.143292
    10  H    0.149861
    11  H   -0.045486
    12  H   -0.061221
 Sum of Mulliken charges =  -0.00000

 Dipole moment (field-independent basis, Debye):
    X=              0.0000    Y=              0.0000    Z=             -0.0000  Tot=              0.0000
 Quadrupole moment (field-independent basis, Debye-Ang):
   XX=            -18.6304   YY=            -18.9618   ZZ=            -15.2214
   XY=             -0.2756   XZ=              0.0000   YZ=              0.0000

 Normal termination of Gaussian 09 at Fri Feb 17 13:55:25 2017.
