 Gaussian 09, Revision E.01,
 Gaussian 09:  ES64L-G09RevE.01 30-Nov-2015

 ----------------------------------------------------------------------
 #rhf/gen scf(symm,tight,novaracc,noincfock,fulldiag) stable(crhf) gues
 s=read geom=nocrowd test
 ----------------------------------------------------------------------

 ----------------------------------------------------------------------
 hf stability analysis of h10 triangular lattice, y= 1.4189643903365978
 ----------------------------------------------------------------------
 Symbolic Z-matrix:
 Charge =  0 Multiplicity = 1

                         Standard orientation:
 ---------------------------------------------------------------------
 Center     Atomic      Atomic             Coordinates (Angstroms)
 Number     Number       Type             X           Y           Z
 ---------------------------------------------------------------------
      1          1           0        4.256893    0.813763   -0.000000
      2          1           0        2.837929    1.220644   -0.000000
      3          1           0        2.837929    0.406881   -0.000000
      4          1           0        1.418964    0.813763   -0.000000
      5          1           0        1.418964    0.000000   -0.000000
      6          1           0        0.000000    0.406881    0.000000
      7          1           0       -0.000000   -0.406881    0.000000
      8          1           0       -1.418964    0.000000   -0.000000
      9          1           0       -1.418964   -0.813763   -0.000000
     10          1           0       -2.837929   -0.406881   -0.000000
     11          1           0       -2.837929   -1.220644   -0.000000
     12          1           0       -4.256893   -0.813763   -0.000000
 ---------------------------------------------------------------------

 SCF Done:  E(RHF) =  -5.27774250771     A.U. after    8 cycles
 E2 =    -0.8184040385D-01 EUMP2 =    -0.53595829115616D+01

 The electronic state is 1-AG.
 Alpha  occ. eigenvalues --   -0.80099  -0.74400  -0.64728  -0.52412  -0.15799
 Alpha  occ. eigenvalues --   -0.13721
 Alpha virt. eigenvalues --   -0.16150  -0.02788   0.16551   0.31125   0.47946
 Alpha virt. eigenvalues --    0.61859

 Mulliken charges:
               1
     1  H   -0.052935
     2  H    0.022052
     3  H    0.023572
     4  H    0.052213
     5  H   -0.073143
     6  H    0.028241
     7  H    0.028241
     8  H   -0.073143
     9  H    0.052213
    10  H    0.023572
    11  H    0.022052
    12  H   -0.052935
 Sum of Mulliken charges =  -0.00000

 Dipole moment (field-independent basis, Debye):
    X=             -0.0000    Y=             -0.0000    Z=              0.0000  Tot=              0.0000
 Quadrupole moment (field-independent basis, Debye-Ang):
   XX=            -23.9563   YY=            -16.9253   ZZ=            -15.6068
   XY=              0.4212   XZ=             -0.0000   YZ=              0.0000

 Normal termination of Gaussian 09 at Fri Feb 17 14:01:25 2017.
