 Gaussian 09, Revision E.01,
 Gaussian 09:  ES64L-G09RevE.01 30-Nov-2015

 ----------------------------------------------------------------------
 #rhf/gen scf(symm,tight,novaracc,noincfock,fulldiag) stable(crhf) gues
 s=read geom=nocrowd test
 ----------------------------------------------------------------------

 ----------------------------------------------------------------------
 hf stability analysis of h10 triangular lattice, y= 1.5813852119866876
 ----------------------------------------------------------------------
 Symbolic Z-matrix:
 Charge =  0 Multiplicity = 1

                         Standard orientation:
 ---------------------------------------------------------------------
 Center     Atomic      Atomic             Coordinates (Angstroms)
 Number     Number       Type             X           Y           Z
 ---------------------------------------------------------------------
      1          1           0        4.744156    0.730183   -0.000000
      2          1           0        3.162770    1.095275    0.000000
      3          1           0        3.162770    0.365092   -0.000000
      4          1           0        1.581385    0.730183    0.000000
      5          1           0        1.581385    0.000000   -0.000000
      6          1           0        0.000000    0.365092    0.000000
      7          1           0       -0.000000   -0.365092    0.000000
      8          1           0       -1.581385    0.000000   -0.000000
      9          1           0       -1.581385   -0.730183   -0.000000
     10          1           0       -3.162770   -0.365092   -0.000000
     11          1           0       -3.162770   -1.095275   -0.000000
     12          1           0       -4.744156   -0.730183   -0.000000
 ---------------------------------------------------------------------

 SCF Done:  E(RHF) =  -5.08142108568     A.U. after    9 cycles
 E2 =    -0.1193894869D+01 EUMP2 =    -0.62753159547260D+01

 The electronic state is 1-AG.
 Alpha  occ. eigenvalues --   -0.77578  -0.73215  -0.65268  -0.55964  -0.17097
 Alpha  occ. eigenvalues --   -0.07642
 Alpha virt. eigenvalues --   -0.21103  -0.10061   0.23866   0.36229   0.51139
 Alpha virt. eigenvalues --    0.62405

 Mulliken charges:
               1
     1  H   -0.029808
     2  H    0.017277
     3  H    0.006292
     4  H    0.029354
     5  H   -0.055426
     6  H    0.032311
     7  H    0.032311
     8  H   -0.055426
     9  H    0.029354
    10  H    0.006292
    11  H    0.017277
    12  H   -0.029808
 Sum of Mulliken charges =  -0.00000

 Dipole moment (field-independent basis, Debye):
    X=              0.0000    Y=             -0.0000    Z=              0.0000  Tot=              0.0000
 Quadrupole moment (field-independent basis, Debye-Ang):
   XX=            -21.7273   YY=            -17.4186   ZZ=            -15.7016
   XY=              0.6792   XZ=              0.0000   YZ=             -0.0000

 Normal termination of Gaussian 09 at Fri Feb 17 14:02:00 2017.
