 Gaussian 09, Revision E.01,
 Gaussian 09:  ES64L-G09RevE.01 30-Nov-2015

 ----------------------------------------------------------------------
 #rhf/gen scf(symm,tight,novaracc,noincfock,fulldiag) stable(crhf) gues
 s=read geom=nocrowd test
 ----------------------------------------------------------------------

 hf stability analysis of h10 triangular lattice, y= 0.6240414150047446
 4
 ----------------------------------------------------------------------
 Symbolic Z-matrix:
 Charge =  0 Multiplicity = 1

                         Standard orientation:
 ---------------------------------------------------------------------
 Center     Atomic      Atomic             Coordinates (Angstroms)
 Number     Number       Type             X           Y           Z
 ---------------------------------------------------------------------
      1          1           0        1.850359    1.872124    0.000000
      2          1           0        2.775538    1.248083    0.000000
      3          1           0        0.925179    1.248083    0.000000
      4          1           0        1.850359    0.624041    0.000000
      5          1           0        0.000000    0.624041    0.000000
      6          1           0        0.925179    0.000000   -0.000000
      7          1           0       -0.925179    0.000000   -0.000000
      8          1           0       -0.000000   -0.624041    0.000000
      9          1           0       -1.850359   -0.624041   -0.000000
     10          1           0       -0.925179   -1.248083   -0.000000
     11          1           0       -2.775538   -1.248083   -0.000000
     12          1           0       -1.850359   -1.872124   -0.000000
 ---------------------------------------------------------------------

 SCF Done:  E(RHF) =  -5.49578259263     A.U. after    8 cycles
 E2 =    -0.1058361650D+00 EUMP2 =    -0.56016187576083D+01

 The electronic state is 1-AG.
 Alpha  occ. eigenvalues --   -0.86757  -0.79276  -0.63200  -0.43266  -0.39408
 Alpha  occ. eigenvalues --   -0.10413
 Alpha virt. eigenvalues --   -0.13397   0.02881   0.30835   0.34557   0.60383
 Alpha virt. eigenvalues --    0.74240

 Mulliken charges:
               1
     1  H   -0.132007
     2  H    0.040814
     3  H    0.159779
     4  H    0.111530
     5  H   -0.112447
     6  H   -0.067669
     7  H   -0.067669
     8  H   -0.112447
     9  H    0.111530
    10  H    0.159779
    11  H    0.040814
    12  H   -0.132007
 Sum of Mulliken charges =  -0.00000

 Dipole moment (field-independent basis, Debye):
    X=              0.0000    Y=              0.0000    Z=             -0.0000  Tot=              0.0000
 Quadrupole moment (field-independent basis, Debye-Ang):
   XX=            -15.1722   YY=            -19.9453   ZZ=            -15.2836
   XY=              0.3846   XZ=              0.0000   YZ=             -0.0000

 Normal termination of Gaussian 09 at Fri Feb 17 13:53:19 2017.
