 Gaussian 09, Revision E.01,
 Gaussian 09:  ES64L-G09RevE.01 30-Nov-2015

 ----------------------------------------------------------------------
 #rhf/gen scf(symm,tight,novaracc,noincfock,fulldiag) stable(crhf) gues
 s=read geom=nocrowd test
 ----------------------------------------------------------------------

 hf stability analysis of h10 triangular lattice, y= 0.7210052279144877
 3
 ----------------------------------------------------------------------
 Symbolic Z-matrix:
 Charge =  0 Multiplicity = 1

                         Standard orientation:
 ---------------------------------------------------------------------
 Center     Atomic      Atomic             Coordinates (Angstroms)
 Number     Number       Type             X           Y           Z
 ---------------------------------------------------------------------
      1          1           0        2.143245    0.313499   -0.000000
      2          1           0        2.143245   -0.764027   -0.000000
      3          1           0        1.071623    0.426131   -0.000000
      4          1           0        1.071623   -0.651395   -0.000000
      5          1           0       -0.000000    0.538763   -0.000000
      6          1           0       -0.000000   -0.538763   -0.000000
      7          1           0       -1.071623    0.651395    0.000000
      8          1           0       -1.071623   -0.426131    0.000000
      9          1           0       -2.143245    0.764027    0.000000
     10          1           0       -2.143245   -0.313499    0.000000
 ---------------------------------------------------------------------

 SCF Done:  E(RHF) =  -4.88165414279     A.U. after    9 cycles
 E2 =    -0.1052888908D+00 EUMP2 =    -0.49869430335872D+01

 The electronic state is 1-AG.
 Alpha  occ. eigenvalues --   -0.87641  -0.74455  -0.52690  -0.46582  -0.30930
 Alpha virt. eigenvalues --   -0.01624   0.15717   0.36070   0.51656   0.88635

 Mulliken charges:
               1
     1  H    0.007467
     2  H    0.072634
     3  H   -0.034492
     4  H   -0.032245
     5  H   -0.013364
     6  H   -0.013364
     7  H   -0.032245
     8  H   -0.034492
     9  H    0.072634
    10  H    0.007467
 Sum of Mulliken charges =  -0.00000

 Dipole moment (field-independent basis, Debye):
    X=             -0.0000    Y=             -0.0000    Z=              0.0000  Tot=              0.0000
 Quadrupole moment (field-independent basis, Debye-Ang):
   XX=            -10.1486   YY=            -17.1786   ZZ=            -12.9561
   XY=             -1.5397   XZ=             -0.0000   YZ=              0.0000

 Normal termination of Gaussian 09 at Mon Feb 13 14:57:31 2017.
