 Gaussian 09, Revision E.01,
 Gaussian 09:  ES64L-G09RevE.01 30-Nov-2015

 ----------------------------------------------------------------------
 #rhf/gen scf(symm,tight,novaracc,noincfock,fulldiag) stable(crhf) gues
 s=read geom=nocrowd test
 ----------------------------------------------------------------------

 hf stability analysis of h10 triangular lattice, y= 0.8753112166669652
 1
 ----------------------------------------------------------------------
 Symbolic Z-matrix:
 Charge =  0 Multiplicity = 1

                         Standard orientation:
 ---------------------------------------------------------------------
 Center     Atomic      Atomic             Coordinates (Angstroms)
 Number     Number       Type             X           Y           Z
 ---------------------------------------------------------------------
      1          1           0        2.107102    1.152206   -0.000000
      2          1           0        2.107102    0.056198   -0.000000
      3          1           0        1.053551    0.850105   -0.000000
      4          1           0        1.053551   -0.245903   -0.000000
      5          1           0        0.000000    0.548004    0.000000
      6          1           0       -0.000000   -0.548004    0.000000
      7          1           0       -1.053551    0.245903   -0.000000
      8          1           0       -1.053551   -0.850105   -0.000000
      9          1           0       -2.107102   -0.056198   -0.000000
     10          1           0       -2.107102   -1.152206   -0.000000
 ---------------------------------------------------------------------

 SCF Done:  E(RHF) =  -4.84944513070     A.U. after    9 cycles
 E2 =    -0.1074396443D+00 EUMP2 =    -0.49568847749744D+01

 The electronic state is 1-AG.
 Alpha  occ. eigenvalues --   -0.86860  -0.73990  -0.52974  -0.44782  -0.29170
 Alpha virt. eigenvalues --   -0.03364   0.17839   0.32054   0.53394   0.78961

 Mulliken charges:
               1
     1  H    0.120770
     2  H   -0.046813
     3  H   -0.025900
     4  H   -0.041024
     5  H   -0.007033
     6  H   -0.007033
     7  H   -0.041024
     8  H   -0.025900
     9  H   -0.046813
    10  H    0.120770
 Sum of Mulliken charges =  -0.00000

 Dipole moment (field-independent basis, Debye):
    X=              0.0000    Y=              0.0000    Z=             -0.0000  Tot=              0.0000
 Quadrupole moment (field-independent basis, Debye-Ang):
   XX=            -10.7017   YY=            -15.7699   ZZ=            -12.9665
   XY=              3.9770   XZ=             -0.0000   YZ=             -0.0000

 Normal termination of Gaussian 09 at Mon Feb 13 14:58:32 2017.
