 Gaussian 09, Revision E.01,
 Gaussian 09:  ES64L-G09RevE.01 30-Nov-2015

 ----------------------------------------------------------------------
 #rhf/gen scf(symm,tight,novaracc,noincfock,fulldiag) stable(crhf) gues
 s=read geom=nocrowd test
 ----------------------------------------------------------------------

 hf stability analysis of h10 triangular lattice, y= 0.5423787099077283
 0
 ----------------------------------------------------------------------
 Symbolic Z-matrix:
 Charge =  0 Multiplicity = 1

                         Standard orientation:
 ---------------------------------------------------------------------
 Center     Atomic      Atomic             Coordinates (Angstroms)
 Number     Number       Type             X           Y           Z
 ---------------------------------------------------------------------
      1          1           0        1.933052   -0.807098    0.000000
      2          1           0        1.933052   -2.001790    0.000000
      3          1           0        0.966526   -0.104876   -0.000000
      4          1           0        0.966526   -1.299568    0.000000
      5          1           0        0.000000    0.597346   -0.000000
      6          1           0       -0.000000   -0.597346   -0.000000
      7          1           0       -0.966526    1.299568    0.000000
      8          1           0       -0.966526    0.104876   -0.000000
      9          1           0       -1.933052    2.001790    0.000000
     10          1           0       -1.933052    0.807098    0.000000
 ---------------------------------------------------------------------

 SCF Done:  E(RHF) =  -4.67719612725     A.U. after   12 cycles
 E2 =    -0.1240741070D+00 EUMP2 =    -0.48012702342553D+01

 The electronic state is 1-AG.
 Alpha  occ. eigenvalues --   -0.84703  -0.72686  -0.54563  -0.36560  -0.21645
 Alpha virt. eigenvalues --   -0.07578   0.19627   0.23661   0.46108   0.55776

 Mulliken charges:
               1
     1  H   -0.061777
     2  H    0.054858
     3  H   -0.161667
     4  H    0.051499
     5  H    0.117088
     6  H    0.117088
     7  H    0.051499
     8  H   -0.161667
     9  H    0.054858
    10  H   -0.061777
 Sum of Mulliken charges =   0.00000

 Dipole moment (field-independent basis, Debye):
    X=             -0.0000    Y=             -0.0000    Z=              0.0000  Tot=              0.0000
 Quadrupole moment (field-independent basis, Debye-Ang):
   XX=            -15.3455   YY=            -12.9767   ZZ=            -12.9523
   XY=             -3.1030   XZ=             -0.0000   YZ=             -0.0000

 Normal termination of Gaussian 09 at Mon Feb 13 14:57:52 2017.
