 Gaussian 09, Revision E.01,
 Gaussian 09:  ES64L-G09RevE.01 30-Nov-2015

 ----------------------------------------------------------------------
 #rhf/gen scf(symm,tight,novaracc,noincfock,fulldiag) stable(crhf) gues
 s=read geom=nocrowd test
 ----------------------------------------------------------------------

 ----------------------------------------------------------------------
 hf stability analysis of h10 triangular lattice, y= 1.0879998015825072
 ----------------------------------------------------------------------
 Symbolic Z-matrix:
 Charge =  0 Multiplicity = 1

                         Standard orientation:
 ---------------------------------------------------------------------
 Center     Atomic      Atomic             Coordinates (Angstroms)
 Number     Number       Type             X           Y           Z
 ---------------------------------------------------------------------
      1          1           0        1.907791    2.095785    0.000000
      2          1           0        1.907791    0.885274    0.000000
      3          1           0        0.953895    1.350520    0.000000
      4          1           0        0.953895    0.140009    0.000000
      5          1           0        0.000000    0.605255    0.000000
      6          1           0       -0.000000   -0.605255    0.000000
      7          1           0       -0.953895   -0.140009    0.000000
      8          1           0       -0.953895   -1.350520    0.000000
      9          1           0       -1.907791   -0.885274    0.000000
     10          1           0       -1.907791   -2.095785    0.000000
 ---------------------------------------------------------------------

 SCF Done:  E(RHF) =  -4.65800038263     A.U. after   12 cycles
 E2 =    -0.1268484749D+00 EUMP2 =    -0.47848488575536D+01

 The electronic state is 1-AG.
 Alpha  occ. eigenvalues --   -0.85021  -0.72981  -0.55134  -0.35601  -0.20539
 Alpha virt. eigenvalues --   -0.07564   0.18671   0.23577   0.42435   0.55009

 Mulliken charges:
               1
     1  H   -0.015126
     2  H   -0.020789
     3  H    0.068485
     4  H   -0.189852
     5  H    0.157282
     6  H    0.157282
     7  H   -0.189852
     8  H    0.068485
     9  H   -0.020789
    10  H   -0.015126
 Sum of Mulliken charges =   0.00000

 Dipole moment (field-independent basis, Debye):
    X=             -0.0000    Y=             -0.0000    Z=             -0.0000  Tot=              0.0000
 Quadrupole moment (field-independent basis, Debye-Ang):
   XX=            -16.5384   YY=            -14.9510   ZZ=            -12.9238
   XY=              0.5616   XZ=             -0.0000   YZ=              0.0000

 Normal termination of Gaussian 09 at Mon Feb 13 14:58:48 2017.
