 Gaussian 09, Revision E.01,
 Gaussian 09:  ES64L-G09RevE.01 30-Nov-2015

 ----------------------------------------------------------------------
 #rhf/gen scf(symm,tight,novaracc,noincfock,fulldiag) stable(crhf) gues
 s=read geom=nocrowd test
 ----------------------------------------------------------------------

 hf stability analysis of h10 triangular lattice, y= 0.6837609579800398
 9
 ----------------------------------------------------------------------
 Symbolic Z-matrix:
 Charge =  0 Multiplicity = 1

                         Standard orientation:
 ---------------------------------------------------------------------
 Center     Atomic      Atomic             Coordinates (Angstroms)
 Number     Number       Type             X           Y           Z
 ---------------------------------------------------------------------
      1          1           0        2.125528    0.091458    0.000000
      2          1           0        2.125528   -0.995048    0.000000
      3          1           0        1.062764    0.317356    0.000000
      4          1           0        1.062764   -0.769151    0.000000
      5          1           0       -0.000000    0.543253    0.000000
      6          1           0       -0.000000   -0.543253    0.000000
      7          1           0       -1.062764    0.769151    0.000000
      8          1           0       -1.062764   -0.317356    0.000000
      9          1           0       -2.125528    0.995048    0.000000
     10          1           0       -2.125528   -0.091458    0.000000
 ---------------------------------------------------------------------

 SCF Done:  E(RHF) =  -4.86617912344     A.U. after    9 cycles
 E2 =    -0.1063001497D+00 EUMP2 =    -0.49724792731687D+01

 The electronic state is 1-AG.
 Alpha  occ. eigenvalues --   -0.87254  -0.74226  -0.52836  -0.45699  -0.30058
 Alpha virt. eigenvalues --   -0.02532   0.16813   0.33985   0.52604   0.83695

 Mulliken charges:
               1
     1  H   -0.025461
     2  H    0.102742
     3  H   -0.037210
     4  H   -0.029504
     5  H   -0.010566
     6  H   -0.010566
     7  H   -0.029504
     8  H   -0.037210
     9  H    0.102742
    10  H   -0.025461
 Sum of Mulliken charges =   0.00000

 Dipole moment (field-independent basis, Debye):
    X=              0.0000    Y=             -0.0000    Z=              0.0000  Tot=              0.0000
 Quadrupole moment (field-independent basis, Debye-Ang):
   XX=            -10.4115   YY=            -16.4865   ZZ=            -12.9614
   XY=             -3.0359   XZ=              0.0000   YZ=              0.0000

 Normal termination of Gaussian 09 at Mon Feb 13 14:57:35 2017.
