 Gaussian 09, Revision E.01,
 Gaussian 09:  ES64L-G09RevE.01 30-Nov-2015

 ----------------------------------------------------------------------
 #rhf/gen scf(symm,tight,novaracc,noincfock,fulldiag) stable(crhf) gues
 s=read geom=nocrowd test
 ----------------------------------------------------------------------

 hf stability analysis of h10 triangular lattice, y= 0.4950461160480687
 5
 ----------------------------------------------------------------------
 Symbolic Z-matrix:
 Charge =  0 Multiplicity = 1

                         Standard orientation:
 ---------------------------------------------------------------------
 Center     Atomic      Atomic             Coordinates (Angstroms)
 Number     Number       Type             X           Y           Z
 ---------------------------------------------------------------------
      1          1           0        1.822769   -1.126741    0.000000
      2          1           0        1.822769   -2.393715    0.000000
      3          1           0        0.911385   -0.246627    0.000000
      4          1           0        0.911385   -1.513601    0.000000
      5          1           0        0.000000    0.633487    0.000000
      6          1           0       -0.000000   -0.633487    0.000000
      7          1           0       -0.911385    1.513601    0.000000
      8          1           0       -0.911385    0.246627    0.000000
      9          1           0       -1.822769    2.393715    0.000000
     10          1           0       -1.822769    1.126741    0.000000
 ---------------------------------------------------------------------

 SCF Done:  E(RHF) =  -4.64560222983     A.U. after   11 cycles
 E2 =    -0.1411250610D+00 EUMP2 =    -0.47867272908490D+01

 The electronic state is 1-AG.
 Alpha  occ. eigenvalues --   -0.85006  -0.74296  -0.57186  -0.35727  -0.14815
 Alpha virt. eigenvalues --   -0.04466   0.16925   0.19638   0.36436   0.53056

 Mulliken charges:
               1
     1  H    0.031767
     2  H   -0.203298
     3  H   -0.086012
     4  H    0.154939
     5  H    0.102603
     6  H    0.102603
     7  H    0.154939
     8  H   -0.086012
     9  H   -0.203298
    10  H    0.031767
 Sum of Mulliken charges =  -0.00000

 Dipole moment (field-independent basis, Debye):
    X=              0.0000    Y=             -0.0000    Z=             -0.0000  Tot=              0.0000
 Quadrupole moment (field-independent basis, Debye-Ang):
   XX=            -19.2405   YY=            -23.0494   ZZ=            -12.8125
   XY=              7.9826   XZ=              0.0000   YZ=             -0.0000

 Normal termination of Gaussian 09 at Mon Feb 13 14:57:57 2017.
