 Gaussian 09, Revision E.01,
 Gaussian 09:  ES64L-G09RevE.01 30-Nov-2015

 ----------------------------------------------------------------------
 #uhf/gen scf(tight,novaracc,noincfock,fulldiag, ) stable(crhf) guess=r
 ead geom=nocrowd test
 ----------------------------------------------------------------------

 hf stability analysis of h10 triangular lattice, y= 0.7598357022583297
 5 alpha= 45.000000000000000
 ----------------------------------------------------------------------
 Symbolic Z-matrix:
 Charge =  0 Multiplicity = 1

                         Standard orientation:
 ---------------------------------------------------------------------
 Center     Atomic      Atomic             Coordinates (Angstroms)
 Number     Number       Type             X           Y           Z
 ---------------------------------------------------------------------
      1          1           0        0.000000    2.149140    0.537285
      2          1           0        0.000000    2.149140   -0.537285
      3          1           0        0.000000    1.074570    0.537285
      4          1           0        0.000000    1.074570   -0.537285
      5          1           0        0.000000    0.000000    0.537285
      6          1           0        0.000000   -0.000000   -0.537285
      7          1           0       -0.000000   -1.074570    0.537285
      8          1           0       -0.000000   -1.074570   -0.537285
      9          1           0       -0.000000   -2.149140    0.537285
     10          1           0       -0.000000   -2.149140   -0.537285
 ---------------------------------------------------------------------

 SCF Done:  E(UHF) =  -4.96214324306     A.U. after    9 cycles
 E2 =    -0.4890819848D-01 EUMP2 =    -0.50110514415470D+01

 Unable to determine electronic state:  partially filled degenerate orbitals.
 Alpha  occ. eigenvalues --   -0.87371  -0.74995  -0.55767  -0.45667  -0.39062
 Alpha virt. eigenvalues --    0.07174   0.19831   0.37808   0.52700   0.91695
  Beta  occ. eigenvalues --   -0.87371  -0.74995  -0.55767  -0.45667  -0.39062
  Beta virt. eigenvalues --    0.07174   0.19831   0.37808   0.52700   0.91695

 Mulliken charges and spin densities:
               1          2
     1  H    0.028550  -0.596471
     2  H    0.028550   0.596471
     3  H   -0.027838   0.556986
     4  H   -0.027838  -0.556986
     5  H   -0.001424  -0.408315
     6  H   -0.001424   0.408315
     7  H   -0.027838   0.556986
     8  H   -0.027838  -0.556986
     9  H    0.028550  -0.596471
    10  H    0.028550   0.596471
 Sum of Mulliken charges =  -0.00000   0.00000

 Dipole moment (field-independent basis, Debye):
    X=             -0.0000    Y=              0.0000    Z=              0.0000  Tot=              0.0000
 Quadrupole moment (field-independent basis, Debye-Ang):
   XX=            -12.7901   YY=            -12.9486   ZZ=            -15.5773
   XY=             -0.0000   XZ=              0.0000   YZ=             -0.0000

 Normal termination of Gaussian 09 at Tue Feb 28 16:25:32 2017.
