 Gaussian 09, Revision E.01,
 Gaussian 09:  ES64L-G09RevE.01 30-Nov-2015

 ----------------------------------------------------------------------
 #uhf/gen scf(tight,novaracc,noincfock,fulldiag, ) stable(crhf) guess=r
 ead geom=nocrowd test
 ----------------------------------------------------------------------

 hf stability analysis of h10 triangular lattice, y= 1.3635879012585173
  alpha= 72.750000000000000
 ----------------------------------------------------------------------
 Symbolic Z-matrix:
 Charge =  0 Multiplicity = 1

                         Standard orientation:
 ---------------------------------------------------------------------
 Center     Atomic      Atomic             Coordinates (Angstroms)
 Number     Number       Type             X           Y           Z
 ---------------------------------------------------------------------
      1          1           0        1.617442    3.067298    0.000000
      2          1           0        1.617442    1.639487    0.000000
      3          1           0        0.808721    1.890602    0.000000
      4          1           0        0.808721    0.462791    0.000000
      5          1           0        0.000000    0.713905    0.000000
      6          1           0       -0.000000   -0.713905   -0.000000
      7          1           0       -0.808721   -0.462791   -0.000000
      8          1           0       -0.808721   -1.890602   -0.000000
      9          1           0       -1.617442   -1.639487   -0.000000
     10          1           0       -1.617442   -3.067298   -0.000000
 ---------------------------------------------------------------------

 SCF Done:  E(UHF) =  -5.00310954690     A.U. after   25 cycles
 E2 =    -0.5750722758D-01 EUMP2 =    -0.50606167744755D+01

 Unable to determine electronic state:  partially filled degenerate orbitals.
 Alpha  occ. eigenvalues --   -0.77735  -0.70645  -0.59109  -0.44551  -0.31973
 Alpha virt. eigenvalues --    0.13988   0.22513   0.26261   0.43974   0.61728
  Beta  occ. eigenvalues --   -0.77735  -0.70645  -0.59109  -0.44551  -0.31973
  Beta virt. eigenvalues --    0.13988   0.22513   0.26261   0.43974   0.61728

 Mulliken charges and spin densities:
               1          2
     1  H   -0.065855   0.924631
     2  H   -0.020486   0.137780
     3  H    0.065598  -0.084712
     4  H    0.021187  -0.081276
     5  H   -0.000444   0.098286
     6  H   -0.000444  -0.098286
     7  H    0.021187   0.081276
     8  H    0.065598   0.084712
     9  H   -0.020486  -0.137780
    10  H   -0.065855  -0.924631
 Sum of Mulliken charges =   0.00000   0.00000

 Dipole moment (field-independent basis, Debye):
    X=             -0.0000    Y=              0.0000    Z=              0.0000  Tot=              0.0000
 Quadrupole moment (field-independent basis, Debye-Ang):
   XX=            -14.2290   YY=            -21.8495   ZZ=            -12.6175
   XY=             -6.1350   XZ=             -0.0000   YZ=             -0.0000

 Normal termination of Gaussian 09 at Tue Feb 28 16:30:48 2017.
