 Gaussian 09, Revision E.01,
 Gaussian 09:  ES64L-G09RevE.01 30-Nov-2015

 ----------------------------------------------------------------------
 #uhf/gen scf(tight,novaracc,noincfock,fulldiag, ) stable(crhf) guess=r
 ead geom=nocrowd test
 ----------------------------------------------------------------------

 hf stability analysis of h10 triangular lattice, y= 0.4615146431802063
 0 alpha= 20.250000000000000
 ----------------------------------------------------------------------
 Symbolic Z-matrix:
 Charge =  0 Multiplicity = 1

                         Standard orientation:
 ---------------------------------------------------------------------
 Center     Atomic      Atomic             Coordinates (Angstroms)
 Number     Number       Type             X           Y           Z
 ---------------------------------------------------------------------
      1          1           0        1.731956   -1.361157    0.000000
      2          1           0        1.731956   -2.694563    0.000000
      3          1           0        0.865978   -0.347227    0.000000
      4          1           0        0.865978   -1.680633    0.000000
      5          1           0        0.000000    0.666703    0.000000
      6          1           0       -0.000000   -0.666703   -0.000000
      7          1           0       -0.865978    1.680633    0.000000
      8          1           0       -0.865978    0.347227   -0.000000
      9          1           0       -1.731956    2.694563    0.000000
     10          1           0       -1.731956    1.361157    0.000000
 ---------------------------------------------------------------------

 SCF Done:  E(UHF) =  -4.86696088520     A.U. after   18 cycles
 E2 =    -0.3970634490D-01 EUMP2 =    -0.49066672301021D+01

 Unable to determine electronic state:  partially filled degenerate orbitals.
 Alpha  occ. eigenvalues --   -0.80865  -0.71553  -0.59021  -0.41911  -0.30881
 Alpha virt. eigenvalues --    0.11467   0.21459   0.28610   0.38400   0.60333
  Beta  occ. eigenvalues --   -0.80740  -0.72718  -0.58681  -0.43472  -0.27498
  Beta virt. eigenvalues --    0.10391   0.18789   0.24712   0.43379   0.59692

 Mulliken charges and spin densities:
               1          2
     1  H    0.039396   0.338225
     2  H   -0.064539  -0.913966
     3  H    0.011043  -0.592519
     4  H    0.012859  -0.358188
     5  H   -0.035624   0.579917
     6  H    0.031546   0.567116
     7  H    0.103102  -0.337000
     8  H    0.003277  -0.562420
     9  H   -0.078344   0.811630
    10  H   -0.022717   0.467204
 Sum of Mulliken charges =  -0.00000   0.00000

 Dipole moment (field-independent basis, Debye):
    X=              0.2885    Y=             -0.0843    Z=             -0.0000  Tot=              0.3006
 Quadrupole moment (field-independent basis, Debye-Ang):
   XX=            -14.9709   YY=            -19.8366   ZZ=            -12.6325
   XY=              4.6542   XZ=              0.0000   YZ=             -0.0000

 Normal termination of Gaussian 09 at Tue Feb 28 16:20:54 2017.
