 Gaussian 09, Revision E.01,
 Gaussian 09:  ES64L-G09RevE.01 30-Nov-2015

 ----------------------------------------------------------------------
 #uhf/gen scf(tight,novaracc,noincfock,fulldiag, ) stable(crhf) guess=r
 ead geom=nocrowd test
 ----------------------------------------------------------------------

 hf stability analysis of h10 triangular lattice, y= 0.7147002101552084
 6 alpha= 41.500000000000000
 ----------------------------------------------------------------------
 Symbolic Z-matrix:
 Charge =  0 Multiplicity = 1

                         Standard orientation:
 ---------------------------------------------------------------------
 Center     Atomic      Atomic             Coordinates (Angstroms)
 Number     Number       Type             X           Y           Z
 ---------------------------------------------------------------------
      1          1           0        2.141115    0.276403    0.000000
      2          1           0        2.141115   -0.802195    0.000000
      3          1           0        1.070558    0.407851    0.000000
      4          1           0        1.070558   -0.670747    0.000000
      5          1           0       -0.000000    0.539299    0.000000
      6          1           0       -0.000000   -0.539299    0.000000
      7          1           0       -1.070558    0.670747    0.000000
      8          1           0       -1.070558   -0.407851    0.000000
      9          1           0       -2.141115    0.802195    0.000000
     10          1           0       -2.141115   -0.276403    0.000000
 ---------------------------------------------------------------------

 SCF Done:  E(UHF) =  -4.95825494116     A.U. after   11 cycles
 E2 =    -0.4927178050D-01 EUMP2 =    -0.50075267216614D+01

 Unable to determine electronic state:  partially filled degenerate orbitals.
 Alpha  occ. eigenvalues --   -0.87215  -0.74930  -0.55840  -0.45206  -0.38781
 Alpha virt. eigenvalues --    0.06840   0.20253   0.36887   0.53076   0.89338
  Beta  occ. eigenvalues --   -0.87215  -0.74930  -0.55840  -0.45206  -0.38781
  Beta virt. eigenvalues --    0.06840   0.20253   0.36887   0.53076   0.89338

 Mulliken charges and spin densities:
               1          2
     1  H    0.012713  -0.583045
     2  H    0.042404   0.602916
     3  H   -0.034076   0.552151
     4  H   -0.018271  -0.550235
     5  H   -0.002771  -0.398535
     6  H   -0.002771   0.398535
     7  H   -0.018271   0.550235
     8  H   -0.034076  -0.552151
     9  H    0.042404  -0.602916
    10  H    0.012713   0.583045
 Sum of Mulliken charges =   0.00000   0.00000

 Dipole moment (field-independent basis, Debye):
    X=              0.0000    Y=             -0.0000    Z=              0.0000  Tot=              0.0000
 Quadrupole moment (field-independent basis, Debye-Ang):
   XX=            -13.0658   YY=            -15.3798   ZZ=            -12.7951
   XY=             -0.8686   XZ=              0.0000   YZ=              0.0000

 Normal termination of Gaussian 09 at Tue Feb 28 16:24:52 2017.
