 Gaussian 09, Revision E.01,
 Gaussian 09:  ES64L-G09RevE.01 30-Nov-2015

 ----------------------------------------------------------------------
 #uhf/gen scf(tight,novaracc,noincfock,fulldiag, ) stable(crhf) guess=r
 ead geom=nocrowd test
 ----------------------------------------------------------------------

 hf stability analysis of h10 triangular lattice, y= 0.9295513923648614
 0 alpha= 56.250000000000000
 ----------------------------------------------------------------------
 Symbolic Z-matrix:
 Charge =  0 Multiplicity = 1

                         Standard orientation:
 ---------------------------------------------------------------------
 Center     Atomic      Atomic             Coordinates (Angstroms)
 Number     Number       Type             X           Y           Z
 ---------------------------------------------------------------------
      1          1           0        2.065724    1.414632    0.000000
      2          1           0        2.065724    0.296670    0.000000
      3          1           0        1.032862    0.986806    0.000000
      4          1           0        1.032862   -0.131155    0.000000
      5          1           0        0.000000    0.558981    0.000000
      6          1           0       -0.000000   -0.558981    0.000000
      7          1           0       -1.032862    0.131155   -0.000000
      8          1           0       -1.032862   -0.986806   -0.000000
      9          1           0       -2.065724   -0.296670   -0.000000
     10          1           0       -2.065724   -1.414632   -0.000000
 ---------------------------------------------------------------------

 SCF Done:  E(UHF) =  -4.92188864544     A.U. after   13 cycles
 E2 =    -0.5644182513D-01 EUMP2 =    -0.49783304705650D+01

 Unable to determine electronic state:  partially filled degenerate orbitals.
 Alpha  occ. eigenvalues --   -0.85821  -0.74369  -0.56216  -0.40566  -0.36441
 Alpha virt. eigenvalues --    0.04809   0.22096   0.30480   0.55062   0.70857
  Beta  occ. eigenvalues --   -0.85821  -0.74369  -0.56216  -0.40566  -0.36441
  Beta virt. eigenvalues --    0.04809   0.22096   0.30480   0.55062   0.70857

 Mulliken charges and spin densities:
               1          2
     1  H    0.036921  -0.579317
     2  H    0.000936   0.504612
     3  H    0.031207   0.471221
     4  H   -0.052447  -0.457925
     5  H   -0.016617  -0.270065
     6  H   -0.016617   0.270065
     7  H   -0.052447   0.457925
     8  H    0.031207  -0.471221
     9  H    0.000936  -0.504612
    10  H    0.036921   0.579317
 Sum of Mulliken charges =   0.00000   0.00000

 Dipole moment (field-independent basis, Debye):
    X=              0.0000    Y=              0.0000    Z=             -0.0000  Tot=              0.0000
 Quadrupole moment (field-independent basis, Debye-Ang):
   XX=            -13.9489   YY=            -14.0578   ZZ=            -12.8572
   XY=              1.7768   XZ=             -0.0000   YZ=              0.0000

 Normal termination of Gaussian 09 at Tue Feb 28 16:27:49 2017.
