 Gaussian 09, Revision E.01,
 Gaussian 09:  ES64L-G09RevE.01 30-Nov-2015

 ----------------------------------------------------------------------
 #uhf/gen scf(tight,novaracc,noincfock,fulldiag, ) stable(crhf) guess=r
 ead geom=nocrowd test
 ----------------------------------------------------------------------

 hf stability analysis of h10 triangular lattice, y= 1.7234297938777567
  alpha= 79.000000000000000
 ----------------------------------------------------------------------
 Symbolic Z-matrix:
 Charge =  0 Multiplicity = 1

                         Standard orientation:
 ---------------------------------------------------------------------
 Center     Atomic      Atomic             Coordinates (Angstroms)
 Number     Number       Type             X           Y           Z
 ---------------------------------------------------------------------
      1          1           0        1.315384    4.133532   -0.000000
      2          1           0        1.315384    2.377845   -0.000000
      3          1           0        0.657692    2.505688   -0.000000
      4          1           0        0.657692    0.750001   -0.000000
      5          1           0        0.000000    0.877843   -0.000000
      6          1           0       -0.000000   -0.877843   -0.000000
      7          1           0       -0.657692   -0.750001   -0.000000
      8          1           0       -0.657692   -2.505688   -0.000000
      9          1           0       -1.315384   -2.377845   -0.000000
     10          1           0       -1.315384   -4.133532   -0.000000
 ---------------------------------------------------------------------

 SCF Done:  E(UHF) =  -5.19762351477     A.U. after    8 cycles
 E2 =    -0.4051015233D-01 EUMP2 =    -0.52381336671064D+01

 Unable to determine electronic state:  partially filled degenerate orbitals.
 Alpha  occ. eigenvalues --   -0.73807  -0.69797  -0.63182  -0.55216  -0.45608
 Alpha virt. eigenvalues --    0.16173   0.31521   0.40337   0.53646   0.66809
  Beta  occ. eigenvalues --   -0.73807  -0.69797  -0.63182  -0.55216  -0.45608
  Beta virt. eigenvalues --    0.16173   0.31521   0.40337   0.53646   0.66809

 Mulliken charges and spin densities:
               1          2
     1  H    0.000007   0.999846
     2  H   -0.003269   0.001657
     3  H    0.001984  -0.002831
     4  H   -0.000135  -0.001516
     5  H    0.001412   0.002682
     6  H    0.001412  -0.002682
     7  H   -0.000135   0.001516
     8  H    0.001984   0.002831
     9  H   -0.003269  -0.001657
    10  H    0.000007  -0.999846
 Sum of Mulliken charges =  -0.00000   0.00000

 Dipole moment (field-independent basis, Debye):
    X=              0.0000    Y=              0.0000    Z=              0.0000  Tot=              0.0000
 Quadrupole moment (field-independent basis, Debye-Ang):
   XX=            -12.1456   YY=            -17.4528   ZZ=            -13.0096
   XY=             -1.8430   XZ=              0.0000   YZ=              0.0000

 Normal termination of Gaussian 09 at Tue Feb 28 16:31:56 2017.
