 Gaussian 09, Revision E.01,
 Gaussian 09:  ES64L-G09RevE.01 30-Nov-2015

 ----------------------------------------------------------------------
 #uhf/gen scf(tight,novaracc,noincfock,fulldiag, ) stable(crhf) guess=r
 ead geom=nocrowd test
 ----------------------------------------------------------------------

 hf stability analysis of h10 triangular lattice, y= 0.5482239839410609
 8 alpha= 27.500000000000000
 ----------------------------------------------------------------------
 Symbolic Z-matrix:
 Charge =  0 Multiplicity = 1

                         Standard orientation:
 ---------------------------------------------------------------------
 Center     Atomic      Atomic             Coordinates (Angstroms)
 Number     Number       Type             X           Y           Z
 ---------------------------------------------------------------------
      1          1           0        1.945122   -0.768350    0.000000
      2          1           0        1.945122   -1.955628    0.000000
      3          1           0        0.972561   -0.087356    0.000000
      4          1           0        0.972561   -1.274634    0.000000
      5          1           0        0.000000    0.593639    0.000000
      6          1           0       -0.000000   -0.593639   -0.000000
      7          1           0       -0.972561    1.274634    0.000000
      8          1           0       -0.972561    0.087356    0.000000
      9          1           0       -1.945122    1.955628    0.000000
     10          1           0       -1.945122    0.768350    0.000000
 ---------------------------------------------------------------------

 SCF Done:  E(UHF) =  -4.88155527587     A.U. after   17 cycles
 E2 =    -0.7761327128D-01 EUMP2 =    -0.49591685471470D+01

 Unable to determine electronic state:  partially filled degenerate orbitals.
 Alpha  occ. eigenvalues --   -0.84934  -0.72701  -0.56181  -0.34837  -0.33325
 Alpha virt. eigenvalues --    0.05448   0.18585   0.26504   0.48892   0.57538
  Beta  occ. eigenvalues --   -0.84934  -0.72701  -0.56181  -0.34837  -0.33325
  Beta virt. eigenvalues --    0.05448   0.18585   0.26504   0.48892   0.57538

 Mulliken charges and spin densities:
               1          2
     1  H    0.098599  -0.421516
     2  H   -0.057353   0.434840
     3  H   -0.148324  -0.093987
     4  H    0.073003  -0.262015
     5  H    0.034075   0.194619
     6  H    0.034075  -0.194619
     7  H    0.073003   0.262015
     8  H   -0.148324   0.093987
     9  H   -0.057353  -0.434840
    10  H    0.098599   0.421516
 Sum of Mulliken charges =  -0.00000   0.00000

 Dipole moment (field-independent basis, Debye):
    X=              0.0000    Y=              0.0000    Z=              0.0000  Tot=              0.0000
 Quadrupole moment (field-independent basis, Debye-Ang):
   XX=            -14.2797   YY=            -15.3457   ZZ=            -12.9562
   XY=              0.5285   XZ=              0.0000   YZ=             -0.0000

 Normal termination of Gaussian 09 at Tue Feb 28 16:22:12 2017.
