 Gaussian 09, Revision E.01,
 Gaussian 09:  ES64L-G09RevE.01 30-Nov-2015

 ----------------------------------------------------------------------
 #uhf/gen scf(tight,novaracc,noincfock,fulldiag, ) stable(crhf) guess=r
 ead geom=nocrowd test
 ----------------------------------------------------------------------

 hf stability analysis of h10 triangular lattice, y= 1.2184637462790018
  alpha= 68.750000000000000
 ----------------------------------------------------------------------
 Symbolic Z-matrix:
 Charge =  0 Multiplicity = 1

                         Standard orientation:
 ---------------------------------------------------------------------
 Center     Atomic      Atomic             Coordinates (Angstroms)
 Number     Number       Type             X           Y           Z
 ---------------------------------------------------------------------
      1          1           0        1.766470    2.581441    0.000000
      2          1           0        1.766470    1.274087    0.000000
      3          1           0        0.883235    1.617559    0.000000
      4          1           0        0.883235    0.310205    0.000000
      5          1           0        0.000000    0.653677    0.000000
      6          1           0       -0.000000   -0.653677    0.000000
      7          1           0       -0.883235   -0.310205   -0.000000
      8          1           0       -0.883235   -1.617559   -0.000000
      9          1           0       -1.766470   -1.274087   -0.000000
     10          1           0       -1.766470   -2.581441   -0.000000
 ---------------------------------------------------------------------

 SCF Done:  E(UHF) =  -4.82211571300     A.U. after   15 cycles
 E2 =    -0.7263522635D-01 EUMP2 =    -0.48947509393533D+01

 Unable to determine electronic state:  partially filled degenerate orbitals.
 Alpha  occ. eigenvalues --   -0.82132  -0.70212  -0.57042  -0.37159  -0.26686
 Alpha virt. eigenvalues --    0.08133   0.16872   0.21325   0.38507   0.61853
  Beta  occ. eigenvalues --   -0.82132  -0.70212  -0.57042  -0.37159  -0.26686
  Beta virt. eigenvalues --    0.08133   0.16872   0.21325   0.38507   0.61853

 Mulliken charges and spin densities:
               1          2
     1  H    0.012648  -0.527800
     2  H    0.052495   0.479727
     3  H    0.037934   0.248820
     4  H   -0.093369   0.222836
     5  H   -0.009709   0.333791
     6  H   -0.009709  -0.333791
     7  H   -0.093369  -0.222836
     8  H    0.037934  -0.248820
     9  H    0.052495  -0.479727
    10  H    0.012648   0.527800
 Sum of Mulliken charges =   0.00000  -0.00000

 Dipole moment (field-independent basis, Debye):
    X=              0.0000    Y=              0.0000    Z=             -0.0000  Tot=              0.0000
 Quadrupole moment (field-independent basis, Debye-Ang):
   XX=            -13.0019   YY=            -12.7664   ZZ=            -13.0206
   XY=              1.8284   XZ=              0.0000   YZ=              0.0000

 Normal termination of Gaussian 09 at Tue Feb 28 16:30:11 2017.
