 Gaussian 09, Revision E.01,
 Gaussian 09:  ES64L-G09RevE.01 30-Nov-2015

 ----------------------------------------------------------------------
 #uhf/gen scf(tight,novaracc,noincfock,fulldiag, ) stable(crhf) guess=r
 ead geom=nocrowd test
 ----------------------------------------------------------------------

 hf stability analysis of h10 triangular lattice, y= 1.2029713290986654
  alpha= 68.250000000000000
 ----------------------------------------------------------------------
 Symbolic Z-matrix:
 Charge =  0 Multiplicity = 1

                         Standard orientation:
 ---------------------------------------------------------------------
 Center     Atomic      Atomic             Coordinates (Angstroms)
 Number     Number       Type             X           Y           Z
 ---------------------------------------------------------------------
      1          1           0        1.783080    2.526562    0.000000
      2          1           0        1.783080    1.231386    0.000000
      3          1           0        0.891540    1.587075    0.000000
      4          1           0        0.891540    0.291899    0.000000
      5          1           0        0.000000    0.647588    0.000000
      6          1           0       -0.000000   -0.647588    0.000000
      7          1           0       -0.891540   -0.291899    0.000000
      8          1           0       -0.891540   -1.587075    0.000000
      9          1           0       -1.783080   -1.231386    0.000000
     10          1           0       -1.783080   -2.526562    0.000000
 ---------------------------------------------------------------------

 SCF Done:  E(UHF) =  -4.83071038642     A.U. after   15 cycles
 E2 =    -0.7272177674D-01 EUMP2 =    -0.49034321631624D+01

 Unable to determine electronic state:  partially filled degenerate orbitals.
 Alpha  occ. eigenvalues --   -0.82386  -0.70455  -0.56955  -0.36782  -0.27507
 Alpha virt. eigenvalues --    0.08429   0.16707   0.22075   0.38560   0.61482
  Beta  occ. eigenvalues --   -0.82386  -0.70455  -0.56955  -0.36782  -0.27507
  Beta virt. eigenvalues --    0.08429   0.16707   0.22075   0.38560   0.61482

 Mulliken charges and spin densities:
               1          2
     1  H    0.006398  -0.525209
     2  H    0.058365   0.471481
     3  H    0.039677   0.245893
     4  H   -0.097788   0.222703
     5  H   -0.006652   0.329095
     6  H   -0.006652  -0.329095
     7  H   -0.097788  -0.222703
     8  H    0.039677  -0.245893
     9  H    0.058365  -0.471481
    10  H    0.006398   0.525209
 Sum of Mulliken charges =  -0.00000  -0.00000

 Dipole moment (field-independent basis, Debye):
    X=              0.0000    Y=              0.0000    Z=              0.0000  Tot=              0.0000
 Quadrupole moment (field-independent basis, Debye-Ang):
   XX=            -13.0394   YY=            -13.1316   ZZ=            -13.0155
   XY=              1.6160   XZ=             -0.0000   YZ=              0.0000

 Normal termination of Gaussian 09 at Tue Feb 28 16:30:06 2017.
