 Gaussian 09, Revision E.01,
 Gaussian 09:  ES64L-G09RevE.01 30-Nov-2015

 ----------------------------------------------------------------------
 #uhf/gen scf(tight,novaracc,noincfock,fulldiag, ) stable(crhf) guess=r
 ead geom=nocrowd test
 ----------------------------------------------------------------------

 hf stability analysis of h10 triangular lattice, y= 0.5335894054604231
 1 alpha= 26.250000000000000
 ----------------------------------------------------------------------
 Symbolic Z-matrix:
 Charge =  0 Multiplicity = 1

                         Standard orientation:
 ---------------------------------------------------------------------
 Center     Atomic      Atomic             Coordinates (Angstroms)
 Number     Number       Type             X           Y           Z
 ---------------------------------------------------------------------
      1          1           0        1.914247   -0.865640    0.000000
      2          1           0        1.914247   -2.072067    0.000000
      3          1           0        0.957124   -0.131213    0.000000
      4          1           0        0.957124   -1.337641    0.000000
      5          1           0       -0.000000    0.603214    0.000000
      6          1           0       -0.000000   -0.603214    0.000000
      7          1           0       -0.957124    1.337641   -0.000000
      8          1           0       -0.957124    0.131213   -0.000000
      9          1           0       -1.914247    2.072067   -0.000000
     10          1           0       -1.914247    0.865640   -0.000000
 ---------------------------------------------------------------------

 SCF Done:  E(UHF) =  -4.87607338434     A.U. after   15 cycles
 E2 =    -0.7730920675D-01 EUMP2 =    -0.49533825910871D+01

 Unable to determine electronic state:  partially filled degenerate orbitals.
 Alpha  occ. eigenvalues --   -0.84500  -0.72290  -0.56255  -0.33795  -0.33525
 Alpha virt. eigenvalues --    0.06574   0.17699   0.26098   0.45438   0.58175
  Beta  occ. eigenvalues --   -0.84500  -0.72290  -0.56255  -0.33795  -0.33525
  Beta virt. eigenvalues --    0.06574   0.17699   0.26098   0.45438   0.58175

 Mulliken charges and spin densities:
               1          2
     1  H    0.097653  -0.421392
     2  H   -0.051611   0.427070
     3  H   -0.137740  -0.153762
     4  H    0.067890  -0.238420
     5  H    0.023809   0.239181
     6  H    0.023809  -0.239181
     7  H    0.067890   0.238420
     8  H   -0.137740   0.153762
     9  H   -0.051611  -0.427070
    10  H    0.097653   0.421392
 Sum of Mulliken charges =   0.00000   0.00000

 Dipole moment (field-independent basis, Debye):
    X=              0.0000    Y=              0.0000    Z=             -0.0000  Tot=              0.0000
 Quadrupole moment (field-independent basis, Debye-Ang):
   XX=            -13.9697   YY=            -15.3038   ZZ=            -12.9709
   XY=              0.3385   XZ=             -0.0000   YZ=              0.0000

 Normal termination of Gaussian 09 at Tue Feb 28 16:21:58 2017.
