 Gaussian 09, Revision E.01,
 Gaussian 09:  ES64L-G09RevE.01 30-Nov-2015

 ----------------------------------------------------------------------
 #uhf/gen scf(tight,novaracc,noincfock,fulldiag, ) stable(crhf) guess=r
 ead geom=nocrowd test
 ----------------------------------------------------------------------

 hf stability analysis of h10 triangular lattice, y= 1.9367771983277440
  alpha= 81.250000000000000
 ----------------------------------------------------------------------
 Symbolic Z-matrix:
 Charge =  0 Multiplicity = 1

                         Standard orientation:
 ---------------------------------------------------------------------
 Center     Atomic      Atomic             Coordinates (Angstroms)
 Number     Number       Type             X           Y           Z
 ---------------------------------------------------------------------
      1          1           0        1.178516    4.717568    0.000000
      2          1           0        1.178516    2.757985    0.000000
      3          1           0        0.589258    2.848680    0.000000
      4          1           0        0.589258    0.889096    0.000000
      5          1           0       -0.000000    0.979792    0.000000
      6          1           0       -0.000000   -0.979792    0.000000
      7          1           0       -0.589258   -0.889096    0.000000
      8          1           0       -0.589258   -2.848680    0.000000
      9          1           0       -1.178516   -2.757985    0.000000
     10          1           0       -1.178516   -4.717568    0.000000
 ---------------------------------------------------------------------

 SCF Done:  E(UHF) =  -5.12615876006     A.U. after    7 cycles
 E2 =    -0.3446284603D-01 EUMP2 =    -0.51606216060917D+01

 Unable to determine electronic state:  partially filled degenerate orbitals.
 Alpha  occ. eigenvalues --   -0.73246  -0.70415  -0.65957  -0.61075  -0.48257
 Alpha virt. eigenvalues --    0.14591   0.39940   0.47309   0.58071   0.68385
  Beta  occ. eigenvalues --   -0.73246  -0.70415  -0.65957  -0.61075  -0.48257
  Beta virt. eigenvalues --    0.14591   0.39940   0.47309   0.58071   0.68385

 Mulliken charges and spin densities:
               1          2
     1  H    0.004447   1.004416
     2  H   -0.002107  -0.001962
     3  H   -0.002572  -0.002704
     4  H   -0.000278  -0.000241
     5  H    0.000509   0.000474
     6  H    0.000509  -0.000474
     7  H   -0.000278   0.000241
     8  H   -0.002572   0.002704
     9  H   -0.002107   0.001962
    10  H    0.004447  -1.004416
 Sum of Mulliken charges =  -0.00000  -0.00000

 Dipole moment (field-independent basis, Debye):
    X=              0.0000    Y=              0.0000    Z=              0.0000  Tot=              0.0000
 Quadrupole moment (field-independent basis, Debye-Ang):
   XX=            -12.2392   YY=            -16.0937   ZZ=            -13.2082
   XY=             -0.9701   XZ=              0.0000   YZ=              0.0000

 Normal termination of Gaussian 09 at Tue Feb 28 16:32:20 2017.
