 Gaussian 09, Revision E.01,
 Gaussian 09:  ES64L-G09RevE.01 30-Nov-2015

 ----------------------------------------------------------------------
 #uhf/gen scf(tight,novaracc,noincfock,fulldiag, ) stable(crhf) guess=r
 ead geom=nocrowd test
 ----------------------------------------------------------------------

 hf stability analysis of h10 triangular lattice, y= 0.4860043606964989
 9 alpha= 22.250000000000000
 ----------------------------------------------------------------------
 Symbolic Z-matrix:
 Charge =  0 Multiplicity = 1

                         Standard orientation:
 ---------------------------------------------------------------------
 Center     Atomic      Atomic             Coordinates (Angstroms)
 Number     Number       Type             X           Y           Z
 ---------------------------------------------------------------------
      1          1           0        1.799267   -1.189186   -0.000000
      2          1           0        1.799267   -2.472709   -0.000000
      3          1           0        0.899633   -0.273712   -0.000000
      4          1           0        0.899633   -1.557235   -0.000000
      5          1           0        0.000000    0.641762    0.000000
      6          1           0       -0.000000   -0.641762    0.000000
      7          1           0       -0.899633    1.557235    0.000000
      8          1           0       -0.899633    0.273712    0.000000
      9          1           0       -1.799267    2.472709    0.000000
     10          1           0       -1.799267    1.189186    0.000000
 ---------------------------------------------------------------------

 SCF Done:  E(UHF) =  -4.82974206644     A.U. after   16 cycles
 E2 =    -0.4383696467D-01 EUMP2 =    -0.48735790311124D+01

 Unable to determine electronic state:  partially filled degenerate orbitals.
 Alpha  occ. eigenvalues --   -0.81496  -0.72086  -0.58997  -0.39450  -0.30220
 Alpha virt. eigenvalues --    0.09238   0.19656   0.27361   0.40155   0.59546
  Beta  occ. eigenvalues --   -0.82278  -0.72886  -0.57562  -0.40628  -0.27047
  Beta virt. eigenvalues --    0.09876   0.13958   0.26927   0.42129   0.59616

 Mulliken charges and spin densities:
               1          2
     1  H    0.099537   0.534596
     2  H   -0.001870  -0.809354
     3  H   -0.014415  -0.624835
     4  H   -0.051226  -0.557976
     5  H   -0.084051   0.455083
     6  H    0.022402   0.530820
     7  H    0.116695  -0.272439
     8  H   -0.001020  -0.430812
     9  H   -0.065260   0.709899
    10  H   -0.020791   0.465018
 Sum of Mulliken charges =  -0.00000  -0.00000

 Dipole moment (field-independent basis, Debye):
    X=              0.8042    Y=             -0.4947    Z=             -0.0000  Tot=              0.9442
 Quadrupole moment (field-independent basis, Debye-Ang):
   XX=            -13.9819   YY=            -16.5001   ZZ=            -12.7871
   XY=              1.3969   XZ=              0.0000   YZ=             -0.0000

 Normal termination of Gaussian 09 at Tue Feb 28 16:21:16 2017.
