 Gaussian 09, Revision E.01,
 Gaussian 09:  ES64L-G09RevE.01 30-Nov-2015

 ----------------------------------------------------------------------
 #uhf/gen scf(tight,novaracc,noincfock,fulldiag, ) stable(crhf) guess=r
 ead geom=nocrowd test
 ----------------------------------------------------------------------

 hf stability analysis of h10 triangular lattice, y= 0.8557834790083491
 7 alpha= 51.750000000000000
 ----------------------------------------------------------------------
 Symbolic Z-matrix:
 Charge =  0 Multiplicity = 1

                         Standard orientation:
 ---------------------------------------------------------------------
 Center     Atomic      Atomic             Coordinates (Angstroms)
 Number     Number       Type             X           Y           Z
 ---------------------------------------------------------------------
      1          1           0        2.119241    1.053650    0.000000
      2          1           0        2.119241   -0.036080    0.000000
      3          1           0        1.059621    0.799257    0.000000
      4          1           0        1.059621   -0.290473    0.000000
      5          1           0        0.000000    0.544865    0.000000
      6          1           0       -0.000000   -0.544865    0.000000
      7          1           0       -1.059621    0.290473    0.000000
      8          1           0       -1.059621   -0.799257    0.000000
      9          1           0       -2.119241    0.036080    0.000000
     10          1           0       -2.119241   -1.053650    0.000000
 ---------------------------------------------------------------------

 SCF Done:  E(UHF) =  -4.94759668652     A.U. after   11 cycles
 E2 =    -0.5060483176D-01 EUMP2 =    -0.49982015182780D+01

 Unable to determine electronic state:  partially filled degenerate orbitals.
 Alpha  occ. eigenvalues --   -0.86798  -0.74759  -0.56004  -0.43917  -0.38047
 Alpha virt. eigenvalues --    0.06078   0.21172   0.34650   0.53884   0.83345
  Beta  occ. eigenvalues --   -0.86798  -0.74759  -0.56004  -0.43917  -0.38047
  Beta virt. eigenvalues --    0.06078   0.21172   0.34650   0.53884   0.83345

 Mulliken charges and spin densities:
               1          2
     1  H    0.048822  -0.601502
     2  H    0.000937   0.561569
     3  H   -0.003721   0.531572
     4  H   -0.039346  -0.533297
     5  H   -0.006691  -0.368419
     6  H   -0.006691   0.368419
     7  H   -0.039346   0.533297
     8  H   -0.003721  -0.531572
     9  H    0.000937  -0.561569
    10  H    0.048822   0.601502
 Sum of Mulliken charges =   0.00000   0.00000

 Dipole moment (field-independent basis, Debye):
    X=              0.0000    Y=             -0.0000    Z=              0.0000  Tot=              0.0000
 Quadrupole moment (field-independent basis, Debye-Ang):
   XX=            -13.3669   YY=            -14.8898   ZZ=            -12.8102
   XY=              1.5065   XZ=              0.0000   YZ=             -0.0000

 Normal termination of Gaussian 09 at Tue Feb 28 16:26:51 2017.
