 Gaussian 09, Revision E.01,
 Gaussian 09:  ES64L-G09RevE.01 30-Nov-2015

 ----------------------------------------------------------------------
 #uhf/gen scf(tight,novaracc,noincfock,fulldiag, ) stable(crhf) guess=r
 ead geom=nocrowd test
 ----------------------------------------------------------------------

 hf stability analysis of h10 triangular lattice, y= 1.1064166633763877
  alpha= 64.750000000000000
 ----------------------------------------------------------------------
 Symbolic Z-matrix:
 Charge =  0 Multiplicity = 1

                         Standard orientation:
 ---------------------------------------------------------------------
 Center     Atomic      Atomic             Coordinates (Angstroms)
 Number     Number       Type             X           Y           Z
 ---------------------------------------------------------------------
      1          1           0        1.887851    2.167872    0.000000
      2          1           0        1.887851    0.944576    0.000000
      3          1           0        0.943926    1.389760    0.000000
      4          1           0        0.943926    0.166464    0.000000
      5          1           0        0.000000    0.611648    0.000000
      6          1           0       -0.000000   -0.611648   -0.000000
      7          1           0       -0.943926   -0.166464    0.000000
      8          1           0       -0.943926   -1.389760   -0.000000
      9          1           0       -1.887851   -0.944576   -0.000000
     10          1           0       -1.887851   -2.167872   -0.000000
 ---------------------------------------------------------------------

 SCF Done:  E(UHF) =  -4.87003979218     A.U. after   15 cycles
 E2 =    -0.7644073396D-01 EUMP2 =    -0.49464805261440D+01

 Unable to determine electronic state:  partially filled degenerate orbitals.
 Alpha  occ. eigenvalues --   -0.84074  -0.71952  -0.56369  -0.34263  -0.32429
 Alpha virt. eigenvalues --    0.07442   0.17020   0.25750   0.42979   0.58837
  Beta  occ. eigenvalues --   -0.84074  -0.71952  -0.56369  -0.34263  -0.32429
  Beta virt. eigenvalues --    0.07442   0.17020   0.25750   0.42979   0.58837

 Mulliken charges and spin densities:
               1          2
     1  H   -0.041230  -0.442460
     2  H    0.091551   0.428487
     3  H    0.062556   0.231612
     4  H   -0.128466   0.179546
     5  H    0.015590   0.265289
     6  H    0.015590  -0.265289
     7  H   -0.128466  -0.179546
     8  H    0.062556  -0.231612
     9  H    0.091551  -0.428487
    10  H   -0.041230   0.442460
 Sum of Mulliken charges =  -0.00000  -0.00000

 Dipole moment (field-independent basis, Debye):
    X=              0.0000    Y=             -0.0000    Z=             -0.0000  Tot=              0.0000
 Quadrupole moment (field-independent basis, Debye-Ang):
   XX=            -13.7155   YY=            -15.0490   ZZ=            -12.9821
   XY=              0.0079   XZ=              0.0000   YZ=             -0.0000

 Normal termination of Gaussian 09 at Tue Feb 28 16:29:27 2017.
