 Gaussian 09, Revision E.01,
 Gaussian 09:  ES64L-G09RevE.01 30-Nov-2015

 ----------------------------------------------------------------------
 #uhf/gen scf(tight,novaracc,noincfock,fulldiag, ) stable(crhf) guess=r
 ead geom=nocrowd test
 ----------------------------------------------------------------------

 hf stability analysis of h10 triangular lattice, y= 0.4890258879954954
 6 alpha= 22.500000000000000
 ----------------------------------------------------------------------
 Symbolic Z-matrix:
 Charge =  0 Multiplicity = 1

                         Standard orientation:
 ---------------------------------------------------------------------
 Center     Atomic      Atomic             Coordinates (Angstroms)
 Number     Number       Type             X           Y           Z
 ---------------------------------------------------------------------
      1          1           0        1.807204   -1.168261    0.000000
      2          1           0        1.807204   -2.446147    0.000000
      3          1           0        0.903602   -0.264659    0.000000
      4          1           0        0.903602   -1.542545    0.000000
      5          1           0        0.000000    0.638943    0.000000
      6          1           0       -0.000000   -0.638943   -0.000000
      7          1           0       -0.903602    1.542545    0.000000
      8          1           0       -0.903602    0.264659    0.000000
      9          1           0       -1.807204    2.446147    0.000000
     10          1           0       -1.807204    1.168261    0.000000
 ---------------------------------------------------------------------

 SCF Done:  E(UHF) =  -4.82856245372     A.U. after   17 cycles
 E2 =    -0.4707737715D-01 EUMP2 =    -0.48756398308656D+01

 Unable to determine electronic state:  partially filled degenerate orbitals.
 Alpha  occ. eigenvalues --   -0.81536  -0.72114  -0.58792  -0.38823  -0.30059
 Alpha virt. eigenvalues --    0.08704   0.19369   0.26914   0.40389   0.59448
  Beta  occ. eigenvalues --   -0.82445  -0.72812  -0.57300  -0.40064  -0.27042
  Beta virt. eigenvalues --    0.09678   0.13497   0.27059   0.41925   0.59554

 Mulliken charges and spin densities:
               1          2
     1  H    0.097884   0.515442
     2  H    0.007505  -0.777987
     3  H   -0.013285  -0.606449
     4  H   -0.048107  -0.548130
     5  H   -0.091861   0.423044
     6  H    0.010725   0.491504
     7  H    0.119323  -0.245163
     8  H    0.002004  -0.389587
     9  H   -0.063310   0.687565
    10  H   -0.020878   0.449760
 Sum of Mulliken charges =   0.00000   0.00000

 Dipole moment (field-independent basis, Debye):
    X=              0.8526    Y=             -0.5533    Z=             -0.0000  Tot=              1.0164
 Quadrupole moment (field-independent basis, Debye-Ang):
   XX=            -13.8852   YY=            -16.0272   ZZ=            -12.8192
   XY=              0.9793   XZ=              0.0000   YZ=             -0.0000

 Normal termination of Gaussian 09 at Tue Feb 28 16:21:19 2017.
