 Gaussian 09, Revision E.01,
 Gaussian 09:  ES64L-G09RevE.01 30-Nov-2015

 ----------------------------------------------------------------------
 #uhf/gen scf(tight,novaracc,noincfock,fulldiag, ) stable(crhf) guess=r
 ead geom=nocrowd test
 ----------------------------------------------------------------------

 hf stability analysis of h10 triangular lattice, y= 1.3850361609029067
  alpha= 73.250000000000000
 ----------------------------------------------------------------------
 Symbolic Z-matrix:
 Charge =  0 Multiplicity = 1

                         Standard orientation:
 ---------------------------------------------------------------------
 Center     Atomic      Atomic             Coordinates (Angstroms)
 Number     Number       Type             X           Y           Z
 ---------------------------------------------------------------------
      1          1           0        1.596649    3.135476    0.000000
      2          1           0        1.596649    1.689071    0.000000
      3          1           0        0.798324    1.929339    0.000000
      4          1           0        0.798324    0.482934    0.000000
      5          1           0        0.000000    0.723203    0.000000
      6          1           0       -0.000000   -0.723203    0.000000
      7          1           0       -0.798324   -0.482934    0.000000
      8          1           0       -0.798324   -1.929339    0.000000
      9          1           0       -1.596649   -1.689071    0.000000
     10          1           0       -1.596649   -3.135476    0.000000
 ---------------------------------------------------------------------

 SCF Done:  E(UHF) =  -5.02901309303     A.U. after   12 cycles
 E2 =    -0.5662404609D-01 EUMP2 =    -0.50856371391165D+01

 Unable to determine electronic state:  partially filled degenerate orbitals.
 Alpha  occ. eigenvalues --   -0.77279  -0.70446  -0.59283  -0.45213  -0.33095
 Alpha virt. eigenvalues --    0.15169   0.22009   0.27191   0.44698   0.62252
  Beta  occ. eigenvalues --   -0.77279  -0.70446  -0.59283  -0.45213  -0.33095
  Beta virt. eigenvalues --    0.15169   0.22009   0.27191   0.44698   0.62252

 Mulliken charges and spin densities:
               1          2
     1  H   -0.057319   0.936331
     2  H   -0.016188   0.103934
     3  H    0.055744  -0.058949
     4  H    0.015772  -0.059400
     5  H    0.001991   0.073462
     6  H    0.001991  -0.073462
     7  H    0.015772   0.059400
     8  H    0.055744   0.058949
     9  H   -0.016188  -0.103934
    10  H   -0.057319  -0.936331
 Sum of Mulliken charges =   0.00000  -0.00000

 Dipole moment (field-independent basis, Debye):
    X=             -0.0000    Y=             -0.0000    Z=             -0.0000  Tot=              0.0000
 Quadrupole moment (field-independent basis, Debye-Ang):
   XX=            -13.8717   YY=            -21.5473   ZZ=            -12.6362
   XY=             -5.7251   XZ=             -0.0000   YZ=             -0.0000

 Normal termination of Gaussian 09 at Tue Feb 28 16:30:54 2017.
