 Gaussian 09, Revision E.01,
 Gaussian 09:  ES64L-G09RevE.01 30-Nov-2015

 ----------------------------------------------------------------------
 #uhf/gen scf(tight,novaracc,noincfock,fulldiag, ) stable(crhf) guess=r
 ead geom=nocrowd test
 ----------------------------------------------------------------------

 hf stability analysis of h10 triangular lattice, y= 0.6686047848167678
 8 alpha= 37.750000000000000
 ----------------------------------------------------------------------
 Symbolic Z-matrix:
 Charge =  0 Multiplicity = 1

                         Standard orientation:
 ---------------------------------------------------------------------
 Center     Atomic      Atomic             Coordinates (Angstroms)
 Number     Number       Type             X           Y           Z
 ---------------------------------------------------------------------
      1          1           0        2.114635   -0.000830    0.000000
      2          1           0        2.114635   -1.092934    0.000000
      3          1           0        1.057318    0.272611    0.000000
      4          1           0        1.057318   -0.819493    0.000000
      5          1           0        0.000000    0.546052    0.000000
      6          1           0       -0.000000   -0.546052    0.000000
      7          1           0       -1.057318    0.819493    0.000000
      8          1           0       -1.057318   -0.272611    0.000000
      9          1           0       -2.114635    1.092934    0.000000
     10          1           0       -2.114635    0.000830    0.000000
 ---------------------------------------------------------------------

 SCF Done:  E(UHF) =  -4.94534975808     A.U. after   12 cycles
 E2 =    -0.5095514967D-01 EUMP2 =    -0.49963049077496D+01

 Unable to determine electronic state:  partially filled degenerate orbitals.
 Alpha  occ. eigenvalues --   -0.86711  -0.74723  -0.56032  -0.43639  -0.37898
 Alpha virt. eigenvalues --    0.05940   0.21325   0.34221   0.54024   0.82156
  Beta  occ. eigenvalues --   -0.86711  -0.74723  -0.56032  -0.43639  -0.37898
  Beta virt. eigenvalues --    0.05940   0.21325   0.34221   0.54024   0.82156

 Mulliken charges and spin densities:
               1          2
     1  H   -0.000276  -0.557113
     2  H    0.048925   0.600405
     3  H   -0.040290   0.528535
     4  H   -0.000804  -0.527239
     5  H   -0.007555  -0.361392
     6  H   -0.007555   0.361392
     7  H   -0.000804   0.527239
     8  H   -0.040290  -0.528535
     9  H    0.048925  -0.600405
    10  H   -0.000276   0.557113
 Sum of Mulliken charges =  -0.00000  -0.00000

 Dipole moment (field-independent basis, Debye):
    X=             -0.0000    Y=             -0.0000    Z=              0.0000  Tot=              0.0000
 Quadrupole moment (field-independent basis, Debye-Ang):
   XX=            -13.4264   YY=            -14.7965   ZZ=            -12.8137
   XY=             -1.5789   XZ=              0.0000   YZ=              0.0000

 Normal termination of Gaussian 09 at Tue Feb 28 16:24:09 2017.
