 Gaussian 09, Revision E.01,
 Gaussian 09:  ES64L-G09RevE.01 30-Nov-2015

 ----------------------------------------------------------------------
 #uhf/gen scf(tight,novaracc,noincfock,fulldiag, ) stable(crhf) guess=r
 ead geom=nocrowd test
 ----------------------------------------------------------------------

 hf stability analysis of h10 triangular lattice, y= 0.6807147699477958
 9 alpha= 38.750000000000000
 ----------------------------------------------------------------------
 Symbolic Z-matrix:
 Charge =  0 Multiplicity = 1

                         Standard orientation:
 ---------------------------------------------------------------------
 Center     Atomic      Atomic             Coordinates (Angstroms)
 Number     Number       Type             X           Y           Z
 ---------------------------------------------------------------------
      1          1           0        2.123515    0.072996   -0.000000
      2          1           0        2.123515   -1.014540   -0.000000
      3          1           0        1.061758    0.308382   -0.000000
      4          1           0        1.061758   -0.779154   -0.000000
      5          1           0        0.000000    0.543768    0.000000
      6          1           0       -0.000000   -0.543768    0.000000
      7          1           0       -1.061758    0.779154   -0.000000
      8          1           0       -1.061758   -0.308382   -0.000000
      9          1           0       -2.123515    1.014540   -0.000000
     10          1           0       -2.123515   -0.072996   -0.000000
 ---------------------------------------------------------------------

 SCF Done:  E(UHF) =  -4.94968223051     A.U. after   11 cycles
 E2 =    -0.5030237186D-01 EUMP2 =    -0.49999846023700D+01

 Unable to determine electronic state:  partially filled degenerate orbitals.
 Alpha  occ. eigenvalues --   -0.86879  -0.74792  -0.55976  -0.44172  -0.38187
 Alpha virt. eigenvalues --    0.06213   0.21017   0.35060   0.53746   0.84470
  Beta  occ. eigenvalues --   -0.86879  -0.74792  -0.55976  -0.44172  -0.38187
  Beta virt. eigenvalues --    0.06213   0.21017   0.35060   0.53746   0.84470

 Mulliken charges and spin densities:
               1          2
     1  H    0.002352  -0.565665
     2  H    0.048444   0.602330
     3  H   -0.038461   0.537466
     4  H   -0.006436  -0.535456
     5  H   -0.005900  -0.374719
     6  H   -0.005900   0.374719
     7  H   -0.006436   0.535456
     8  H   -0.038461  -0.537466
     9  H    0.048444  -0.602330
    10  H    0.002352   0.565665
 Sum of Mulliken charges =   0.00000  -0.00000

 Dipole moment (field-independent basis, Debye):
    X=             -0.0000    Y=              0.0000    Z=             -0.0000  Tot=              0.0000
 Quadrupole moment (field-independent basis, Debye-Ang):
   XX=            -13.3104   YY=            -14.9796   ZZ=            -12.8071
   XY=             -1.4260   XZ=              0.0000   YZ=              0.0000

 Normal termination of Gaussian 09 at Tue Feb 28 16:24:21 2017.
