 Gaussian 09, Revision E.01,
 Gaussian 09:  ES64L-G09RevE.01 30-Nov-2015

 ----------------------------------------------------------------------
 #uhf/gen scf(tight,novaracc,noincfock,fulldiag, ) stable(crhf) guess=r
 ead geom=nocrowd test
 ----------------------------------------------------------------------

 hf stability analysis of h10 triangular lattice, y= 1.2106565115415191
  alpha= 68.500000000000000
 ----------------------------------------------------------------------
 Symbolic Z-matrix:
 Charge =  0 Multiplicity = 1

                         Standard orientation:
 ---------------------------------------------------------------------
 Center     Atomic      Atomic             Coordinates (Angstroms)
 Number     Number       Type             X           Y           Z
 ---------------------------------------------------------------------
      1          1           0        1.774828    2.553869   -0.000000
      2          1           0        1.774828    1.252672   -0.000000
      3          1           0        0.887414    1.602234   -0.000000
      4          1           0        0.887414    0.301037   -0.000000
      5          1           0        0.000000    0.650598   -0.000000
      6          1           0       -0.000000   -0.650598   -0.000000
      7          1           0       -0.887414   -0.301037    0.000000
      8          1           0       -0.887414   -1.602234   -0.000000
      9          1           0       -1.774828   -1.252672    0.000000
     10          1           0       -1.774828   -2.553869   -0.000000
 ---------------------------------------------------------------------

 SCF Done:  E(UHF) =  -4.82652079483     A.U. after   15 cycles
 E2 =    -0.7263286611D-01 EUMP2 =    -0.48991536609337D+01

 Unable to determine electronic state:  partially filled degenerate orbitals.
 Alpha  occ. eigenvalues --   -0.82259  -0.70333  -0.57000  -0.36973  -0.27101
 Alpha virt. eigenvalues --    0.08295   0.16802   0.21691   0.38519   0.61670
  Beta  occ. eigenvalues --   -0.82259  -0.70333  -0.57000  -0.36973  -0.27101
  Beta virt. eigenvalues --    0.08295   0.16802   0.21691   0.38519   0.61670

 Mulliken charges and spin densities:
               1          2
     1  H    0.009623  -0.527443
     2  H    0.055499   0.475464
     3  H    0.038628   0.247545
     4  H   -0.095621   0.223167
     5  H   -0.008129   0.331669
     6  H   -0.008129  -0.331669
     7  H   -0.095621  -0.223167
     8  H    0.038628  -0.247545
     9  H    0.055499  -0.475464
    10  H    0.009623   0.527443
 Sum of Mulliken charges =  -0.00000   0.00000

 Dipole moment (field-independent basis, Debye):
    X=             -0.0000    Y=             -0.0000    Z=             -0.0000  Tot=              0.0000
 Quadrupole moment (field-independent basis, Debye-Ang):
   XX=            -13.0170   YY=            -12.9491   ZZ=            -13.0180
   XY=              1.7260   XZ=              0.0000   YZ=             -0.0000

 Normal termination of Gaussian 09 at Tue Feb 28 16:30:08 2017.
