 Gaussian 09, Revision E.01,
 Gaussian 09:  ES64L-G09RevE.01 30-Nov-2015

 ----------------------------------------------------------------------
 #uhf/gen scf(tight,novaracc,noincfock,fulldiag, ) stable(crhf) guess=r
 ead geom=nocrowd test
 ----------------------------------------------------------------------

 hf stability analysis of h10 triangular lattice, y= 0.4707695940863088
 6 alpha= 21.000000000000000
 ----------------------------------------------------------------------
 Symbolic Z-matrix:
 Charge =  0 Multiplicity = 1

                         Standard orientation:
 ---------------------------------------------------------------------
 Center     Atomic      Atomic             Coordinates (Angstroms)
 Number     Number       Type             X           Y           Z
 ---------------------------------------------------------------------
      1          1           0        1.758005   -1.295638    0.000000
      2          1           0        1.758005   -2.609287    0.000000
      3          1           0        0.879003   -0.319407    0.000000
      4          1           0        0.879003   -1.633056    0.000000
      5          1           0        0.000000    0.656824    0.000000
      6          1           0       -0.000000   -0.656824    0.000000
      7          1           0       -0.879003    1.633056   -0.000000
      8          1           0       -0.879003    0.319407   -0.000000
      9          1           0       -1.758005    2.609287   -0.000000
     10          1           0       -1.758005    1.295638   -0.000000
 ---------------------------------------------------------------------

 SCF Done:  E(UHF) =  -4.84725828998     A.U. after   16 cycles
 E2 =    -0.3768197046D-01 EUMP2 =    -0.48849402604347D+01

 Unable to determine electronic state:  partially filled degenerate orbitals.
 Alpha  occ. eigenvalues --   -0.81203  -0.71774  -0.59201  -0.41430  -0.30758
 Alpha virt. eigenvalues --    0.11018   0.20748   0.28710   0.38820   0.60048
  Beta  occ. eigenvalues --   -0.81357  -0.72911  -0.58414  -0.42687  -0.27204
  Beta virt. eigenvalues --    0.10211   0.16897   0.25607   0.43007   0.59708

 Mulliken charges and spin densities:
               1          2
     1  H    0.074649   0.474278
     2  H   -0.044247  -0.894600
     3  H   -0.006687  -0.640253
     4  H   -0.025013  -0.486607
     5  H   -0.049916   0.558082
     6  H    0.042951   0.602819
     7  H    0.107170  -0.336128
     8  H   -0.004133  -0.544595
     9  H   -0.074128   0.781694
    10  H   -0.020645   0.485311
 Sum of Mulliken charges =   0.00000   0.00000

 Dipole moment (field-independent basis, Debye):
    X=              0.4881    Y=             -0.2198    Z=              0.0000  Tot=              0.5353
 Quadrupole moment (field-independent basis, Debye-Ang):
   XX=            -14.5946   YY=            -18.6490   ZZ=            -12.6736
   XY=              3.4565   XZ=             -0.0000   YZ=              0.0000

 Normal termination of Gaussian 09 at Tue Feb 28 16:21:02 2017.
