 Gaussian 09, Revision E.01,
 Gaussian 09:  ES64L-G09RevE.01 30-Nov-2015

 ----------------------------------------------------------------------
 #uhf/gen scf(tight,novaracc,noincfock,fulldiag, ) stable(crhf) guess=r
 ead geom=nocrowd test
 ----------------------------------------------------------------------

 hf stability analysis of h10 triangular lattice, y= 1.1879529318790409
  alpha= 67.750000000000000
 ----------------------------------------------------------------------
 Symbolic Z-matrix:
 Charge =  0 Multiplicity = 1

                         Standard orientation:
 ---------------------------------------------------------------------
 Center     Atomic      Atomic             Coordinates (Angstroms)
 Number     Number       Type             X           Y           Z
 ---------------------------------------------------------------------
      1          1           0        1.799267    2.472709   -0.000000
      2          1           0        1.799267    1.189186   -0.000000
      3          1           0        0.899633    1.557235   -0.000000
      4          1           0        0.899633    0.273712   -0.000000
      5          1           0        0.000000    0.641762    0.000000
      6          1           0       -0.000000   -0.641762    0.000000
      7          1           0       -0.899633   -0.273712   -0.000000
      8          1           0       -0.899633   -1.557235   -0.000000
      9          1           0       -1.799267   -1.189186   -0.000000
     10          1           0       -1.799267   -2.472709   -0.000000
 ---------------------------------------------------------------------

 SCF Done:  E(UHF) =  -4.83846273371     A.U. after   15 cycles
 E2 =    -0.7307116194D-01 EUMP2 =    -0.49115338956553D+01

 Unable to determine electronic state:  partially filled degenerate orbitals.
 Alpha  occ. eigenvalues --   -0.82638  -0.70696  -0.56863  -0.36392  -0.28294
 Alpha virt. eigenvalues --    0.08610   0.16510   0.22843   0.38740   0.61099
  Beta  occ. eigenvalues --   -0.82638  -0.70696  -0.56863  -0.36392  -0.28294
  Beta virt. eigenvalues --    0.08610   0.16510   0.22843   0.38740   0.61099

 Mulliken charges and spin densities:
               1          2
     1  H   -0.000408  -0.517167
     2  H    0.063830   0.464103
     3  H    0.042428   0.242168
     4  H   -0.102032   0.220141
     5  H   -0.003818   0.322872
     6  H   -0.003818  -0.322872
     7  H   -0.102032  -0.220141
     8  H    0.042428  -0.242168
     9  H    0.063830  -0.464103
    10  H   -0.000408   0.517167
 Sum of Mulliken charges =   0.00000   0.00000

 Dipole moment (field-independent basis, Debye):
    X=             -0.0000    Y=             -0.0000    Z=             -0.0000  Tot=              0.0000
 Quadrupole moment (field-independent basis, Debye-Ang):
   XX=            -13.1004   YY=            -13.4863   ZZ=            -13.0108
   XY=              1.3836   XZ=              0.0000   YZ=             -0.0000

 Normal termination of Gaussian 09 at Tue Feb 28 16:30:00 2017.
