 Gaussian 09, Revision E.01,
 Gaussian 09:  ES64L-G09RevE.01 30-Nov-2015

 ----------------------------------------------------------------------
 #uhf/gen scf(tight,novaracc,noincfock,fulldiag, ) stable(crhf) guess=r
 ead geom=nocrowd test
 ----------------------------------------------------------------------

 hf stability analysis of h10 triangular lattice, y= 0.4799368795303601
 3 alpha= 21.750000000000000
 ----------------------------------------------------------------------
 Symbolic Z-matrix:
 Charge =  0 Multiplicity = 1

                         Standard orientation:
 ---------------------------------------------------------------------
 Center     Atomic      Atomic             Coordinates (Angstroms)
 Number     Number       Type             X           Y           Z
 ---------------------------------------------------------------------
      1          1           0        1.783080   -1.231386   -0.000000
      2          1           0        1.783080   -2.526562   -0.000000
      3          1           0        0.891540   -0.291899   -0.000000
      4          1           0        0.891540   -1.587075   -0.000000
      5          1           0        0.000000    0.647588    0.000000
      6          1           0       -0.000000   -0.647588    0.000000
      7          1           0       -0.891540    1.587075   -0.000000
      8          1           0       -0.891540    0.291899    0.000000
      9          1           0       -1.783080    2.526562   -0.000000
     10          1           0       -1.783080    1.231386   -0.000000
 ---------------------------------------------------------------------

 SCF Done:  E(UHF) =  -4.83444318216     A.U. after   15 cycles
 E2 =    -0.3969244632D-01 EUMP2 =    -0.48741356284821D+01

 Unable to determine electronic state:  partially filled degenerate orbitals.
 Alpha  occ. eigenvalues --   -0.81404  -0.71983  -0.59207  -0.40444  -0.30479
 Alpha virt. eigenvalues --    0.10110   0.20125   0.28068   0.39618   0.59749
  Beta  occ. eigenvalues --   -0.81926  -0.72953  -0.57973  -0.41572  -0.27075
  Beta virt. eigenvalues --    0.10065   0.15063   0.26479   0.42504   0.59686

 Mulliken charges and spin densities:
               1          2
     1  H    0.095618   0.536960
     2  H   -0.019806  -0.853673
     3  H   -0.014386  -0.644461
     4  H   -0.047765  -0.551123
     5  H   -0.069318   0.506135
     6  H    0.037288   0.580259
     7  H    0.112311  -0.309700
     8  H   -0.004510  -0.490899
     9  H   -0.068880   0.744091
    10  H   -0.020554   0.482411
 Sum of Mulliken charges =  -0.00000  -0.00000

 Dipole moment (field-independent basis, Debye):
    X=              0.6875    Y=             -0.3801    Z=             -0.0000  Tot=              0.7856
 Quadrupole moment (field-independent basis, Debye-Ang):
   XX=            -14.2091   YY=            -17.3849   ZZ=            -12.7341
   XY=              2.2198   XZ=              0.0000   YZ=             -0.0000

 Normal termination of Gaussian 09 at Tue Feb 28 16:21:11 2017.
