 Gaussian 09, Revision E.01,
 Gaussian 09:  ES64L-G09RevE.01 30-Nov-2015

 ----------------------------------------------------------------------
 #uhf/gen scf(tight,novaracc,noincfock,fulldiag, ) stable(crhf) guess=r
 ead geom=nocrowd test
 ----------------------------------------------------------------------

 hf stability analysis of h10 triangular lattice, y= 0.4738346202814235
 9 alpha= 21.250000000000000
 ----------------------------------------------------------------------
 Symbolic Z-matrix:
 Charge =  0 Multiplicity = 1

                         Standard orientation:
 ---------------------------------------------------------------------
 Center     Atomic      Atomic             Coordinates (Angstroms)
 Number     Number       Type             X           Y           Z
 ---------------------------------------------------------------------
      1          1           0        1.766470   -1.274087    0.000000
      2          1           0        1.766470   -2.581441    0.000000
      3          1           0        0.883235   -0.310205    0.000000
      4          1           0        0.883235   -1.617559    0.000000
      5          1           0        0.000000    0.653677   -0.000000
      6          1           0       -0.000000   -0.653677   -0.000000
      7          1           0       -0.883235    1.617559    0.000000
      8          1           0       -0.883235    0.310205    0.000000
      9          1           0       -1.766470    2.581441    0.000000
     10          1           0       -1.766470    1.274087    0.000000
 ---------------------------------------------------------------------

 SCF Done:  E(UHF) =  -4.84221845293     A.U. after   16 cycles
 E2 =    -0.3786054263D-01 EUMP2 =    -0.48800789955630D+01

 Unable to determine electronic state:  partially filled degenerate orbitals.
 Alpha  occ. eigenvalues --   -0.81282  -0.71847  -0.59234  -0.41163  -0.30679
 Alpha virt. eigenvalues --    0.10767   0.20540   0.28560   0.39068   0.59950
  Beta  occ. eigenvalues --   -0.81552  -0.72942  -0.58287  -0.42352  -0.27146
  Beta virt. eigenvalues --    0.10165   0.16275   0.25910   0.42850   0.59708

 Mulliken charges and spin densities:
               1          2
     1  H    0.083476   0.503356
     2  H   -0.036491  -0.883615
     3  H   -0.010390  -0.646061
     4  H   -0.034601  -0.515110
     5  H   -0.055913   0.543905
     6  H    0.043119   0.601586
     7  H    0.108734  -0.330563
     8  H   -0.005029  -0.530822
     9  H   -0.072434   0.770368
    10  H   -0.020470   0.486954
 Sum of Mulliken charges =  -0.00000   0.00000

 Dipole moment (field-independent basis, Debye):
    X=              0.5561    Y=             -0.2711    Z=             -0.0000  Tot=              0.6187
 Quadrupole moment (field-independent basis, Debye-Ang):
   XX=            -14.4634   YY=            -18.2345   ZZ=            -12.6915
   XY=              3.0450   XZ=              0.0000   YZ=             -0.0000

 Normal termination of Gaussian 09 at Tue Feb 28 16:21:05 2017.
