 Gaussian 09, Revision E.01,
 Gaussian 09:  ES64L-G09RevE.01 30-Nov-2015

 ----------------------------------------------------------------------
 #uhf/gen scf(tight,novaracc,noincfock,fulldiag, ) stable(crhf) guess=r
 ead geom=nocrowd test
 ----------------------------------------------------------------------

 hf stability analysis of h10 triangular lattice, y= 0.4676948326587840
 9 alpha= 20.750000000000000
 ----------------------------------------------------------------------
 Symbolic Z-matrix:
 Charge =  0 Multiplicity = 1

                         Standard orientation:
 ---------------------------------------------------------------------
 Center     Atomic      Atomic             Coordinates (Angstroms)
 Number     Number       Type             X           Y           Z
 ---------------------------------------------------------------------
      1          1           0        1.749432   -1.317329   -0.000000
      2          1           0        1.749432   -2.637416   -0.000000
      3          1           0        0.874716   -0.328643   -0.000000
      4          1           0        0.874716   -1.648730   -0.000000
      5          1           0        0.000000    0.660043   -0.000000
      6          1           0       -0.000000   -0.660043    0.000000
      7          1           0       -0.874716    1.648730   -0.000000
      8          1           0       -0.874716    0.328643   -0.000000
      9          1           0       -1.749432    2.637416   -0.000000
     10          1           0       -1.749432    1.317329   -0.000000
 ---------------------------------------------------------------------

 SCF Done:  E(UHF) =  -4.85306530279     A.U. after   16 cycles
 E2 =    -0.3795158871D-01 EUMP2 =    -0.48910168915062D+01

 Unable to determine electronic state:  partially filled degenerate orbitals.
 Alpha  occ. eigenvalues --   -0.81109  -0.71699  -0.59148  -0.41639  -0.30819
 Alpha virt. eigenvalues --    0.11217   0.20966   0.28779   0.38611   0.60145
  Beta  occ. eigenvalues --   -0.81157  -0.72864  -0.58522  -0.42987  -0.27280
  Beta virt. eigenvalues --    0.10262   0.17525   0.25302   0.43150   0.59702

 Mulliken charges and spin densities:
               1          2
     1  H    0.064193   0.437066
     2  H   -0.051547  -0.903243
     3  H   -0.001820  -0.629722
     4  H   -0.013712  -0.450992
     5  H   -0.044502   0.568980
     6  H    0.040860   0.597721
     7  H    0.105724  -0.338892
     8  H   -0.002442  -0.554483
     9  H   -0.075708   0.792203
    10  H   -0.021046   0.481362
 Sum of Mulliken charges =   0.00000  -0.00000

 Dipole moment (field-independent basis, Debye):
    X=              0.4201    Y=             -0.1712    Z=              0.0000  Tot=              0.4536
 Quadrupole moment (field-independent basis, Debye-Ang):
   XX=            -14.7250   YY=            -19.0554   ZZ=            -12.6578
   XY=              3.8641   XZ=             -0.0000   YZ=              0.0000

 Normal termination of Gaussian 09 at Tue Feb 28 16:20:59 2017.
