 Gaussian 09, Revision E.01,
 Gaussian 09:  ES64L-G09RevE.01 30-Nov-2015

 ----------------------------------------------------------------------
 #uhf/gen scf(tight,novaracc,noincfock,fulldiag, ) stable(crhf) guess=r
 ead geom=nocrowd test
 ----------------------------------------------------------------------

 hf stability analysis of h10 triangular lattice, y= 1.6480958607190197
  alpha= 78.000000000000000
 ----------------------------------------------------------------------
 Symbolic Z-matrix:
 Charge =  0 Multiplicity = 1

                         Standard orientation:
 ---------------------------------------------------------------------
 Center     Atomic      Atomic             Coordinates (Angstroms)
 Number     Number       Type             X           Y           Z
 ---------------------------------------------------------------------
      1          1           0        1.370634    3.920951   -0.000000
      2          1           0        1.370634    2.236036   -0.000000
      3          1           0        0.685317    2.381704   -0.000000
      4          1           0        0.685317    0.696789   -0.000000
      5          1           0        0.000000    0.842458   -0.000000
      6          1           0       -0.000000   -0.842458   -0.000000
      7          1           0       -0.685317   -0.696789   -0.000000
      8          1           0       -0.685317   -2.381704   -0.000000
      9          1           0       -1.370634   -2.236036   -0.000000
     10          1           0       -1.370634   -3.920951   -0.000000
 ---------------------------------------------------------------------

 SCF Done:  E(UHF) =  -5.19536422030     A.U. after    9 cycles
 E2 =    -0.4333866888D-01 EUMP2 =    -0.52387028891824D+01

 Unable to determine electronic state:  partially filled degenerate orbitals.
 Alpha  occ. eigenvalues --   -0.74213  -0.69710  -0.62215  -0.52978  -0.43901
 Alpha virt. eigenvalues --    0.16999   0.28309   0.37663   0.51924   0.66156
  Beta  occ. eigenvalues --   -0.74213  -0.69710  -0.62215  -0.52978  -0.43901
  Beta virt. eigenvalues --    0.16999   0.28309   0.37663   0.51924   0.66156

 Mulliken charges and spin densities:
               1          2
     1  H   -0.004583   0.995113
     2  H   -0.003952   0.005708
     3  H    0.006231  -0.003191
     4  H    0.000265  -0.003064
     5  H    0.002039   0.005083
     6  H    0.002039  -0.005083
     7  H    0.000265   0.003064
     8  H    0.006231   0.003191
     9  H   -0.003952  -0.005708
    10  H   -0.004583  -0.995113
 Sum of Mulliken charges =   0.00000  -0.00000

 Dipole moment (field-independent basis, Debye):
    X=              0.0000    Y=              0.0000    Z=              0.0000  Tot=              0.0000
 Quadrupole moment (field-independent basis, Debye-Ang):
   XX=            -12.2084   YY=            -18.1222   ZZ=            -12.9287
   XY=             -2.3447   XZ=             -0.0000   YZ=             -0.0000

 Normal termination of Gaussian 09 at Tue Feb 28 16:31:45 2017.
