 Gaussian 09, Revision E.01,
 Gaussian 09:  ES64L-G09RevE.01 30-Nov-2015

 ----------------------------------------------------------------------
 #uhf/gen scf(tight,novaracc,noincfock,fulldiag, ) stable(crhf) guess=r
 ead geom=nocrowd test
 ----------------------------------------------------------------------

 hf stability analysis of h10 triangular lattice, y= 1.1002000313062268
  alpha= 64.500000000000000
 ----------------------------------------------------------------------
 Symbolic Z-matrix:
 Charge =  0 Multiplicity = 1

                         Standard orientation:
 ---------------------------------------------------------------------
 Center     Atomic      Atomic             Coordinates (Angstroms)
 Number     Number       Type             X           Y           Z
 ---------------------------------------------------------------------
      1          1           0        1.894593    2.143683    0.000000
      2          1           0        1.894593    0.924740    0.000000
      3          1           0        0.947297    1.376577    0.000000
      4          1           0        0.947297    0.157634    0.000000
      5          1           0       -0.000000    0.609472    0.000000
      6          1           0       -0.000000   -0.609472    0.000000
      7          1           0       -0.947297   -0.157634    0.000000
      8          1           0       -0.947297   -1.376577    0.000000
      9          1           0       -1.894593   -0.924740    0.000000
     10          1           0       -1.894593   -2.143683    0.000000
 ---------------------------------------------------------------------

 SCF Done:  E(UHF) =  -4.87171819697     A.U. after   15 cycles
 E2 =    -0.7668970273D-01 EUMP2 =    -0.49484078996966D+01

 Unable to determine electronic state:  partially filled degenerate orbitals.
 Alpha  occ. eigenvalues --   -0.84184  -0.72040  -0.56337  -0.34120  -0.32728
 Alpha virt. eigenvalues --    0.07233   0.17179   0.25853   0.43558   0.58664
  Beta  occ. eigenvalues --   -0.84184  -0.72040  -0.56337  -0.34120  -0.32728
  Beta virt. eigenvalues --    0.07233   0.17179   0.25853   0.43558   0.58664

 Mulliken charges and spin densities:
               1          2
     1  H   -0.044107  -0.437482
     2  H    0.093320   0.426317
     3  H    0.064000   0.232616
     4  H   -0.130773   0.174066
     5  H    0.017559   0.259163
     6  H    0.017559  -0.259163
     7  H   -0.130773  -0.174066
     8  H    0.064000  -0.232616
     9  H    0.093320  -0.426317
    10  H   -0.044107   0.437482
 Sum of Mulliken charges =   0.00000  -0.00000

 Dipole moment (field-independent basis, Debye):
    X=              0.0000    Y=              0.0000    Z=              0.0000  Tot=              0.0000
 Quadrupole moment (field-independent basis, Debye-Ang):
   XX=            -13.7781   YY=            -15.1271   ZZ=            -12.9794
   XY=             -0.0881   XZ=              0.0000   YZ=              0.0000

 Normal termination of Gaussian 09 at Tue Feb 28 16:29:24 2017.
