 Gaussian 09, Revision E.01,
 Gaussian 09:  ES64L-G09RevE.01 30-Nov-2015

 ----------------------------------------------------------------------
 #uhf/gen scf(tight,novaracc,noincfock,fulldiag, ) stable(crhf) guess=r
 ead geom=nocrowd test
 ----------------------------------------------------------------------

 hf stability analysis of h10 triangular lattice, y= 1.2426558648313226
  alpha= 69.500000000000000
 ----------------------------------------------------------------------
 Symbolic Z-matrix:
 Charge =  0 Multiplicity = 1

                         Standard orientation:
 ---------------------------------------------------------------------
 Center     Atomic      Atomic             Coordinates (Angstroms)
 Number     Number       Type             X           Y           Z
 ---------------------------------------------------------------------
      1          1           0        1.740749    2.665838    0.000000
      2          1           0        1.740749    1.339167    0.000000
      3          1           0        0.870375    1.664587    0.000000
      4          1           0        0.870375    0.337916    0.000000
      5          1           0        0.000000    0.663336    0.000000
      6          1           0       -0.000000   -0.663336   -0.000000
      7          1           0       -0.870375   -0.337916   -0.000000
      8          1           0       -0.870375   -1.664587   -0.000000
      9          1           0       -1.740749   -1.339167   -0.000000
     10          1           0       -1.740749   -2.665838   -0.000000
 ---------------------------------------------------------------------

 SCF Done:  E(UHF) =  -4.80760993040     A.U. after   17 cycles
 E2 =    -0.7427797399D-01 EUMP2 =    -0.48818879043915D+01

 Unable to determine electronic state:  partially filled degenerate orbitals.
 Alpha  occ. eigenvalues --   -0.81740  -0.69906  -0.57112  -0.37570  -0.25366
 Alpha virt. eigenvalues --    0.07473   0.16525   0.20538   0.38613   0.62303
  Beta  occ. eigenvalues --   -0.81740  -0.69906  -0.57112  -0.37570  -0.25366
  Beta virt. eigenvalues --    0.07473   0.16525   0.20538   0.38613   0.62303

 Mulliken charges and spin densities:
               1          2
     1  H    0.018076  -0.494884
     2  H    0.040846   0.496170
     3  H    0.042342   0.242116
     4  H   -0.084041   0.209136
     5  H   -0.017223   0.334946
     6  H   -0.017223  -0.334946
     7  H   -0.084041  -0.209136
     8  H    0.042342  -0.242116
     9  H    0.040846  -0.496170
    10  H    0.018076   0.494884
 Sum of Mulliken charges =  -0.00000  -0.00000

 Dipole moment (field-independent basis, Debye):
    X=             -0.0000    Y=             -0.0000    Z=             -0.0000  Tot=              0.0000
 Quadrupole moment (field-independent basis, Debye-Ang):
   XX=            -13.0661   YY=            -12.3175   ZZ=            -13.0319
   XY=              1.9863   XZ=              0.0000   YZ=              0.0000

 Normal termination of Gaussian 09 at Tue Feb 28 16:30:19 2017.
