 Gaussian 09, Revision E.01,
 Gaussian 09:  ES64L-G09RevE.01 30-Nov-2015

 ----------------------------------------------------------------------
 #uhf/gen scf(tight,novaracc,noincfock,fulldiag, ) stable(crhf) guess=r
 ead geom=nocrowd test
 ----------------------------------------------------------------------

 hf stability analysis of h10 triangular lattice, y= 0.6093965744756328
 9 alpha= 32.750000000000000
 ----------------------------------------------------------------------
 Symbolic Z-matrix:
 Charge =  0 Multiplicity = 1

                         Standard orientation:
 ---------------------------------------------------------------------
 Center     Atomic      Atomic             Coordinates (Angstroms)
 Number     Number       Type             X           Y           Z
 ---------------------------------------------------------------------
      1          1           0        2.050105   -0.371047    0.000000
      2          1           0        2.050105   -1.497526    0.000000
      3          1           0        1.025053    0.096096   -0.000000
      4          1           0        1.025053   -1.030383    0.000000
      5          1           0        0.000000    0.563240   -0.000000
      6          1           0       -0.000000   -0.563240    0.000000
      7          1           0       -1.025053    1.030383   -0.000000
      8          1           0       -1.025053   -0.096096   -0.000000
      9          1           0       -2.050105    1.497526   -0.000000
     10          1           0       -2.050105    0.371047   -0.000000
 ---------------------------------------------------------------------

 SCF Done:  E(UHF) =  -4.91472835615     A.U. after   13 cycles
 E2 =    -0.5895447952D-01 EUMP2 =    -0.49736828356699D+01

 Unable to determine electronic state:  partially filled degenerate orbitals.
 Alpha  occ. eigenvalues --   -0.85554  -0.74261  -0.56239  -0.39542  -0.36024
 Alpha virt. eigenvalues --    0.04554   0.21976   0.29617   0.55247   0.67705
  Beta  occ. eigenvalues --   -0.85554  -0.74261  -0.56239  -0.39542  -0.36024
  Beta virt. eigenvalues --    0.04554   0.21976   0.29617   0.55247   0.67705

 Mulliken charges and spin densities:
               1          2
     1  H    0.005700  -0.486131
     2  H    0.029397   0.570102
     3  H   -0.058214   0.425593
     4  H    0.041808  -0.449703
     5  H   -0.018690  -0.233450
     6  H   -0.018690   0.233450
     7  H    0.041808   0.449703
     8  H   -0.058214  -0.425593
     9  H    0.029397  -0.570102
    10  H    0.005700   0.486131
 Sum of Mulliken charges =  -0.00000   0.00000

 Dipole moment (field-independent basis, Debye):
    X=             -0.0000    Y=              0.0000    Z=             -0.0000  Tot=              0.0000
 Quadrupole moment (field-independent basis, Debye-Ang):
   XX=            -14.0664   YY=            -13.9327   ZZ=            -12.8734
   XY=             -1.6937   XZ=              0.0000   YZ=             -0.0000

 Normal termination of Gaussian 09 at Tue Feb 28 16:23:12 2017.
