 Gaussian 09, Revision E.01,
 Gaussian 09:  ES64L-G09RevE.01 30-Nov-2015

 ----------------------------------------------------------------------
 #uhf/gen scf(tight,novaracc,noincfock,fulldiag, ) stable(crhf) guess=r
 ead geom=nocrowd test
 ----------------------------------------------------------------------

 hf stability analysis of h10 triangular lattice, y= 0.4920397018298700
 0 alpha= 22.750000000000000
 ----------------------------------------------------------------------
 Symbolic Z-matrix:
 Charge =  0 Multiplicity = 1

                         Standard orientation:
 ---------------------------------------------------------------------
 Center     Atomic      Atomic             Coordinates (Angstroms)
 Number     Number       Type             X           Y           Z
 ---------------------------------------------------------------------
      1          1           0        1.815038   -1.147447    0.000000
      2          1           0        1.815038   -2.419818    0.000000
      3          1           0        0.907519   -0.255631    0.000000
      4          1           0        0.907519   -1.528002    0.000000
      5          1           0        0.000000    0.636185   -0.000000
      6          1           0       -0.000000   -0.636185   -0.000000
      7          1           0       -0.907519    1.528002    0.000000
      8          1           0       -0.907519    0.255631    0.000000
      9          1           0       -1.815038    2.419818    0.000000
     10          1           0       -1.815038    1.147447    0.000000
 ---------------------------------------------------------------------

 SCF Done:  E(UHF) =  -4.82821467231     A.U. after   18 cycles
 E2 =    -0.5168260432D-01 EUMP2 =    -0.48798972766304D+01

 Unable to determine electronic state:  partially filled degenerate orbitals.
 Alpha  occ. eigenvalues --   -0.81570  -0.72108  -0.58472  -0.38048  -0.29841
 Alpha virt. eigenvalues --    0.08055   0.19005   0.26341   0.40572   0.59358
  Beta  occ. eigenvalues --   -0.82605  -0.72692  -0.56957  -0.39370  -0.27031
  Beta virt. eigenvalues --    0.09307   0.13162   0.27066   0.41680   0.59465

 Mulliken charges and spin densities:
               1          2
     1  H    0.092806   0.474249
     2  H    0.017381  -0.732553
     3  H   -0.011647  -0.577671
     4  H   -0.039586  -0.523888
     5  H   -0.100379   0.383119
     6  H   -0.005688   0.433483
     7  H    0.122456  -0.208108
     8  H    0.006633  -0.334130
     9  H   -0.060838   0.658001
    10  H   -0.021136   0.427499
 Sum of Mulliken charges =   0.00000   0.00000

 Dipole moment (field-independent basis, Debye):
    X=              0.8892    Y=             -0.6147    Z=              0.0000  Tot=              1.0810
 Quadrupole moment (field-independent basis, Debye-Ang):
   XX=            -13.8058   YY=            -15.4902   ZZ=            -12.8589
   XY=              0.5330   XZ=              0.0000   YZ=             -0.0000

 Normal termination of Gaussian 09 at Tue Feb 28 16:21:21 2017.
