 Gaussian 09, Revision E.01,
 Gaussian 09:  ES64L-G09RevE.01 30-Nov-2015

 ----------------------------------------------------------------------
 #uhf/gen scf(tight,novaracc,noincfock,fulldiag, ) stable(crhf) guess=r
 ead geom=nocrowd test
 ----------------------------------------------------------------------

 hf stability analysis of h10 triangular lattice, y= 0.5188669005588153
 5 alpha= 25.000000000000000
 ----------------------------------------------------------------------
 Symbolic Z-matrix:
 Charge =  0 Multiplicity = 1

                         Standard orientation:
 ---------------------------------------------------------------------
 Center     Atomic      Atomic             Coordinates (Angstroms)
 Number     Number       Type             X           Y           Z
 ---------------------------------------------------------------------
      1          1           0        1.881012   -0.964485    0.000000
      2          1           0        1.881012   -2.192229    0.000000
      3          1           0        0.940506   -0.175307   -0.000000
      4          1           0        0.940506   -1.403050    0.000000
      5          1           0        0.000000    0.613872   -0.000000
      6          1           0       -0.000000   -0.613872   -0.000000
      7          1           0       -0.940506    1.403050   -0.000000
      8          1           0       -0.940506    0.175307   -0.000000
      9          1           0       -1.881012    2.192229   -0.000000
     10          1           0       -1.881012    0.964485   -0.000000
 ---------------------------------------------------------------------

 SCF Done:  E(UHF) =  -4.86823718450     A.U. after   15 cycles
 E2 =    -0.7617601459D-01 EUMP2 =    -0.49444131990860D+01

 Unable to determine electronic state:  partially filled degenerate orbitals.
 Alpha  occ. eigenvalues --   -0.83961  -0.71862  -0.56403  -0.34413  -0.32123
 Alpha virt. eigenvalues --    0.07643   0.16872   0.25633   0.42428   0.59014
  Beta  occ. eigenvalues --   -0.83961  -0.71862  -0.56403  -0.34413  -0.32123
  Beta virt. eigenvalues --    0.07643   0.16872   0.25633   0.42428   0.59014

 Mulliken charges and spin densities:
               1          2
     1  H    0.089658  -0.430852
     2  H   -0.038211   0.447981
     3  H   -0.126173  -0.184560
     4  H    0.061043  -0.231000
     5  H    0.013683   0.271200
     6  H    0.013683  -0.271200
     7  H    0.061043   0.231000
     8  H   -0.126173   0.184560
     9  H   -0.038211  -0.447981
    10  H    0.089658   0.430852
 Sum of Mulliken charges =   0.00000  -0.00000

 Dipole moment (field-independent basis, Debye):
    X=              0.0000    Y=             -0.0000    Z=              0.0000  Tot=              0.0000
 Quadrupole moment (field-independent basis, Debye-Ang):
   XX=            -13.6540   YY=            -14.9621   ZZ=            -12.9847
   XY=             -0.1087   XZ=              0.0000   YZ=              0.0000

 Normal termination of Gaussian 09 at Tue Feb 28 16:21:44 2017.
