 Gaussian 09, Revision E.01,
 Gaussian 09:  ES64L-G09RevE.01 30-Nov-2015

 ----------------------------------------------------------------------
 #uhf/gen scf(tight,novaracc,noincfock,fulldiag, ) stable(crhf) guess=r
 ead geom=nocrowd test
 ----------------------------------------------------------------------

 hf stability analysis of h10 triangular lattice, y= 1.7649657119256603
  alpha= 79.500000000000000
 ----------------------------------------------------------------------
 Symbolic Z-matrix:
 Charge =  0 Multiplicity = 1

                         Standard orientation:
 ---------------------------------------------------------------------
 Center     Atomic      Atomic             Coordinates (Angstroms)
 Number     Number       Type             X           Y           Z
 ---------------------------------------------------------------------
      1          1           0        1.286558    4.249109    0.000000
      2          1           0        1.286558    2.454086    0.000000
      3          1           0        0.643279    2.573311    0.000000
      4          1           0        0.643279    0.778287    0.000000
      5          1           0        0.000000    0.897512    0.000000
      6          1           0       -0.000000   -0.897512    0.000000
      7          1           0       -0.643279   -0.778287    0.000000
      8          1           0       -0.643279   -2.573311    0.000000
      9          1           0       -1.286558   -2.454086    0.000000
     10          1           0       -1.286558   -4.249109    0.000000
 ---------------------------------------------------------------------

 SCF Done:  E(UHF) =  -5.19201118235     A.U. after    7 cycles
 E2 =    -0.3912505913D-01 EUMP2 =    -0.52311362414826D+01

 Unable to determine electronic state:  partially filled degenerate orbitals.
 Alpha  occ. eigenvalues --   -0.73637  -0.69879  -0.63724  -0.56431  -0.46336
 Alpha virt. eigenvalues --    0.15787   0.33233   0.41760   0.54553   0.67135
  Beta  occ. eigenvalues --   -0.73637  -0.69879  -0.63724  -0.56431  -0.46336
  Beta virt. eigenvalues --    0.15787   0.33233   0.41760   0.54553   0.67135

 Mulliken charges and spin densities:
               1          2
     1  H    0.001632   1.001516
     2  H   -0.002978   0.000319
     3  H    0.000425  -0.002799
     4  H   -0.000231  -0.001043
     5  H    0.001153   0.001902
     6  H    0.001153  -0.001902
     7  H   -0.000231   0.001043
     8  H    0.000425   0.002799
     9  H   -0.002978  -0.000319
    10  H    0.001632  -1.001516
 Sum of Mulliken charges =   0.00000   0.00000

 Dipole moment (field-independent basis, Debye):
    X=             -0.0000    Y=             -0.0000    Z=              0.0000  Tot=              0.0000
 Quadrupole moment (field-independent basis, Debye-Ang):
   XX=            -12.1408   YY=            -17.1326   ZZ=            -13.0520
   XY=             -1.6193   XZ=             -0.0000   YZ=             -0.0000

 Normal termination of Gaussian 09 at Tue Feb 28 16:32:01 2017.
