 Gaussian 09, Revision E.01,
 Gaussian 09:  ES64L-G09RevE.01 30-Nov-2015

 ----------------------------------------------------------------------
 #uhf/gen scf(tight,novaracc,noincfock,fulldiag, ) stable(crhf) guess=r
 ead geom=nocrowd test
 ----------------------------------------------------------------------

 hf stability analysis of h10 triangular lattice, y= 1.1190932273249123
  alpha= 65.250000000000000
 ----------------------------------------------------------------------
 Symbolic Z-matrix:
 Charge =  0 Multiplicity = 1

                         Standard orientation:
 ---------------------------------------------------------------------
 Center     Atomic      Atomic             Coordinates (Angstroms)
 Number     Number       Type             X           Y           Z
 ---------------------------------------------------------------------
      1          1           0        1.874077    2.216757    0.000000
      2          1           0        1.874077    0.984469    0.000000
      3          1           0        0.937039    1.416450    0.000000
      4          1           0        0.937039    0.184163    0.000000
      5          1           0       -0.000000    0.616144    0.000000
      6          1           0       -0.000000   -0.616144    0.000000
      7          1           0       -0.937039   -0.184163    0.000000
      8          1           0       -0.937039   -1.416450    0.000000
      9          1           0       -1.874077   -0.984469    0.000000
     10          1           0       -1.874077   -2.216757    0.000000
 ---------------------------------------------------------------------

 SCF Done:  E(UHF) =  -4.86630429808     A.U. after   15 cycles
 E2 =    -0.7589842123D-01 EUMP2 =    -0.49422027193042D+01

 Unable to determine electronic state:  partially filled degenerate orbitals.
 Alpha  occ. eigenvalues --   -0.83847  -0.71770  -0.56438  -0.34570  -0.31809
 Alpha virt. eigenvalues --    0.07834   0.16736   0.25497   0.41908   0.59195
  Beta  occ. eigenvalues --   -0.83847  -0.71770  -0.56438  -0.34570  -0.31809
  Beta virt. eigenvalues --    0.07834   0.16736   0.25497   0.41908   0.59195

 Mulliken charges and spin densities:
               1          2
     1  H   -0.035069  -0.453938
     2  H    0.087659   0.433379
     3  H    0.059466   0.230747
     4  H   -0.123893   0.189180
     5  H    0.011838   0.276910
     6  H    0.011838  -0.276910
     7  H   -0.123893  -0.189180
     8  H    0.059466  -0.230747
     9  H    0.087659  -0.433379
    10  H   -0.035069   0.453938
 Sum of Mulliken charges =  -0.00000   0.00000

 Dipole moment (field-independent basis, Debye):
    X=             -0.0000    Y=             -0.0000    Z=              0.0000  Tot=              0.0000
 Quadrupole moment (field-independent basis, Debye-Ang):
   XX=            -13.5937   YY=            -14.8667   ZZ=            -12.9873
   XY=              0.2137   XZ=             -0.0000   YZ=              0.0000

 Normal termination of Gaussian 09 at Tue Feb 28 16:29:32 2017.
