 Gaussian 09, Revision E.01,
 Gaussian 09:  ES64L-G09RevE.01 30-Nov-2015

 ----------------------------------------------------------------------
 #uhf/gen scf(tight,novaracc,noincfock,fulldiag, ) stable(crhf) guess=r
 ead geom=nocrowd test
 ----------------------------------------------------------------------

 hf stability analysis of h10 triangular lattice, y= 1.1190932273249123
  alpha= 65.250000000000000
 ----------------------------------------------------------------------
 Symbolic Z-matrix:
 Charge =  0 Multiplicity = 1

                         Standard orientation:
 ---------------------------------------------------------------------
 Center     Atomic      Atomic             Coordinates (Angstroms)
 Number     Number       Type             X           Y           Z
 ---------------------------------------------------------------------
      1          1           0        1.874077    2.216757    0.000000
      2          1           0        1.874077    0.984469    0.000000
      3          1           0        0.937039    1.416450    0.000000
      4          1           0        0.937039    0.184163    0.000000
      5          1           0       -0.000000    0.616144    0.000000
      6          1           0       -0.000000   -0.616144    0.000000
      7          1           0       -0.937039   -0.184163    0.000000
      8          1           0       -0.937039   -1.416450    0.000000
      9          1           0       -1.874077   -0.984469    0.000000
     10          1           0       -1.874077   -2.216757    0.000000
 ---------------------------------------------------------------------

 SCF Done:  E(UHF) =  -4.84236599473     A.U. after   18 cycles
 E2 =    -0.9797386257D-01 EUMP2 =    -0.49403398572921D+01

 Unable to determine electronic state:  partially filled degenerate orbitals.
 Alpha  occ. eigenvalues --   -0.81790  -0.73440  -0.56073  -0.34951  -0.26962
 Alpha virt. eigenvalues --    0.04633   0.14921   0.25433   0.42986   0.59394
  Beta  occ. eigenvalues --   -0.81790  -0.73440  -0.56073  -0.34951  -0.26962
  Beta virt. eigenvalues --    0.04633   0.14921   0.25433   0.42986   0.59394

 Mulliken charges and spin densities:
               1          2
     1  H   -0.018311  -0.501033
     2  H    0.061624   0.168110
     3  H    0.115406   0.040466
     4  H   -0.034624  -0.113799
     5  H   -0.124095   0.039944
     6  H   -0.124095  -0.039944
     7  H   -0.034624   0.113799
     8  H    0.115406  -0.040466
     9  H    0.061624  -0.168110
    10  H   -0.018311   0.501033
 Sum of Mulliken charges =  -0.00000   0.00000

 Dipole moment (field-independent basis, Debye):
    X=             -0.0000    Y=             -0.0000    Z=              0.0000  Tot=              0.0000
 Quadrupole moment (field-independent basis, Debye-Ang):
   XX=            -12.8068   YY=            -13.4653   ZZ=            -13.0580
   XY=              1.5860   XZ=             -0.0000   YZ=              0.0000

 Normal termination of Gaussian 09 at Tue Feb 28 16:44:14 2017.
