 Gaussian 09, Revision E.01,
 Gaussian 09:  ES64L-G09RevE.01 30-Nov-2015

 ----------------------------------------------------------------------
 #uhf/gen scf(tight,novaracc,noincfock,fulldiag, ) stable(crhf) guess=r
 ead geom=nocrowd test
 ----------------------------------------------------------------------

 hf stability analysis of h10 triangular lattice, y= 0.6746452920691223
 8 alpha= 38.250000000000000
 ----------------------------------------------------------------------
 Symbolic Z-matrix:
 Charge =  0 Multiplicity = 1

                         Standard orientation:
 ---------------------------------------------------------------------
 Center     Atomic      Atomic             Coordinates (Angstroms)
 Number     Number       Type             X           Y           Z
 ---------------------------------------------------------------------
      1          1           0        2.119241    0.036080   -0.000000
      2          1           0        2.119241   -1.053650    0.000000
      3          1           0        1.059621    0.290473   -0.000000
      4          1           0        1.059621   -0.799257    0.000000
      5          1           0        0.000000    0.544865   -0.000000
      6          1           0       -0.000000   -0.544865    0.000000
      7          1           0       -1.059621    0.799257   -0.000000
      8          1           0       -1.059621   -0.290473    0.000000
      9          1           0       -2.119241    1.053650    0.000000
     10          1           0       -2.119241   -0.036080    0.000000
 ---------------------------------------------------------------------

 SCF Done:  E(UHF) =  -4.85623904028     A.U. after   16 cycles
 E2 =    -0.9384400520D-01 EUMP2 =    -0.49500830454812D+01

 Unable to determine electronic state:  partially filled degenerate orbitals.
 Alpha  occ. eigenvalues --   -0.87420  -0.72960  -0.54549  -0.42253  -0.28865
 Alpha virt. eigenvalues --   -0.00848   0.21431   0.30899   0.52479   0.83078
  Beta  occ. eigenvalues --   -0.87420  -0.72960  -0.54549  -0.42253  -0.28865
  Beta virt. eigenvalues --   -0.00848   0.21431   0.30899   0.52479   0.83078

 Mulliken charges and spin densities:
               1          2
     1  H    0.089306  -0.102571
     2  H   -0.074354  -0.032280
     3  H   -0.091909  -0.250861
     4  H    0.034639  -0.238928
     5  H    0.042318   0.030754
     6  H    0.042318  -0.030754
     7  H    0.034639   0.238928
     8  H   -0.091909   0.250861
     9  H   -0.074354   0.032280
    10  H    0.089306   0.102571
 Sum of Mulliken charges =   0.00000   0.00000

 Dipole moment (field-independent basis, Debye):
    X=              0.0000    Y=             -0.0000    Z=             -0.0000  Tot=              0.0000
 Quadrupole moment (field-independent basis, Debye-Ang):
   XX=            -16.8060   YY=            -14.1531   ZZ=            -12.8001
   XY=              1.9048   XZ=             -0.0000   YZ=              0.0000

 Normal termination of Gaussian 09 at Tue Feb 28 16:39:00 2017.
