 Gaussian 09, Revision E.01,
 Gaussian 09:  ES64L-G09RevE.01 30-Nov-2015

 ----------------------------------------------------------------------
 #uhf/gen scf(tight,novaracc,noincfock,fulldiag, ) stable(crhf) guess=r
 ead geom=nocrowd test
 ----------------------------------------------------------------------

 hf stability analysis of h10 triangular lattice, y= 0.6506387228320011
 9 alpha= 36.250000000000000
 ----------------------------------------------------------------------
 Symbolic Z-matrix:
 Charge =  0 Multiplicity = 1

                         Standard orientation:
 ---------------------------------------------------------------------
 Center     Atomic      Atomic             Coordinates (Angstroms)
 Number     Number       Type             X           Y           Z
 ---------------------------------------------------------------------
      1          1           0        2.098816   -0.111587    0.000000
      2          1           0        2.098816   -1.211922    0.000000
      3          1           0        1.049408    0.219290    0.000000
      4          1           0        1.049408   -0.881045    0.000000
      5          1           0       -0.000000    0.550168    0.000000
      6          1           0       -0.000000   -0.550168    0.000000
      7          1           0       -1.049408    0.881045    0.000000
      8          1           0       -1.049408   -0.219290    0.000000
      9          1           0       -2.098816    1.211922    0.000000
     10          1           0       -2.098816    0.111587    0.000000
 ---------------------------------------------------------------------

 SCF Done:  E(UHF) =  -4.86334470367     A.U. after   17 cycles
 E2 =    -0.9192975410D-01 EUMP2 =    -0.49552744577707D+01

 Unable to determine electronic state:  partially filled degenerate orbitals.
 Alpha  occ. eigenvalues --   -0.87220  -0.73029  -0.54684  -0.41520  -0.29242
 Alpha virt. eigenvalues --   -0.00280   0.21871   0.29240   0.52939   0.77747
  Beta  occ. eigenvalues --   -0.87220  -0.73029  -0.54684  -0.41520  -0.29242
  Beta virt. eigenvalues --   -0.00280   0.21871   0.29240   0.52939   0.77747

 Mulliken charges and spin densities:
               1          2
     1  H    0.105130  -0.118958
     2  H   -0.089740  -0.024706
     3  H   -0.101218  -0.253614
     4  H    0.051549  -0.230089
     5  H    0.034279   0.047294
     6  H    0.034279  -0.047294
     7  H    0.051549   0.230089
     8  H   -0.101218   0.253614
     9  H   -0.089740   0.024706
    10  H    0.105130   0.118958
 Sum of Mulliken charges =  -0.00000  -0.00000

 Dipole moment (field-independent basis, Debye):
    X=             -0.0000    Y=              0.0000    Z=              0.0000  Tot=              0.0000
 Quadrupole moment (field-independent basis, Debye-Ang):
   XX=            -16.4608   YY=            -14.6489   ZZ=            -12.8261
   XY=              2.2174   XZ=              0.0000   YZ=              0.0000

 Normal termination of Gaussian 09 at Tue Feb 28 16:38:38 2017.
