 Gaussian 09, Revision E.01,
 Gaussian 09:  ES64L-G09RevE.01 30-Nov-2015

 ----------------------------------------------------------------------
 #uhf/gen scf(tight,novaracc,noincfock,fulldiag, ) stable(crhf) guess=r
 ead geom=nocrowd test
 ----------------------------------------------------------------------

 hf stability analysis of h10 triangular lattice, y= 0.6776762931058321
 1 alpha= 38.500000000000000
 ----------------------------------------------------------------------
 Symbolic Z-matrix:
 Charge =  0 Multiplicity = 1

                         Standard orientation:
 ---------------------------------------------------------------------
 Center     Atomic      Atomic             Coordinates (Angstroms)
 Number     Number       Type             X           Y           Z
 ---------------------------------------------------------------------
      1          1           0        2.121420    0.054537    0.000000
      2          1           0        2.121420   -1.034074    0.000000
      3          1           0        1.060710    0.299421    0.000000
      4          1           0        1.060710   -0.789190    0.000000
      5          1           0       -0.000000    0.544305    0.000000
      6          1           0       -0.000000   -0.544305    0.000000
      7          1           0       -1.060710    0.789190    0.000000
      8          1           0       -1.060710   -0.299421    0.000000
      9          1           0       -2.121420    1.034074    0.000000
     10          1           0       -2.121420   -0.054537    0.000000
 ---------------------------------------------------------------------

 SCF Done:  E(UHF) =  -4.85540076073     A.U. after   16 cycles
 E2 =    -0.9406824640D-01 EUMP2 =    -0.49494690071364D+01

 Unable to determine electronic state:  partially filled degenerate orbitals.
 Alpha  occ. eigenvalues --   -0.87439  -0.72950  -0.54534  -0.42329  -0.28824
 Alpha virt. eigenvalues --   -0.00905   0.21383   0.31082   0.52431   0.83677
  Beta  occ. eigenvalues --   -0.87439  -0.72950  -0.54534  -0.42329  -0.28824
  Beta virt. eigenvalues --   -0.00905   0.21383   0.31082   0.52431   0.83677

 Mulliken charges and spin densities:
               1          2
     1  H    0.086980  -0.100627
     2  H   -0.072028  -0.033272
     3  H   -0.090458  -0.250661
     4  H    0.032325  -0.239819
     5  H    0.043182   0.028988
     6  H    0.043182  -0.028988
     7  H    0.032325   0.239819
     8  H   -0.090458   0.250661
     9  H   -0.072028   0.033272
    10  H    0.086980   0.100627
 Sum of Mulliken charges =   0.00000  -0.00000

 Dipole moment (field-independent basis, Debye):
    X=              0.0000    Y=             -0.0000    Z=              0.0000  Tot=              0.0000
 Quadrupole moment (field-independent basis, Debye-Ang):
   XX=            -16.8431   YY=            -14.0948   ZZ=            -12.7972
   XY=              1.8544   XZ=              0.0000   YZ=              0.0000

 Normal termination of Gaussian 09 at Tue Feb 28 16:39:03 2017.
