 Gaussian 09, Revision E.01,
 Gaussian 09:  ES64L-G09RevE.01 30-Nov-2015

 ----------------------------------------------------------------------
 #uhf/gen scf(tight,novaracc,noincfock,fulldiag, ) stable(crhf) guess=r
 ead geom=nocrowd test
 ----------------------------------------------------------------------

 hf stability analysis of h10 triangular lattice, y= 0.7241740692380285
 2 alpha= 42.250000000000000
 ----------------------------------------------------------------------
 Symbolic Z-matrix:
 Charge =  0 Multiplicity = 1

                         Standard orientation:
 ---------------------------------------------------------------------
 Center     Atomic      Atomic             Coordinates (Angstroms)
 Number     Number       Type             X           Y           Z
 ---------------------------------------------------------------------
      1          1           0        2.144187    0.332064   -0.000000
      2          1           0        2.144187   -0.744988   -0.000000
      3          1           0        1.072094    0.435295   -0.000000
      4          1           0        1.072094   -0.641757   -0.000000
      5          1           0        0.000000    0.538526   -0.000000
      6          1           0       -0.000000   -0.538526   -0.000000
      7          1           0       -1.072094    0.641757   -0.000000
      8          1           0       -1.072094   -0.435295   -0.000000
      9          1           0       -2.144187    0.744988   -0.000000
     10          1           0       -2.144187   -0.332064   -0.000000
 ---------------------------------------------------------------------

 SCF Done:  E(UHF) =  -4.84569048087     A.U. after   15 cycles
 E2 =    -0.9666331417D-01 EUMP2 =    -0.49423537950376D+01

 Unable to determine electronic state:  partially filled degenerate orbitals.
 Alpha  occ. eigenvalues --   -0.87613  -0.72813  -0.54371  -0.43107  -0.28375
 Alpha virt. eigenvalues --   -0.01457   0.20871   0.33064   0.51931   0.90336
  Beta  occ. eigenvalues --   -0.87613  -0.72813  -0.54371  -0.43107  -0.28375
  Beta virt. eigenvalues --   -0.01457   0.20871   0.33064   0.51931   0.90336

 Mulliken charges and spin densities:
               1          2
     1  H    0.044698  -0.075256
     2  H   -0.029042  -0.048527
     3  H   -0.062184  -0.249906
     4  H   -0.005978  -0.248301
     5  H    0.052505   0.009289
     6  H    0.052505  -0.009289
     7  H   -0.005978   0.248301
     8  H   -0.062184   0.249906
     9  H   -0.029042   0.048527
    10  H    0.044698   0.075256
 Sum of Mulliken charges =   0.00000  -0.00000

 Dipole moment (field-independent basis, Debye):
    X=              0.0000    Y=             -0.0000    Z=              0.0000  Tot=              0.0000
 Quadrupole moment (field-independent basis, Debye-Ang):
   XX=            -17.2314   YY=            -13.4211   ZZ=            -12.7657
   XY=              0.8752   XZ=             -0.0000   YZ=              0.0000

 Normal termination of Gaussian 09 at Tue Feb 28 16:39:46 2017.
