 Gaussian 09, Revision E.01,
 Gaussian 09:  ES64L-G09RevE.01 30-Nov-2015

 ----------------------------------------------------------------------
 #uhf/gen scf(tight,novaracc,noincfock,fulldiag, ) stable(crhf) guess=r
 ead geom=nocrowd test
 ----------------------------------------------------------------------

 hf stability analysis of h10 triangular lattice, y= 0.5365223526570523
 9 alpha= 26.500000000000000
 ----------------------------------------------------------------------
 Symbolic Z-matrix:
 Charge =  0 Multiplicity = 1

                         Standard orientation:
 ---------------------------------------------------------------------
 Center     Atomic      Atomic             Coordinates (Angstroms)
 Number     Number       Type             X           Y           Z
 ---------------------------------------------------------------------
      1          1           0        1.920609   -0.846067    0.000000
      2          1           0        1.920609   -2.048499    0.000000
      3          1           0        0.960305   -0.122426    0.000000
      4          1           0        0.960305   -1.324857    0.000000
      5          1           0        0.000000    0.601216   -0.000000
      6          1           0       -0.000000   -0.601216   -0.000000
      7          1           0       -0.960305    1.324857    0.000000
      8          1           0       -0.960305    0.122426   -0.000000
      9          1           0       -1.920609    2.048499    0.000000
     10          1           0       -1.920609    0.846067   -0.000000
 ---------------------------------------------------------------------

 SCF Done:  E(UHF) =  -4.86035200049     A.U. after   67 cycles
 E2 =    -0.9368123802D-01 EUMP2 =    -0.49540332385080D+01

 Unable to determine electronic state:  partially filled degenerate orbitals.
 Alpha  occ. eigenvalues --   -0.82772  -0.73685  -0.55945  -0.34626  -0.29491
 Alpha virt. eigenvalues --    0.03952   0.16707   0.25969   0.47197   0.58436
  Beta  occ. eigenvalues --   -0.82772  -0.73685  -0.55945  -0.34626  -0.29491
  Beta virt. eigenvalues --    0.03952   0.16707   0.25969   0.47197   0.58436

 Mulliken charges and spin densities:
               1          2
     1  H    0.063736   0.186799
     2  H   -0.029174  -0.460624
     3  H   -0.035299  -0.206249
     4  H    0.117201   0.064855
     5  H   -0.116463   0.011044
     6  H   -0.116463  -0.011044
     7  H    0.117201  -0.064855
     8  H   -0.035299   0.206249
     9  H   -0.029174   0.460624
    10  H    0.063736  -0.186799
 Sum of Mulliken charges =  -0.00000   0.00000

 Dipole moment (field-independent basis, Debye):
    X=              0.0000    Y=             -0.0000    Z=              0.0000  Tot=              0.0000
 Quadrupole moment (field-independent basis, Debye-Ang):
   XX=            -13.1955   YY=            -14.0158   ZZ=            -13.0253
   XY=             -1.0114   XZ=             -0.0000   YZ=             -0.0000

 Normal termination of Gaussian 09 at Tue Feb 28 16:36:44 2017.
