 Gaussian 09, Revision E.01,
 Gaussian 09:  ES64L-G09RevE.01 30-Nov-2015

 ----------------------------------------------------------------------
 #uhf/gen scf(tight,novaracc,noincfock,fulldiag, ) stable(crhf) guess=r
 ead geom=nocrowd test
 ----------------------------------------------------------------------

 hf stability analysis of h10 triangular lattice, y= 0.5453026111479248
 9 alpha= 27.250000000000000
 ----------------------------------------------------------------------
 Symbolic Z-matrix:
 Charge =  0 Multiplicity = 1

                         Standard orientation:
 ---------------------------------------------------------------------
 Center     Atomic      Atomic             Coordinates (Angstroms)
 Number     Number       Type             X           Y           Z
 ---------------------------------------------------------------------
      1          1           0        1.939133   -0.787698    0.000000
      2          1           0        1.939133   -1.978643    0.000000
      3          1           0        0.969567   -0.096113    0.000000
      4          1           0        0.969567   -1.287058    0.000000
      5          1           0        0.000000    0.595472    0.000000
      6          1           0       -0.000000   -0.595472    0.000000
      7          1           0       -0.969567    1.287058    0.000000
      8          1           0       -0.969567    0.096113    0.000000
      9          1           0       -1.939133    1.978643    0.000000
     10          1           0       -1.939133    0.787698    0.000000
 ---------------------------------------------------------------------

 SCF Done:  E(UHF) =  -4.86668640959     A.U. after   19 cycles
 E2 =    -0.9072035695D-01 EUMP2 =    -0.49574067665337D+01

 Unable to determine electronic state:  partially filled degenerate orbitals.
 Alpha  occ. eigenvalues --   -0.83191  -0.73720  -0.55887  -0.34816  -0.30372
 Alpha virt. eigenvalues --    0.03781   0.17564   0.26021   0.49268   0.58113
  Beta  occ. eigenvalues --   -0.83191  -0.73720  -0.55887  -0.34816  -0.30372
  Beta virt. eigenvalues --    0.03781   0.17564   0.26021   0.49268   0.58113

 Mulliken charges and spin densities:
               1          2
     1  H    0.060887   0.187936
     2  H   -0.030846  -0.447081
     3  H   -0.029044  -0.255838
     4  H    0.115092   0.068508
     5  H   -0.116089   0.039668
     6  H   -0.116089  -0.039668
     7  H    0.115092  -0.068508
     8  H   -0.029044   0.255838
     9  H   -0.030846   0.447081
    10  H    0.060887  -0.187936
 Sum of Mulliken charges =   0.00000   0.00000

 Dipole moment (field-independent basis, Debye):
    X=              0.0000    Y=             -0.0000    Z=              0.0000  Tot=              0.0000
 Quadrupole moment (field-independent basis, Debye-Ang):
   XX=            -13.3797   YY=            -14.1566   ZZ=            -13.0080
   XY=             -0.8123   XZ=              0.0000   YZ=              0.0000

 Normal termination of Gaussian 09 at Tue Feb 28 16:36:52 2017.
