 Gaussian 09, Revision E.01,
 Gaussian 09:  ES64L-G09RevE.01 30-Nov-2015

 ----------------------------------------------------------------------
 #uhf/gen scf(tight,novaracc,noincfock,fulldiag, ) stable(crhf) guess=r
 ead geom=nocrowd test
 ----------------------------------------------------------------------

 hf stability analysis of h10 triangular lattice, y= 0.7565274741654608
 4 alpha= 44.750000000000000
 ----------------------------------------------------------------------
 Symbolic Z-matrix:
 Charge =  0 Multiplicity = 1

                         Standard orientation:
 ---------------------------------------------------------------------
 Center     Atomic      Atomic             Coordinates (Angstroms)
 Number     Number       Type             X           Y           Z
 ---------------------------------------------------------------------
      1          1           0        2.149099    0.518540    0.000000
      2          1           0        2.149099   -0.556050    0.000000
      3          1           0        1.074549    0.527918    0.000000
      4          1           0        1.074549   -0.546673    0.000000
      5          1           0        0.000000    0.537295    0.000000
      6          1           0       -0.000000   -0.537295    0.000000
      7          1           0       -1.074549    0.546673    0.000000
      8          1           0       -1.074549   -0.527918    0.000000
      9          1           0       -2.149099    0.556050    0.000000
     10          1           0       -2.149099   -0.518540    0.000000
 ---------------------------------------------------------------------

 SCF Done:  E(UHF) =  -4.84336407563     A.U. after   15 cycles
 E2 =    -0.9728689320D-01 EUMP2 =    -0.49406509688275D+01

 Unable to determine electronic state:  partially filled degenerate orbitals.
 Alpha  occ. eigenvalues --   -0.87643  -0.72775  -0.54335  -0.43269  -0.28274
 Alpha virt. eigenvalues --   -0.01563   0.20758   0.33510   0.51824   0.91875
  Beta  occ. eigenvalues --   -0.87643  -0.72775  -0.54335  -0.43269  -0.28274
  Beta virt. eigenvalues --   -0.01563   0.20758   0.33510   0.51824   0.91875

 Mulliken charges and spin densities:
               1          2
     1  H    0.011424  -0.061975
     2  H    0.004588  -0.059585
     3  H   -0.037917  -0.250048
     4  H   -0.032719  -0.249964
     5  H    0.054624   0.000782
     6  H    0.054624  -0.000782
     7  H   -0.032719   0.249964
     8  H   -0.037917   0.250048
     9  H    0.004588   0.059585
    10  H    0.011424   0.061975
 Sum of Mulliken charges =   0.00000  -0.00000

 Dipole moment (field-independent basis, Debye):
    X=              0.0000    Y=             -0.0000    Z=             -0.0000  Tot=              0.0000
 Quadrupole moment (field-independent basis, Debye-Ang):
   XX=            -17.3147   YY=            -13.2601   ZZ=            -12.7586
   XY=              0.0814   XZ=              0.0000   YZ=             -0.0000

 Normal termination of Gaussian 09 at Tue Feb 28 16:40:15 2017.
