 Gaussian 09, Revision E.01,
 Gaussian 09:  ES64L-G09RevE.01 30-Nov-2015

 ----------------------------------------------------------------------
 #uhf/gen scf(tight,novaracc,noincfock,fulldiag, ) stable(crhf) guess=r
 ead geom=nocrowd test
 ----------------------------------------------------------------------

 hf stability analysis of h10 triangular lattice, y= 0.5040240137193442
 4 alpha= 23.750000000000000
 ----------------------------------------------------------------------
 Symbolic Z-matrix:
 Charge =  0 Multiplicity = 1

                         Standard orientation:
 ---------------------------------------------------------------------
 Center     Atomic      Atomic             Coordinates (Angstroms)
 Number     Number       Type             X           Y           Z
 ---------------------------------------------------------------------
      1          1           0        1.845356   -1.065224   -0.000000
      2          1           0        1.845356   -2.316690   -0.000000
      3          1           0        0.922678   -0.219745   -0.000000
      4          1           0        0.922678   -1.471212   -0.000000
      5          1           0        0.000000    0.625733    0.000000
      6          1           0       -0.000000   -0.625733    0.000000
      7          1           0       -0.922678    1.471212   -0.000000
      8          1           0       -0.922678    0.219745   -0.000000
      9          1           0       -1.845356    2.316690   -0.000000
     10          1           0       -1.845356    1.065224   -0.000000
 ---------------------------------------------------------------------

 SCF Done:  E(UHF) =  -4.82947104417     A.U. after   20 cycles
 E2 =    -0.9830924717D-01 EUMP2 =    -0.49277802913381D+01

 Unable to determine electronic state:  partially filled degenerate orbitals.
 Alpha  occ. eigenvalues --   -0.81200  -0.73240  -0.56180  -0.35483  -0.25378
 Alpha virt. eigenvalues --    0.05040   0.14170   0.24776   0.41186   0.59989
  Beta  occ. eigenvalues --   -0.81200  -0.73240  -0.56180  -0.35483  -0.25378
  Beta virt. eigenvalues --    0.05040   0.14170   0.24776   0.41186   0.59989

 Mulliken charges and spin densities:
               1          2
     1  H    0.051975   0.155533
     2  H   -0.007314  -0.536459
     3  H   -0.023469  -0.074087
     4  H    0.112427   0.041176
     5  H   -0.133618  -0.054876
     6  H   -0.133618   0.054876
     7  H    0.112427  -0.041176
     8  H   -0.023469   0.074087
     9  H   -0.007314   0.536459
    10  H    0.051975  -0.155533
 Sum of Mulliken charges =   0.00000  -0.00000

 Dipole moment (field-independent basis, Debye):
    X=              0.0000    Y=             -0.0000    Z=             -0.0000  Tot=              0.0000
 Quadrupole moment (field-independent basis, Debye-Ang):
   XX=            -12.6672   YY=            -12.9522   ZZ=            -13.0712
   XY=             -1.9863   XZ=             -0.0000   YZ=              0.0000

 Normal termination of Gaussian 09 at Tue Feb 28 16:36:10 2017.
