 Gaussian 09, Revision E.01,
 Gaussian 09:  ES64L-G09RevE.01 30-Nov-2015

 ----------------------------------------------------------------------
 #uhf/gen scf(tight,novaracc,noincfock,fulldiag, ) stable(crhf) guess=r
 ead geom=nocrowd test
 ----------------------------------------------------------------------

 hf stability analysis of h10 triangular lattice, y= 0.8258291078557595
 8 alpha= 49.750000000000000
 ----------------------------------------------------------------------
 Symbolic Z-matrix:
 Charge =  0 Multiplicity = 1

                         Standard orientation:
 ---------------------------------------------------------------------
 Center     Atomic      Atomic             Coordinates (Angstroms)
 Number     Number       Type             X           Y           Z
 ---------------------------------------------------------------------
      1          1           0        2.134352    0.898176    0.000000
      2          1           0        2.134352   -0.183840    0.000000
      3          1           0        1.067176    0.719592    0.000000
      4          1           0        1.067176   -0.362424    0.000000
      5          1           0        0.000000    0.541008    0.000000
      6          1           0       -0.000000   -0.541008   -0.000000
      7          1           0       -1.067176    0.362424    0.000000
      8          1           0       -1.067176   -0.719592   -0.000000
      9          1           0       -2.134352    0.183840    0.000000
     10          1           0       -2.134352   -0.898176   -0.000000
 ---------------------------------------------------------------------

 SCF Done:  E(UHF) =  -4.85009974028     A.U. after   15 cycles
 E2 =    -0.9548433526D-01 EUMP2 =    -0.49455840755401D+01

 Unable to determine electronic state:  partially filled degenerate orbitals.
 Alpha  occ. eigenvalues --   -0.87544  -0.72880  -0.54443  -0.42776  -0.28573
 Alpha virt. eigenvalues --   -0.01229   0.21095   0.32191   0.52145   0.87368
  Beta  occ. eigenvalues --   -0.87544  -0.72880  -0.54443  -0.42776  -0.28573
  Beta virt. eigenvalues --   -0.01229   0.21095   0.32191   0.52145   0.87368

 Mulliken charges and spin densities:
               1          2
     1  H   -0.053634  -0.040301
     2  H    0.068812  -0.087891
     3  H    0.015128  -0.244848
     4  H   -0.078700  -0.249900
     5  H    0.048394  -0.018344
     6  H    0.048394   0.018344
     7  H   -0.078700   0.249900
     8  H    0.015128   0.244848
     9  H    0.068812   0.087891
    10  H   -0.053634   0.040301
 Sum of Mulliken charges =   0.00000  -0.00000

 Dipole moment (field-independent basis, Debye):
    X=              0.0000    Y=             -0.0000    Z=             -0.0000  Tot=              0.0000
 Quadrupole moment (field-independent basis, Debye-Ang):
   XX=            -17.0638   YY=            -13.7266   ZZ=            -12.7796
   XY=             -1.4436   XZ=             -0.0000   YZ=             -0.0000

 Normal termination of Gaussian 09 at Tue Feb 28 16:41:14 2017.
