 Gaussian 09, Revision E.01,
 Gaussian 09:  ES64L-G09RevE.01 30-Nov-2015

 ----------------------------------------------------------------------
 #uhf/gen scf(tight,novaracc,noincfock,fulldiag, ) stable(crhf) guess=r
 ead geom=nocrowd test
 ----------------------------------------------------------------------

 hf stability analysis of h10 triangular lattice, y= 1.1127136872907215
  alpha= 65.000000000000000
 ----------------------------------------------------------------------
 Symbolic Z-matrix:
 Charge =  0 Multiplicity = 1

                         Standard orientation:
 ---------------------------------------------------------------------
 Center     Atomic      Atomic             Coordinates (Angstroms)
 Number     Number       Type             X           Y           Z
 ---------------------------------------------------------------------
      1          1           0        1.881012    2.192229    0.000000
      2          1           0        1.881012    0.964485    0.000000
      3          1           0        0.940506    1.403050    0.000000
      4          1           0        0.940506    0.175307    0.000000
      5          1           0       -0.000000    0.613872   -0.000000
      6          1           0       -0.000000   -0.613872   -0.000000
      7          1           0       -0.940506   -0.175307    0.000000
      8          1           0       -0.940506   -1.403050   -0.000000
      9          1           0       -1.881012   -0.964485    0.000000
     10          1           0       -1.881012   -2.192229   -0.000000
 ---------------------------------------------------------------------

 SCF Done:  E(UHF) =  -4.84526172560     A.U. after   19 cycles
 E2 =    -0.9765795426D-01 EUMP2 =    -0.49429196798622D+01

 Unable to determine electronic state:  partially filled degenerate orbitals.
 Alpha  occ. eigenvalues --   -0.81934  -0.73484  -0.56051  -0.34852  -0.27345
 Alpha virt. eigenvalues --    0.04521   0.15149   0.25550   0.43514   0.59247
  Beta  occ. eigenvalues --   -0.81934  -0.73484  -0.56051  -0.34852  -0.27345
  Beta virt. eigenvalues --    0.04521   0.15149   0.25550   0.43514   0.59247

 Mulliken charges and spin densities:
               1          2
     1  H   -0.020597  -0.493578
     2  H    0.063011   0.171088
     3  H    0.116080   0.042757
     4  H   -0.036128  -0.124896
     5  H   -0.122366   0.034519
     6  H   -0.122366  -0.034519
     7  H   -0.036128   0.124896
     8  H    0.116080  -0.042757
     9  H    0.063011  -0.171088
    10  H   -0.020597   0.493578
 Sum of Mulliken charges =  -0.00000  -0.00000

 Dipole moment (field-independent basis, Debye):
    X=              0.0000    Y=              0.0000    Z=              0.0000  Tot=              0.0000
 Quadrupole moment (field-independent basis, Debye-Ang):
   XX=            -12.8541   YY=            -13.5714   ZZ=            -13.0540
   XY=              1.4906   XZ=              0.0000   YZ=             -0.0000

 Normal termination of Gaussian 09 at Tue Feb 28 16:44:11 2017.
