 Gaussian 09, Revision E.01,
 Gaussian 09:  ES64L-G09RevE.01 30-Nov-2015

 ----------------------------------------------------------------------
 #uhf/gen scf(tight,novaracc,noincfock,fulldiag, ) stable(crhf) guess=r
 ead geom=nocrowd test
 ----------------------------------------------------------------------

 hf stability analysis of h10 triangular lattice, y= 0.8481530305026630
 0 alpha= 51.250000000000000
 ----------------------------------------------------------------------
 Symbolic Z-matrix:
 Charge =  0 Multiplicity = 1

                         Standard orientation:
 ---------------------------------------------------------------------
 Center     Atomic      Atomic             Coordinates (Angstroms)
 Number     Number       Type             X           Y           Z
 ---------------------------------------------------------------------
      1          1           0        2.123516    1.014540   -0.000000
      2          1           0        2.123516   -0.072996   -0.000000
      3          1           0        1.061758    0.779154   -0.000000
      4          1           0        1.061758   -0.308382   -0.000000
      5          1           0        0.000000    0.543768   -0.000000
      6          1           0       -0.000000   -0.543768   -0.000000
      7          1           0       -1.061758    0.308382   -0.000000
      8          1           0       -1.061758   -0.779154   -0.000000
      9          1           0       -2.123516    0.072996   -0.000000
     10          1           0       -2.123516   -1.014540   -0.000000
 ---------------------------------------------------------------------

 SCF Done:  E(UHF) =  -4.85457960108     A.U. after   16 cycles
 E2 =    -0.9428776758D-01 EUMP2 =    -0.49488673686601D+01

 Unable to determine electronic state:  partially filled degenerate orbitals.
 Alpha  occ. eigenvalues --   -0.87457  -0.72940  -0.54519  -0.42402  -0.28784
 Alpha virt. eigenvalues --   -0.00959   0.21337   0.31259   0.52384   0.84260
  Beta  occ. eigenvalues --   -0.87457  -0.72940  -0.54519  -0.42402  -0.28784
  Beta virt. eigenvalues --   -0.00959   0.21337   0.31259   0.52384   0.84260

 Mulliken charges and spin densities:
               1          2
     1  H   -0.069622  -0.034269
     2  H    0.084583  -0.098713
     3  H    0.029971  -0.240665
     4  H   -0.088948  -0.250487
     5  H    0.044016  -0.027285
     6  H    0.044016   0.027285
     7  H   -0.088948   0.250487
     8  H    0.029971   0.240665
     9  H    0.084583   0.098713
    10  H   -0.069622   0.034269
 Sum of Mulliken charges =   0.00000  -0.00000

 Dipole moment (field-independent basis, Debye):
    X=             -0.0000    Y=              0.0000    Z=              0.0000  Tot=              0.0000
 Quadrupole moment (field-independent basis, Debye-Ang):
   XX=            -16.8788   YY=            -14.0377   ZZ=            -12.7944
   XY=             -1.8018   XZ=              0.0000   YZ=              0.0000

 Normal termination of Gaussian 09 at Tue Feb 28 16:41:31 2017.
