 Gaussian 09, Revision E.01,
 Gaussian 09:  ES64L-G09RevE.01 30-Nov-2015

 ----------------------------------------------------------------------
 #uhf/gen scf(tight,novaracc,noincfock,fulldiag, ) stable(crhf) guess=r
 ead geom=nocrowd test
 ----------------------------------------------------------------------

 hf stability analysis of h10 triangular lattice, y= 1.2680906370950717
  alpha= 70.250000000000000
 ----------------------------------------------------------------------
 Symbolic Z-matrix:
 Charge =  0 Multiplicity = 1

                         Standard orientation:
 ---------------------------------------------------------------------
 Center     Atomic      Atomic             Coordinates (Angstroms)
 Number     Number       Type             X           Y           Z
 ---------------------------------------------------------------------
      1          1           0        1.714036    2.752966   -0.000000
      2          1           0        1.714036    1.405619   -0.000000
      3          1           0        0.857018    1.713319   -0.000000
      4          1           0        0.857018    0.365973   -0.000000
      5          1           0        0.000000    0.673673   -0.000000
      6          1           0       -0.000000   -0.673673   -0.000000
      7          1           0       -0.857018   -0.365973   -0.000000
      8          1           0       -0.857018   -1.713319   -0.000000
      9          1           0       -1.714036   -1.405619   -0.000000
     10          1           0       -1.714036   -2.752966   -0.000000
 ---------------------------------------------------------------------

 SCF Done:  E(UHF) =  -4.87913586541     A.U. after   13 cycles
 E2 =    -0.5233910365D-01 EUMP2 =    -0.49314749690541D+01

 Unable to determine electronic state:  partially filled degenerate orbitals.
 Alpha  occ. eigenvalues --   -0.80585  -0.72202  -0.58751  -0.41434  -0.28301
 Alpha virt. eigenvalues --    0.09000   0.22059   0.24871   0.40258   0.59313
  Beta  occ. eigenvalues --   -0.80585  -0.72202  -0.58751  -0.41434  -0.28301
  Beta virt. eigenvalues --    0.09000   0.22059   0.24871   0.40258   0.59313

 Mulliken charges and spin densities:
               1          2
     1  H   -0.097007  -0.813693
     2  H   -0.059942  -0.433376
     3  H    0.127923   0.305319
     4  H    0.066811   0.260085
     5  H   -0.037785  -0.318540
     6  H   -0.037785   0.318540
     7  H    0.066811  -0.260085
     8  H    0.127923  -0.305319
     9  H   -0.059942   0.433376
    10  H   -0.097007   0.813693
 Sum of Mulliken charges =  -0.00000   0.00000

 Dipole moment (field-independent basis, Debye):
    X=             -0.0000    Y=             -0.0000    Z=              0.0000  Tot=              0.0000
 Quadrupole moment (field-independent basis, Debye-Ang):
   XX=            -16.3671   YY=            -21.6363   ZZ=            -12.6167
   XY=             -6.8709   XZ=             -0.0000   YZ=             -0.0000

 Normal termination of Gaussian 09 at Tue Feb 28 16:45:11 2017.
