 Gaussian 09, Revision E.01,
 Gaussian 09:  ES64L-G09RevE.01 30-Nov-2015

 ----------------------------------------------------------------------
 #uhf/gen scf(tight,novaracc,noincfock,fulldiag, ) stable(crhf) guess=r
 ead geom=nocrowd test
 ----------------------------------------------------------------------

 hf stability analysis of h10 triangular lattice, y= 0.8914339662136427
 9 alpha= 54.000000000000000
 ----------------------------------------------------------------------
 Symbolic Z-matrix:
 Charge =  0 Multiplicity = 1

                         Standard orientation:
 ---------------------------------------------------------------------
 Center     Atomic      Atomic             Coordinates (Angstroms)
 Number     Number       Type             X           Y           Z
 ---------------------------------------------------------------------
      1          1           0        2.095887    1.231931    0.000000
      2          1           0        2.095887    0.130058    0.000000
      3          1           0        1.047943    0.891434    0.000000
      4          1           0        1.047943   -0.210439    0.000000
      5          1           0        0.000000    0.550936    0.000000
      6          1           0       -0.000000   -0.550936    0.000000
      7          1           0       -1.047943    0.210439    0.000000
      8          1           0       -1.047943   -0.891434    0.000000
      9          1           0       -2.095887   -0.130058    0.000000
     10          1           0       -2.095887   -1.231931    0.000000
 ---------------------------------------------------------------------

 SCF Done:  E(UHF) =  -4.86425336748     A.U. after   16 cycles
 E2 =    -0.9168186363D-01 EUMP2 =    -0.49559352311067D+01

 Unable to determine electronic state:  partially filled degenerate orbitals.
 Alpha  occ. eigenvalues --   -0.87189  -0.73036  -0.54702  -0.41413  -0.29294
 Alpha virt. eigenvalues --   -0.00194   0.21933   0.29010   0.53006   0.77022
  Beta  occ. eigenvalues --   -0.87189  -0.73036  -0.54702  -0.41413  -0.29294
  Beta virt. eigenvalues --   -0.00194   0.21933   0.29010   0.53006   0.77022

 Mulliken charges and spin densities:
               1          2
     1  H   -0.091225  -0.023856
     2  H    0.106732  -0.121065
     3  H    0.053444  -0.228754
     4  H   -0.102069  -0.254137
     5  H    0.033119  -0.049665
     6  H    0.033119   0.049665
     7  H   -0.102069   0.254137
     8  H    0.053444   0.228754
     9  H    0.106732   0.121065
    10  H   -0.091225   0.023856
 Sum of Mulliken charges =   0.00000  -0.00000

 Dipole moment (field-independent basis, Debye):
    X=              0.0000    Y=              0.0000    Z=              0.0000  Tot=              0.0000
 Quadrupole moment (field-independent basis, Debye-Ang):
   XX=            -16.4119   YY=            -14.7125   ZZ=            -12.8296
   XY=             -2.2441   XZ=              0.0000   YZ=              0.0000

 Normal termination of Gaussian 09 at Tue Feb 28 16:42:03 2017.
