 Gaussian 09, Revision E.01,
 Gaussian 09:  ES64L-G09RevE.01 30-Nov-2015

 ----------------------------------------------------------------------
 #uhf/gen scf(tight,novaracc,noincfock,fulldiag, ) stable(crhf) guess=r
 ead geom=nocrowd test
 ----------------------------------------------------------------------

 hf stability analysis of h10 triangular lattice, y= 1.2509902265939778
  alpha= 69.750000000000000
 ----------------------------------------------------------------------
 Symbolic Z-matrix:
 Charge =  0 Multiplicity = 1

                         Standard orientation:
 ---------------------------------------------------------------------
 Center     Atomic      Atomic             Coordinates (Angstroms)
 Number     Number       Type             X           Y           Z
 ---------------------------------------------------------------------
      1          1           0        1.731956    2.694563    0.000000
      2          1           0        1.731956    1.361157    0.000000
      3          1           0        0.865978    1.680633    0.000000
      4          1           0        0.865978    0.347227    0.000000
      5          1           0        0.000000    0.666703    0.000000
      6          1           0       -0.000000   -0.666703    0.000000
      7          1           0       -0.865978   -0.347227    0.000000
      8          1           0       -0.865978   -1.680633    0.000000
      9          1           0       -1.731956   -1.361157    0.000000
     10          1           0       -1.731956   -2.694563    0.000000
 ---------------------------------------------------------------------

 SCF Done:  E(UHF) =  -4.85996444930     A.U. after   42 cycles
 E2 =    -0.5151248268D-01 EUMP2 =    -0.49114769319787D+01

 Unable to determine electronic state:  partially filled degenerate orbitals.
 Alpha  occ. eigenvalues --   -0.81163  -0.72524  -0.58654  -0.40722  -0.27945
 Alpha virt. eigenvalues --    0.08239   0.21220   0.25113   0.39500   0.58962
  Beta  occ. eigenvalues --   -0.81163  -0.72524  -0.58654  -0.40722  -0.27945
  Beta virt. eigenvalues --    0.08239   0.21220   0.25113   0.39500   0.58962

 Mulliken charges and spin densities:
               1          2
     1  H   -0.097259  -0.770107
     2  H   -0.067195  -0.476705
     3  H    0.138955   0.322465
     4  H    0.075694   0.270794
     5  H   -0.050195  -0.348989
     6  H   -0.050195   0.348989
     7  H    0.075694  -0.270794
     8  H    0.138955  -0.322465
     9  H   -0.067195   0.476705
    10  H   -0.097259   0.770107
 Sum of Mulliken charges =   0.00000   0.00000

 Dipole moment (field-independent basis, Debye):
    X=             -0.0000    Y=             -0.0000    Z=             -0.0000  Tot=              0.0000
 Quadrupole moment (field-independent basis, Debye-Ang):
   XX=            -16.6875   YY=            -21.0835   ZZ=            -12.6474
   XY=             -6.5306   XZ=             -0.0000   YZ=             -0.0000

 Normal termination of Gaussian 09 at Tue Feb 28 16:45:05 2017.
