 Gaussian 09, Revision E.01,
 Gaussian 09:  ES64L-G09RevE.01 30-Nov-2015

 ----------------------------------------------------------------------
 #uhf/gen scf(tight,novaracc,noincfock,fulldiag, ) stable(crhf) guess=r
 ead geom=nocrowd test
 ----------------------------------------------------------------------

 hf stability analysis of h10 triangular lattice, y= 1.1806129676413906
  alpha= 67.500000000000000
 ----------------------------------------------------------------------
 Symbolic Z-matrix:
 Charge =  0 Multiplicity = 1

                         Standard orientation:
 ---------------------------------------------------------------------
 Center     Atomic      Atomic             Coordinates (Angstroms)
 Number     Number       Type             X           Y           Z
 ---------------------------------------------------------------------
      1          1           0        1.807204    2.446147   -0.000000
      2          1           0        1.807204    1.168261   -0.000000
      3          1           0        0.903602    1.542545   -0.000000
      4          1           0        0.903602    0.264659   -0.000000
      5          1           0        0.000000    0.638943   -0.000000
      6          1           0       -0.000000   -0.638943   -0.000000
      7          1           0       -0.903602   -0.264659    0.000000
      8          1           0       -0.903602   -1.542545   -0.000000
      9          1           0       -1.807204   -1.168261   -0.000000
     10          1           0       -1.807204   -2.446147   -0.000000
 ---------------------------------------------------------------------

 SCF Done:  E(UHF) =  -4.81021324421     A.U. after   18 cycles
 E2 =    -0.9661996487D-01 EUMP2 =    -0.49068332090726D+01

 Unable to determine electronic state:  partially filled degenerate orbitals.
 Alpha  occ. eigenvalues --   -0.80450  -0.72948  -0.56371  -0.36412  -0.23303
 Alpha virt. eigenvalues --    0.05189   0.13901   0.23437   0.39726   0.60685
  Beta  occ. eigenvalues --   -0.80450  -0.72948  -0.56371  -0.36412  -0.23303
  Beta virt. eigenvalues --    0.05189   0.13901   0.23437   0.39726   0.60685

 Mulliken charges and spin densities:
               1          2
     1  H    0.008390  -0.590159
     2  H    0.028051   0.136488
     3  H    0.111947   0.079914
     4  H    0.006064  -0.026464
     5  H   -0.154452   0.055293
     6  H   -0.154452  -0.055293
     7  H    0.006064   0.026464
     8  H    0.111947  -0.079914
     9  H    0.028051  -0.136488
    10  H    0.008390   0.590159
 Sum of Mulliken charges =  -0.00000   0.00000

 Dipole moment (field-independent basis, Debye):
    X=             -0.0000    Y=             -0.0000    Z=             -0.0000  Tot=              0.0000
 Quadrupole moment (field-independent basis, Debye-Ang):
   XX=            -12.6874   YY=            -12.1820   ZZ=            -13.0790
   XY=              2.3936   XZ=              0.0000   YZ=             -0.0000

 Normal termination of Gaussian 09 at Tue Feb 28 16:44:40 2017.
