 Gaussian 09, Revision E.01,
 Gaussian 09:  ES64L-G09RevE.01 30-Nov-2015

 ----------------------------------------------------------------------
 #uhf/gen scf(tight,novaracc,noincfock,fulldiag, ) stable(crhf) guess=r
 ead geom=nocrowd test
 ----------------------------------------------------------------------

 hf stability analysis of h10 triangular lattice, y= 1.1002000313062268
  alpha= 64.500000000000000
 ----------------------------------------------------------------------
 Symbolic Z-matrix:
 Charge =  0 Multiplicity = 1

                         Standard orientation:
 ---------------------------------------------------------------------
 Center     Atomic      Atomic             Coordinates (Angstroms)
 Number     Number       Type             X           Y           Z
 ---------------------------------------------------------------------
      1          1           0        1.894593    2.143683    0.000000
      2          1           0        1.894593    0.924740    0.000000
      3          1           0        0.947297    1.376577    0.000000
      4          1           0        0.947297    0.157634    0.000000
      5          1           0       -0.000000    0.609472    0.000000
      6          1           0       -0.000000   -0.609472    0.000000
      7          1           0       -0.947297   -0.157634    0.000000
      8          1           0       -0.947297   -1.376577    0.000000
      9          1           0       -1.894593   -0.924740    0.000000
     10          1           0       -1.894593   -2.143683    0.000000
 ---------------------------------------------------------------------

 SCF Done:  E(UHF) =  -4.85070042804     A.U. after   63 cycles
 E2 =    -0.9672237398D-01 EUMP2 =    -0.49474228020258D+01

 Unable to determine electronic state:  partially filled degenerate orbitals.
 Alpha  occ. eigenvalues --   -0.82218  -0.73565  -0.56012  -0.34702  -0.28094
 Alpha virt. eigenvalues --    0.04306   0.15638   0.25739   0.44651   0.58960
  Beta  occ. eigenvalues --   -0.82218  -0.73565  -0.56012  -0.34702  -0.28094
  Beta virt. eigenvalues --    0.04306   0.15638   0.25739   0.44651   0.58960

 Mulliken charges and spin densities:
               1          2
     1  H   -0.024464  -0.480504
     2  H    0.064627   0.176911
     3  H    0.117109   0.049295
     4  H   -0.037700  -0.149072
     5  H   -0.119572   0.021719
     6  H   -0.119572  -0.021719
     7  H   -0.037700   0.149072
     8  H    0.117109  -0.049295
     9  H    0.064627  -0.176911
    10  H   -0.024464   0.480504
 Sum of Mulliken charges =   0.00000  -0.00000

 Dipole moment (field-independent basis, Debye):
    X=             -0.0000    Y=             -0.0000    Z=              0.0000  Tot=              0.0000
 Quadrupole moment (field-independent basis, Debye-Ang):
   XX=            -12.9593   YY=            -13.7550   ZZ=            -13.0454
   XY=              1.3117   XZ=             -0.0000   YZ=              0.0000

 Normal termination of Gaussian 09 at Tue Feb 28 16:44:05 2017.
