 Gaussian 09, Revision E.01,
 Gaussian 09:  ES64L-G09RevE.01 30-Nov-2015

 ----------------------------------------------------------------------
 #uhf/gen scf(tight,novaracc,noincfock,fulldiag, ) stable(crhf) guess=r
 ead geom=nocrowd test
 ----------------------------------------------------------------------

 hf stability analysis of h10 triangular lattice, y= 0.6387729204659229
 3 alpha= 35.250000000000000
 ----------------------------------------------------------------------
 Symbolic Z-matrix:
 Charge =  0 Multiplicity = 1

                         Standard orientation:
 ---------------------------------------------------------------------
 Center     Atomic      Atomic             Coordinates (Angstroms)
 Number     Number       Type             X           Y           Z
 ---------------------------------------------------------------------
      1          1           0        2.086594   -0.185512    0.000000
      2          1           0        2.086594   -1.292292    0.000000
      3          1           0        1.043297    0.183939    0.000000
      4          1           0        1.043297   -0.922841    0.000000
      5          1           0        0.000000    0.553390   -0.000000
      6          1           0       -0.000000   -0.553390   -0.000000
      7          1           0       -1.043297    0.922841    0.000000
      8          1           0       -1.043297   -0.183939    0.000000
      9          1           0       -2.086594    1.292292    0.000000
     10          1           0       -2.086594    0.185512    0.000000
 ---------------------------------------------------------------------

 SCF Done:  E(UHF) =  -4.86695473995     A.U. after   16 cycles
 E2 =    -0.9093732064D-01 EUMP2 =    -0.49578920605871D+01

 Unable to determine electronic state:  partially filled degenerate orbitals.
 Alpha  occ. eigenvalues --   -0.87084  -0.73051  -0.54760  -0.41069  -0.29458
 Alpha virt. eigenvalues --    0.00085   0.22126   0.28292   0.53219   0.74786
  Beta  occ. eigenvalues --   -0.87084  -0.73051  -0.54760  -0.41069  -0.29458
  Beta virt. eigenvalues --    0.00085   0.22126   0.28292   0.53219   0.74786

 Mulliken charges and spin densities:
               1          2
     1  H    0.110986  -0.127333
     2  H   -0.095040  -0.021580
     3  H   -0.104152  -0.256013
     4  H    0.058818  -0.224410
     5  H    0.029387   0.057165
     6  H    0.029387  -0.057165
     7  H    0.058818   0.224410
     8  H   -0.104152   0.256013
     9  H   -0.095040   0.021580
    10  H    0.110986   0.127333
 Sum of Mulliken charges =  -0.00000  -0.00000

 Dipole moment (field-independent basis, Debye):
    X=             -0.0000    Y=              0.0000    Z=             -0.0000  Tot=              0.0000
 Quadrupole moment (field-independent basis, Debye-Ang):
   XX=            -16.2576   YY=            -14.9018   ZZ=            -12.8408
   XY=              2.3059   XZ=             -0.0000   YZ=              0.0000

 Normal termination of Gaussian 09 at Tue Feb 28 16:38:27 2017.
