 Gaussian 09, Revision E.01,
 Gaussian 09:  ES64L-G09RevE.01 30-Nov-2015

 ----------------------------------------------------------------------
 #uhf/gen scf(tight,novaracc,noincfock,fulldiag, ) stable(crhf) guess=r
 ead geom=nocrowd test
 ----------------------------------------------------------------------

 hf stability analysis of h10 triangular lattice, y= 1.1733815430447392
  alpha= 67.250000000000000
 ----------------------------------------------------------------------
 Symbolic Z-matrix:
 Charge =  0 Multiplicity = 1

                         Standard orientation:
 ---------------------------------------------------------------------
 Center     Atomic      Atomic             Coordinates (Angstroms)
 Number     Number       Type             X           Y           Z
 ---------------------------------------------------------------------
      1          1           0        1.815038    2.419818   -0.000000
      2          1           0        1.815038    1.147448   -0.000000
      3          1           0        0.907519    1.528002   -0.000000
      4          1           0        0.907519    0.255631   -0.000000
      5          1           0        0.000000    0.636185    0.000000
      6          1           0       -0.000000   -0.636185   -0.000000
      7          1           0       -0.907519   -0.255631   -0.000000
      8          1           0       -0.907519   -1.528002   -0.000000
      9          1           0       -1.815038   -1.147448   -0.000000
     10          1           0       -1.815038   -2.419818   -0.000000
 ---------------------------------------------------------------------

 SCF Done:  E(UHF) =  -4.81433017015     A.U. after   18 cycles
 E2 =    -0.9719686264D-01 EUMP2 =    -0.49115270327990D+01

 Unable to determine electronic state:  partially filled degenerate orbitals.
 Alpha  occ. eigenvalues --   -0.80598  -0.73011  -0.56325  -0.36203  -0.23725
 Alpha virt. eigenvalues --    0.05212   0.13864   0.23755   0.39945   0.60556
  Beta  occ. eigenvalues --   -0.80598  -0.73011  -0.56325  -0.36203  -0.23725
  Beta virt. eigenvalues --    0.05212   0.13864   0.23755   0.39945   0.60556

 Mulliken charges and spin densities:
               1          2
     1  H    0.005293  -0.578728
     2  H    0.034238   0.140514
     3  H    0.111400   0.067184
     4  H   -0.001704  -0.036616
     5  H   -0.149228   0.057080
     6  H   -0.149228  -0.057080
     7  H   -0.001704   0.036616
     8  H    0.111400  -0.067184
     9  H    0.034238  -0.140514
    10  H    0.005293   0.578728
 Sum of Mulliken charges =   0.00000   0.00000

 Dipole moment (field-independent basis, Debye):
    X=              0.0000    Y=              0.0000    Z=             -0.0000  Tot=              0.0000
 Quadrupole moment (field-independent basis, Debye-Ang):
   XX=            -12.6560   YY=            -12.3367   ZZ=            -13.0787
   XY=              2.3372   XZ=              0.0000   YZ=              0.0000

 Normal termination of Gaussian 09 at Tue Feb 28 16:44:37 2017.
