 Gaussian 09, Revision E.01,
 Gaussian 09:  ES64L-G09RevE.01 30-Nov-2015

 ----------------------------------------------------------------------
 #uhf/gen scf(tight,novaracc,noincfock,fulldiag, ) stable(crhf) guess=r
 ead geom=nocrowd test
 ----------------------------------------------------------------------

 hf stability analysis of h10 triangular lattice, y= 0.5218199625932952
 2 alpha= 25.250000000000000
 ----------------------------------------------------------------------
 Symbolic Z-matrix:
 Charge =  0 Multiplicity = 1

                         Standard orientation:
 ---------------------------------------------------------------------
 Center     Atomic      Atomic             Coordinates (Angstroms)
 Number     Number       Type             X           Y           Z
 ---------------------------------------------------------------------
      1          1           0        1.887851   -0.944576    0.000000
      2          1           0        1.887851   -2.167872    0.000000
      3          1           0        0.943925   -0.166464    0.000000
      4          1           0        0.943925   -1.389760    0.000000
      5          1           0        0.000000    0.611648    0.000000
      6          1           0       -0.000000   -0.611648   -0.000000
      7          1           0       -0.943925    1.389760    0.000000
      8          1           0       -0.943925    0.166464    0.000000
      9          1           0       -1.887851    2.167872    0.000000
     10          1           0       -1.887851    0.944576    0.000000
 ---------------------------------------------------------------------

 SCF Done:  E(UHF) =  -4.84803765784     A.U. after   18 cycles
 E2 =    -0.9724169762D-01 EUMP2 =    -0.49452793554621D+01

 Unable to determine electronic state:  partially filled degenerate orbitals.
 Alpha  occ. eigenvalues --   -0.82077  -0.73526  -0.56031  -0.34769  -0.27723
 Alpha virt. eigenvalues --    0.04411   0.15389   0.25651   0.44070   0.59102
  Beta  occ. eigenvalues --   -0.82077  -0.73526  -0.56031  -0.34769  -0.27723
  Beta virt. eigenvalues --    0.04411   0.15389   0.25651   0.44070   0.59102

 Mulliken charges and spin densities:
               1          2
     1  H    0.064010   0.174032
     2  H   -0.022654  -0.486741
     3  H   -0.037152  -0.136627
     4  H    0.116656   0.045749
     5  H   -0.120859  -0.028449
     6  H   -0.120859   0.028449
     7  H    0.116656  -0.045749
     8  H   -0.037152   0.136627
     9  H   -0.022654   0.486741
    10  H    0.064010  -0.174032
 Sum of Mulliken charges =   0.00000   0.00000

 Dipole moment (field-independent basis, Debye):
    X=              0.0000    Y=             -0.0000    Z=              0.0000  Tot=              0.0000
 Quadrupole moment (field-independent basis, Debye-Ang):
   XX=            -12.9051   YY=            -13.6680   ZZ=            -13.0498
   XY=             -1.3990   XZ=             -0.0000   YZ=             -0.0000

 Normal termination of Gaussian 09 at Tue Feb 28 16:36:29 2017.
