 Gaussian 09, Revision E.01,
 Gaussian 09:  ES64L-G09RevE.01 30-Nov-2015

 ----------------------------------------------------------------------
 #uhf/gen scf(tight,novaracc,noincfock,fulldiag, ) stable(crhf) guess=r
 ead geom=nocrowd test
 ----------------------------------------------------------------------

 hf stability analysis of h10 triangular lattice, y= 0.9659128830031019
 6 alpha= 58.250000000000000
 ----------------------------------------------------------------------
 Symbolic Z-matrix:
 Charge =  0 Multiplicity = 1

                         Standard orientation:
 ---------------------------------------------------------------------
 Center     Atomic      Atomic             Coordinates (Angstroms)
 Number     Number       Type             X           Y           Z
 ---------------------------------------------------------------------
      1          1           0        2.033107    1.581619   -0.000000
      2          1           0        2.033107    0.445721   -0.000000
      3          1           0        1.016554    1.074784   -0.000000
      4          1           0        1.016554   -0.061114   -0.000000
      5          1           0        0.000000    0.567949    0.000000
      6          1           0       -0.000000   -0.567949    0.000000
      7          1           0       -1.016554    0.061114   -0.000000
      8          1           0       -1.016554   -1.074784   -0.000000
      9          1           0       -2.033107   -0.445721   -0.000000
     10          1           0       -2.033107   -1.581619   -0.000000
 ---------------------------------------------------------------------

 SCF Done:  E(UHF) =  -4.87721073781     A.U. after   18 cycles
 E2 =    -0.8777185958D-01 EUMP2 =    -0.49649825973939D+01

 Unable to determine electronic state:  partially filled degenerate orbitals.
 Alpha  occ. eigenvalues --   -0.86342  -0.73006  -0.55040  -0.38993  -0.30334
 Alpha virt. eigenvalues --    0.01834   0.23133   0.24509   0.54465   0.63584
  Beta  occ. eigenvalues --   -0.86342  -0.73006  -0.55040  -0.38993  -0.30334
  Beta virt. eigenvalues --    0.01834   0.23133   0.24509   0.54465   0.63584

 Mulliken charges and spin densities:
               1          2
     1  H   -0.098257  -0.032910
     2  H    0.117550  -0.143515
     3  H    0.077992  -0.195390
     4  H   -0.100262  -0.275622
     5  H    0.002977  -0.095853
     6  H    0.002977   0.095853
     7  H   -0.100262   0.275622
     8  H    0.077992   0.195390
     9  H    0.117550   0.143515
    10  H   -0.098257   0.032910
 Sum of Mulliken charges =  -0.00000  -0.00000

 Dipole moment (field-independent basis, Debye):
    X=             -0.0000    Y=             -0.0000    Z=             -0.0000  Tot=              0.0000
 Quadrupole moment (field-independent basis, Debye-Ang):
   XX=            -15.4050   YY=            -15.6142   ZZ=            -12.8992
   XY=             -2.1684   XZ=              0.0000   YZ=              0.0000

 Normal termination of Gaussian 09 at Tue Feb 28 16:42:51 2017.
