 Gaussian 09, Revision E.01,
 Gaussian 09:  ES64L-G09RevE.01 30-Nov-2015

 ----------------------------------------------------------------------
 #uhf/gen scf(tight,novaracc,noincfock,fulldiag, ) stable(crhf) guess=r
 ead geom=nocrowd test
 ----------------------------------------------------------------------

 hf stability analysis of h10 triangular lattice, y= 1.1954046164231349
  alpha= 68.000000000000000
 ----------------------------------------------------------------------
 Symbolic Z-matrix:
 Charge =  0 Multiplicity = 1

                         Standard orientation:
 ---------------------------------------------------------------------
 Center     Atomic      Atomic             Coordinates (Angstroms)
 Number     Number       Type             X           Y           Z
 ---------------------------------------------------------------------
      1          1           0        1.791226    2.499511    0.000000
      2          1           0        1.791226    1.210226    0.000000
      3          1           0        0.895613    1.572077    0.000000
      4          1           0        0.895613    0.282792    0.000000
      5          1           0        0.000000    0.644643    0.000000
      6          1           0       -0.000000   -0.644643   -0.000000
      7          1           0       -0.895613   -0.282792   -0.000000
      8          1           0       -0.895613   -1.572077   -0.000000
      9          1           0       -1.791226   -1.210226   -0.000000
     10          1           0       -1.791226   -2.499511   -0.000000
 ---------------------------------------------------------------------

 SCF Done:  E(UHF) =  -4.80169355438     A.U. after   20 cycles
 E2 =    -0.9489079599D-01 EUMP2 =    -0.48965843503675D+01

 Unable to determine electronic state:  partially filled degenerate orbitals.
 Alpha  occ. eigenvalues --   -0.80173  -0.72804  -0.56485  -0.36876  -0.22464
 Alpha virt. eigenvalues --    0.05046   0.14164   0.22734   0.39402   0.60918
  Beta  occ. eigenvalues --   -0.80173  -0.72804  -0.56485  -0.36876  -0.22464
  Beta virt. eigenvalues --    0.05046   0.14164   0.22734   0.39402   0.60918

 Mulliken charges and spin densities:
               1          2
     1  H    0.014066  -0.614345
     2  H    0.013198   0.129943
     3  H    0.114152   0.114691
     4  H    0.024663  -0.003793
     5  H   -0.166080   0.049806
     6  H   -0.166080  -0.049806
     7  H    0.024663   0.003793
     8  H    0.114152  -0.114691
     9  H    0.013198  -0.129943
    10  H    0.014066   0.614345
 Sum of Mulliken charges =   0.00000  -0.00000

 Dipole moment (field-independent basis, Debye):
    X=             -0.0000    Y=             -0.0000    Z=             -0.0000  Tot=              0.0000
 Quadrupole moment (field-independent basis, Debye-Ang):
   XX=            -12.8098   YY=            -11.9059   ZZ=            -13.0758
   XY=              2.4280   XZ=              0.0000   YZ=              0.0000

 Normal termination of Gaussian 09 at Tue Feb 28 16:44:46 2017.
