 Gaussian 09, Revision E.01,
 Gaussian 09:  ES64L-G09RevE.01 30-Nov-2015

 ----------------------------------------------------------------------
 #uhf/gen scf(tight,novaracc,noincfock,fulldiag, ) stable(crhf) guess=r
 ead geom=nocrowd test
 ----------------------------------------------------------------------

 hf stability analysis of h10 triangular lattice, y= 0.7305457695626856
 9 alpha= 42.750000000000000
 ----------------------------------------------------------------------
 Symbolic Z-matrix:
 Charge =  0 Multiplicity = 1

                         Standard orientation:
 ---------------------------------------------------------------------
 Center     Atomic      Atomic             Coordinates (Angstroms)
 Number     Number       Type             X           Y           Z
 ---------------------------------------------------------------------
      1          1           0        2.145825    0.369235   -0.000000
      2          1           0        2.145825   -0.706995   -0.000000
      3          1           0        1.072912    0.453675   -0.000000
      4          1           0        1.072912   -0.622555   -0.000000
      5          1           0       -0.000000    0.538115    0.000000
      6          1           0       -0.000000   -0.538115    0.000000
      7          1           0       -1.072912    0.622555   -0.000000
      8          1           0       -1.072912   -0.453675   -0.000000
      9          1           0       -2.145825    0.706995   -0.000000
     10          1           0       -2.145825   -0.369235   -0.000000
 ---------------------------------------------------------------------

 SCF Done:  E(UHF) =  -4.84492408936     A.U. after   15 cycles
 E2 =    -0.9686859586D-01 EUMP2 =    -0.49417926852268D+01

 Unable to determine electronic state:  partially filled degenerate orbitals.
 Alpha  occ. eigenvalues --   -0.87623  -0.72800  -0.54359  -0.43161  -0.28342
 Alpha virt. eigenvalues --   -0.01493   0.20833   0.33212   0.51895   0.90845
  Beta  occ. eigenvalues --   -0.87623  -0.72800  -0.54359  -0.43161  -0.28342
  Beta virt. eigenvalues --   -0.01493   0.20833   0.33212   0.51895   0.90845

 Mulliken charges and spin densities:
               1          2
     1  H    0.038247  -0.072397
     2  H   -0.022481  -0.050646
     3  H   -0.057611  -0.249966
     4  H   -0.011361  -0.248837
     5  H    0.053206   0.007413
     6  H    0.053206  -0.007413
     7  H   -0.011361   0.248837
     8  H   -0.057611   0.249966
     9  H   -0.022481   0.050646
    10  H    0.038247   0.072397
 Sum of Mulliken charges =   0.00000   0.00000

 Dipole moment (field-independent basis, Debye):
    X=             -0.0000    Y=             -0.0000    Z=              0.0000  Tot=              0.0000
 Quadrupole moment (field-independent basis, Debye-Ang):
   XX=            -17.2592   YY=            -13.3680   ZZ=            -12.7634
   XY=              0.7215   XZ=             -0.0000   YZ=              0.0000

 Normal termination of Gaussian 09 at Tue Feb 28 16:39:52 2017.
