 Gaussian 09, Revision E.01,
 Gaussian 09:  ES64L-G09RevE.01 30-Nov-2015

 ----------------------------------------------------------------------
 #uhf/gen scf(tight,novaracc,noincfock,fulldiag, ) stable(crhf) guess=r
 ead geom=nocrowd test
 ----------------------------------------------------------------------

 hf stability analysis of h10 triangular lattice, y= 0.9122757376900774
 2 alpha= 55.250000000000000
 ----------------------------------------------------------------------
 Symbolic Z-matrix:
 Charge =  0 Multiplicity = 1

                         Standard orientation:
 ---------------------------------------------------------------------
 Center     Atomic      Atomic             Coordinates (Angstroms)
 Number     Number       Type             X           Y           Z
 ---------------------------------------------------------------------
      1          1           0        2.079977    1.332822    0.000000
      2          1           0        2.079977    0.222521    0.000000
      3          1           0        1.039988    0.943986    0.000000
      4          1           0        1.039988   -0.166315    0.000000
      5          1           0       -0.000000    0.555151    0.000000
      6          1           0       -0.000000   -0.555151   -0.000000
      7          1           0       -1.039988    0.166315    0.000000
      8          1           0       -1.039988   -0.943986    0.000000
      9          1           0       -2.079977   -0.222521    0.000000
     10          1           0       -2.079977   -1.332822    0.000000
 ---------------------------------------------------------------------

 SCF Done:  E(UHF) =  -4.86871144664     A.U. after   16 cycles
 E2 =    -0.9044476233D-01 EUMP2 =    -0.49591562089739D+01

 Unable to determine electronic state:  partially filled degenerate orbitals.
 Alpha  occ. eigenvalues --   -0.87005  -0.73058  -0.54799  -0.40821  -0.29573
 Alpha virt. eigenvalues --    0.00289   0.22260   0.27793   0.53372   0.73250
  Beta  occ. eigenvalues --   -0.87005  -0.73058  -0.54799  -0.40821  -0.29573
  Beta virt. eigenvalues --    0.00289   0.22260   0.27793   0.53372   0.73250

 Mulliken charges and spin densities:
               1          2
     1  H   -0.097029  -0.020406
     2  H    0.113342  -0.131382
     3  H    0.062137  -0.221215
     4  H   -0.105112  -0.257565
     5  H    0.026662  -0.062464
     6  H    0.026662   0.062464
     7  H   -0.105112   0.257565
     8  H    0.062137   0.221215
     9  H    0.113342   0.131382
    10  H   -0.097029   0.020406
 Sum of Mulliken charges =   0.00000   0.00000

 Dipole moment (field-independent basis, Debye):
    X=              0.0000    Y=              0.0000    Z=             -0.0000  Tot=              0.0000
 Quadrupole moment (field-independent basis, Debye-Ang):
   XX=            -16.1488   YY=            -15.0252   ZZ=            -12.8485
   XY=             -2.3312   XZ=              0.0000   YZ=              0.0000

 Normal termination of Gaussian 09 at Tue Feb 28 16:42:17 2017.
