 Gaussian 09, Revision E.01,
 Gaussian 09:  ES64L-G09RevE.01 30-Nov-2015

 ----------------------------------------------------------------------
 #uhf/gen scf(tight,novaracc,noincfock,fulldiag, ) stable(crhf) guess=r
 ead geom=nocrowd test
 ----------------------------------------------------------------------

 hf stability analysis of h10 triangular lattice, y= 1.2263967642726714
  alpha= 69.000000000000000
 ----------------------------------------------------------------------
 Symbolic Z-matrix:
 Charge =  0 Multiplicity = 1

                         Standard orientation:
 ---------------------------------------------------------------------
 Center     Atomic      Atomic             Coordinates (Angstroms)
 Number     Number       Type             X           Y           Z
 ---------------------------------------------------------------------
      1          1           0        1.758005    2.609287    0.000000
      2          1           0        1.758005    1.295638    0.000000
      3          1           0        0.879003    1.633056    0.000000
      4          1           0        0.879003    0.319407    0.000000
      5          1           0       -0.000000    0.656824    0.000000
      6          1           0       -0.000000   -0.656824   -0.000000
      7          1           0       -0.879003   -0.319407    0.000000
      8          1           0       -0.879003   -1.633056    0.000000
      9          1           0       -1.758005   -1.295638    0.000000
     10          1           0       -1.758005   -2.609287    0.000000
 ---------------------------------------------------------------------

 SCF Done:  E(UHF) =  -4.78444500349     A.U. after   49 cycles
 E2 =    -0.8873240724D-01 EUMP2 =    -0.48731774107360D+01

 Unable to determine electronic state:  partially filled degenerate orbitals.
 Alpha  occ. eigenvalues --   -0.79757  -0.72314  -0.56823  -0.38026  -0.20896
 Alpha virt. eigenvalues --    0.04422   0.15503   0.21221   0.39229   0.61326
  Beta  occ. eigenvalues --   -0.79757  -0.72314  -0.56823  -0.38026  -0.20896
  Beta virt. eigenvalues --    0.04422   0.15503   0.21221   0.39229   0.61326

 Mulliken charges and spin densities:
               1          2
     1  H    0.023751  -0.670598
     2  H   -0.020299   0.144234
     3  H    0.115372   0.201085
     4  H    0.063164   0.052221
     5  H   -0.181987   0.053197
     6  H   -0.181987  -0.053197
     7  H    0.063164  -0.052221
     8  H    0.115372  -0.201085
     9  H   -0.020299  -0.144234
    10  H    0.023751   0.670598
 Sum of Mulliken charges =   0.00000   0.00000

 Dipole moment (field-independent basis, Debye):
    X=             -0.0000    Y=             -0.0000    Z=              0.0000  Tot=              0.0000
 Quadrupole moment (field-independent basis, Debye-Ang):
   XX=            -13.2104   YY=            -11.5696   ZZ=            -13.0500
   XY=              2.1695   XZ=              0.0000   YZ=             -0.0000

 Normal termination of Gaussian 09 at Tue Feb 28 16:44:57 2017.
