 Gaussian 09, Revision E.01,
 Gaussian 09:  ES64L-G09RevE.01 30-Nov-2015

 ----------------------------------------------------------------------
 #uhf/gen scf(tight,novaracc,noincfock,fulldiag, ) stable(crhf) guess=r
 ead geom=nocrowd test
 ----------------------------------------------------------------------

 hf stability analysis of h10 triangular lattice, y= 0.6837609579800398
 9 alpha= 39.000000000000000
 ----------------------------------------------------------------------
 Symbolic Z-matrix:
 Charge =  0 Multiplicity = 1

                         Standard orientation:
 ---------------------------------------------------------------------
 Center     Atomic      Atomic             Coordinates (Angstroms)
 Number     Number       Type             X           Y           Z
 ---------------------------------------------------------------------
      1          1           0        2.125528    0.091458    0.000000
      2          1           0        2.125528   -0.995048    0.000000
      3          1           0        1.062764    0.317356    0.000000
      4          1           0        1.062764   -0.769151    0.000000
      5          1           0       -0.000000    0.543253    0.000000
      6          1           0       -0.000000   -0.543253    0.000000
      7          1           0       -1.062764    0.769151    0.000000
      8          1           0       -1.062764   -0.317356    0.000000
      9          1           0       -2.125528    0.995048    0.000000
     10          1           0       -2.125528   -0.091458    0.000000
 ---------------------------------------------------------------------

 SCF Done:  E(UHF) =  -4.85377717451     A.U. after   16 cycles
 E2 =    -0.9450217375D-01 EUMP2 =    -0.49482793482619D+01

 Unable to determine electronic state:  partially filled degenerate orbitals.
 Alpha  occ. eigenvalues --   -0.87474  -0.72930  -0.54505  -0.42472  -0.28745
 Alpha virt. eigenvalues --   -0.01011   0.21292   0.31430   0.52340   0.84825
  Beta  occ. eigenvalues --   -0.87474  -0.72930  -0.54505  -0.42472  -0.28745
  Beta virt. eigenvalues --   -0.01011   0.21292   0.31430   0.52340   0.84825

 Mulliken charges and spin densities:
               1          2
     1  H    0.082116  -0.096829
     2  H   -0.067136  -0.035268
     3  H   -0.087379  -0.250338
     4  H    0.027580  -0.241466
     5  H    0.044820   0.025646
     6  H    0.044820  -0.025646
     7  H    0.027580   0.241466
     8  H   -0.087379   0.250338
     9  H   -0.067136   0.035268
    10  H    0.082116   0.096829
 Sum of Mulliken charges =   0.00000   0.00000

 Dipole moment (field-independent basis, Debye):
    X=              0.0000    Y=              0.0000    Z=              0.0000  Tot=              0.0000
 Quadrupole moment (field-independent basis, Debye-Ang):
   XX=            -16.9132   YY=            -13.9819   ZZ=            -12.7917
   XY=              1.7471   XZ=              0.0000   YZ=              0.0000

 Normal termination of Gaussian 09 at Tue Feb 28 16:39:09 2017.
