 Gaussian 09, Revision E.01,
 Gaussian 09:  ES64L-G09RevE.01 30-Nov-2015

 ----------------------------------------------------------------------
 #uhf/gen scf(tight,novaracc,noincfock,fulldiag, ) stable(crhf) guess=r
 ead geom=nocrowd test
 ----------------------------------------------------------------------

 hf stability analysis of h10 triangular lattice, y= 0.5948114929471706
 2 alpha= 31.500000000000000
 ----------------------------------------------------------------------
 Symbolic Z-matrix:
 Charge =  0 Multiplicity = 1

                         Standard orientation:
 ---------------------------------------------------------------------
 Center     Atomic      Atomic             Coordinates (Angstroms)
 Number     Number       Type             X           Y           Z
 ---------------------------------------------------------------------
      1          1           0        2.028641   -0.464445   -0.000000
      2          1           0        2.028641   -1.602843   -0.000000
      3          1           0        1.014320    0.052377   -0.000000
      4          1           0        1.014320   -1.086021   -0.000000
      5          1           0        0.000000    0.569199    0.000000
      6          1           0       -0.000000   -0.569199    0.000000
      7          1           0       -1.014320    1.086021   -0.000000
      8          1           0       -1.014320   -0.052377   -0.000000
      9          1           0       -2.028641    1.602843   -0.000000
     10          1           0       -2.028641    0.464445   -0.000000
 ---------------------------------------------------------------------

 SCF Done:  E(UHF) =  -4.87765628544     A.U. after   16 cycles
 E2 =    -0.8758436279D-01 EUMP2 =    -0.49652406482272D+01

 Unable to determine electronic state:  partially filled degenerate orbitals.
 Alpha  occ. eigenvalues --   -0.86267  -0.72994  -0.55058  -0.38812  -0.30401
 Alpha virt. eigenvalues --    0.01987   0.23199   0.24225   0.54565   0.62771
  Beta  occ. eigenvalues --   -0.86267  -0.72994  -0.55058  -0.38812  -0.30401
  Beta virt. eigenvalues --    0.01987   0.23199   0.24225   0.54565   0.62771

 Mulliken charges and spin densities:
               1          2
     1  H    0.116878  -0.142076
     2  H   -0.097365  -0.037655
     3  H   -0.098554  -0.278233
     4  H    0.079092  -0.192506
     5  H   -0.000052   0.098160
     6  H   -0.000052  -0.098160
     7  H    0.079092   0.192506
     8  H   -0.098554   0.278233
     9  H   -0.097365   0.037655
    10  H    0.116878   0.142076
 Sum of Mulliken charges =   0.00000   0.00000

 Dipole moment (field-independent basis, Debye):
    X=              0.0000    Y=             -0.0000    Z=             -0.0000  Tot=              0.0000
 Quadrupole moment (field-independent basis, Debye-Ang):
   XX=            -15.3361   YY=            -15.6417   ZZ=            -12.9038
   XY=              2.1250   XZ=              0.0000   YZ=             -0.0000

 Normal termination of Gaussian 09 at Tue Feb 28 16:37:43 2017.
