 Gaussian 09, Revision E.01,
 Gaussian 09:  ES64L-G09RevE.01 30-Nov-2015

 ----------------------------------------------------------------------
 #uhf/gen scf(tight,novaracc,noincfock,fulldiag, ) stable(crhf) guess=r
 ead geom=nocrowd test
 ----------------------------------------------------------------------

 hf stability analysis of h10 triangular lattice, y= 1.0153487862282633
  alpha= 60.750000000000000
 ----------------------------------------------------------------------
 Symbolic Z-matrix:
 Charge =  0 Multiplicity = 1

                         Standard orientation:
 ---------------------------------------------------------------------
 Center     Atomic      Atomic             Coordinates (Angstroms)
 Number     Number       Type             X           Y           Z
 ---------------------------------------------------------------------
      1          1           0        1.984484    1.797958    0.000000
      2          1           0        1.984484    0.634229    0.000000
      3          1           0        0.992242    1.189911    0.000000
      4          1           0        0.992242    0.026182    0.000000
      5          1           0       -0.000000    0.581864    0.000000
      6          1           0       -0.000000   -0.581864    0.000000
      7          1           0       -0.992242   -0.026182   -0.000000
      8          1           0       -0.992242   -1.189911   -0.000000
      9          1           0       -1.984484   -0.634229   -0.000000
     10          1           0       -1.984484   -1.797958   -0.000000
 ---------------------------------------------------------------------

 SCF Done:  E(UHF) =  -4.87819687279     A.U. after   19 cycles
 E2 =    -0.8561737517D-01 EUMP2 =    -0.49638142479551D+01

 Unable to determine electronic state:  partially filled degenerate orbitals.
 Alpha  occ. eigenvalues --   -0.85266  -0.72924  -0.55274  -0.36920  -0.31026
 Alpha virt. eigenvalues --    0.03509   0.20937   0.24421   0.54316   0.57096
  Beta  occ. eigenvalues --   -0.85266  -0.72924  -0.55274  -0.36920  -0.31026
  Beta virt. eigenvalues --    0.03509   0.20937   0.24421   0.54316   0.57096

 Mulliken charges and spin densities:
               1          2
     1  H   -0.073249  -0.203649
     2  H    0.090990  -0.041467
     3  H    0.092591  -0.145890
     4  H   -0.053922  -0.321254
     5  H   -0.056410  -0.089044
     6  H   -0.056410   0.089044
     7  H   -0.053922   0.321254
     8  H    0.092591   0.145890
     9  H    0.090990   0.041467
    10  H   -0.073249   0.203649
 Sum of Mulliken charges =   0.00000   0.00000

 Dipole moment (field-independent basis, Debye):
    X=              0.0000    Y=              0.0000    Z=              0.0000  Tot=              0.0000
 Quadrupole moment (field-independent basis, Debye-Ang):
   XX=            -14.5862   YY=            -15.4142   ZZ=            -12.9480
   XY=             -1.2131   XZ=             -0.0000   YZ=             -0.0000

 Normal termination of Gaussian 09 at Tue Feb 28 16:43:19 2017.
