 Gaussian 09, Revision E.01,
 Gaussian 09:  ES64L-G09RevE.01 30-Nov-2015

 ----------------------------------------------------------------------
 #uhf/gen scf(tight,novaracc,noincfock,fulldiag, ) stable(crhf) guess=r
 ead geom=nocrowd test
 ----------------------------------------------------------------------

 hf stability analysis of h10 triangular lattice, y= 0.9428899751596989
 7 alpha= 57.000000000000000
 ----------------------------------------------------------------------
 Symbolic Z-matrix:
 Charge =  0 Multiplicity = 1

                         Standard orientation:
 ---------------------------------------------------------------------
 Center     Atomic      Atomic             Coordinates (Angstroms)
 Number     Number       Type             X           Y           Z
 ---------------------------------------------------------------------
      1          1           0        2.054139    1.476695    0.000000
      2          1           0        2.054139    0.352428    0.000000
      3          1           0        1.027069    1.019414    0.000000
      4          1           0        1.027069   -0.104853    0.000000
      5          1           0        0.000000    0.562134    0.000000
      6          1           0       -0.000000   -0.562134    0.000000
      7          1           0       -1.027069    0.104853    0.000000
      8          1           0       -1.027069   -1.019414    0.000000
      9          1           0       -2.054139   -0.352428    0.000000
     10          1           0       -2.054139   -1.476695    0.000000
 ---------------------------------------------------------------------

 SCF Done:  E(UHF) =  -4.87425253470     A.U. after   17 cycles
 E2 =    -0.8880287917D-01 EUMP2 =    -0.49630554138718D+01

 Unable to determine electronic state:  partially filled degenerate orbitals.
 Alpha  occ. eigenvalues --   -0.86663  -0.73048  -0.54941  -0.39828  -0.30004
 Alpha virt. eigenvalues --    0.01123   0.22762   0.25928   0.53976   0.67665
  Beta  occ. eigenvalues --   -0.86663  -0.73048  -0.54941  -0.39828  -0.30004
  Beta virt. eigenvalues --    0.01123   0.22762   0.25928   0.53976   0.67665

 Mulliken charges and spin densities:
               1          2
     1  H   -0.100177  -0.021109
     2  H    0.118164  -0.142756
     3  H    0.072136  -0.207800
     4  H   -0.105074  -0.265702
     5  H    0.014951  -0.082274
     6  H    0.014951   0.082274
     7  H   -0.105074   0.265702
     8  H    0.072136   0.207800
     9  H    0.118164   0.142756
    10  H   -0.100177   0.021109
 Sum of Mulliken charges =  -0.00000  -0.00000

 Dipole moment (field-independent basis, Debye):
    X=              0.0000    Y=              0.0000    Z=             -0.0000  Tot=              0.0000
 Quadrupole moment (field-independent basis, Debye-Ang):
   XX=            -15.7333   YY=            -15.4138   ZZ=            -12.8772
   XY=             -2.3084   XZ=              0.0000   YZ=              0.0000

 Normal termination of Gaussian 09 at Tue Feb 28 16:42:37 2017.
