 Gaussian 09, Revision E.01,
 Gaussian 09:  ES64L-G09RevE.01 30-Nov-2015

 ----------------------------------------------------------------------
 #uhf/gen scf(tight,novaracc,noincfock,fulldiag, ) stable(crhf) guess=r
 ead geom=nocrowd test
 ----------------------------------------------------------------------

 hf stability analysis of h10 triangular lattice, y= 0.8674200594573238
 1 alpha= 52.500000000000000
 ----------------------------------------------------------------------
 Symbolic Z-matrix:
 Charge =  0 Multiplicity = 1

                         Standard orientation:
 ---------------------------------------------------------------------
 Center     Atomic      Atomic             Coordinates (Angstroms)
 Number     Number       Type             X           Y           Z
 ---------------------------------------------------------------------
      1          1           0        2.112207    1.112644   -0.000000
      2          1           0        2.112207    0.019285   -0.000000
      3          1           0        1.056104    0.829662   -0.000000
      4          1           0        1.056104   -0.263697   -0.000000
      5          1           0        0.000000    0.546680    0.000000
      6          1           0       -0.000000   -0.546680    0.000000
      7          1           0       -1.056104    0.263697   -0.000000
      8          1           0       -1.056104   -0.829662   -0.000000
      9          1           0       -2.112207   -0.019285   -0.000000
     10          1           0       -2.112207   -1.112644   -0.000000
 ---------------------------------------------------------------------

 SCF Done:  E(UHF) =  -4.85883923795     A.U. after   16 cycles
 E2 =    -0.9314701580D-01 EUMP2 =    -0.49519862537563D+01

 Unable to determine electronic state:  partially filled degenerate orbitals.
 Alpha  occ. eigenvalues --   -0.87355  -0.72989  -0.54596  -0.42003  -0.28997
 Alpha virt. eigenvalues --   -0.00658   0.21585   0.30317   0.52636   0.81185
  Beta  occ. eigenvalues --   -0.87355  -0.72989  -0.54596  -0.42003  -0.28997
  Beta virt. eigenvalues --   -0.00658   0.21585   0.30317   0.52636   0.81185

 Mulliken charges and spin densities:
               1          2
     1  H   -0.080820  -0.029340
     2  H    0.095840  -0.108565
     3  H    0.041328  -0.235981
     4  H   -0.095893  -0.251633
     5  H    0.039545  -0.036450
     6  H    0.039545   0.036450
     7  H   -0.095893   0.251633
     8  H    0.041328   0.235981
     9  H    0.095840   0.108565
    10  H   -0.080820   0.029340
 Sum of Mulliken charges =  -0.00000   0.00000

 Dipole moment (field-independent basis, Debye):
    X=              0.0000    Y=              0.0000    Z=              0.0000  Tot=              0.0000
 Quadrupole moment (field-independent basis, Debye-Ang):
   XX=            -16.6865   YY=            -14.3343   ZZ=            -12.8092
   XY=             -2.0415   XZ=              0.0000   YZ=              0.0000

 Normal termination of Gaussian 09 at Tue Feb 28 16:41:46 2017.
