 Gaussian 09, Revision E.01,
 Gaussian 09:  ES64L-G09RevE.01 30-Nov-2015

 ----------------------------------------------------------------------
 #uhf/gen scf(tight,novaracc,noincfock,fulldiag, ) stable(crhf) guess=r
 ead geom=nocrowd test
 ----------------------------------------------------------------------

 hf stability analysis of h10 triangular lattice, y= 2.3437412473608381
  alpha= 84.000000000000000
 ----------------------------------------------------------------------
 Symbolic Z-matrix:
 Charge =  0 Multiplicity = 1

                         Standard orientation:
 ---------------------------------------------------------------------
 Center     Atomic      Atomic             Coordinates (Angstroms)
 Number     Number       Type             X           Y           Z
 ---------------------------------------------------------------------
      1          1           0        0.979951    5.788631    0.000000
      2          1           0        0.979951    3.431980    0.000000
      3          1           0        0.489975    3.483478    0.000000
      4          1           0        0.489975    1.126827    0.000000
      5          1           0       -0.000000    1.178326    0.000000
      6          1           0       -0.000000   -1.178326    0.000000
      7          1           0       -0.489975   -1.126827    0.000000
      8          1           0       -0.489975   -3.483478    0.000000
      9          1           0       -0.979951   -3.431980    0.000000
     10          1           0       -0.979951   -5.788631    0.000000
 ---------------------------------------------------------------------

 SCF Done:  E(UHF) =  -4.78762742891     A.U. after    6 cycles
 E2 =    -0.2782040099D-01 EUMP2 =    -0.48154478298998D+01

 Unable to determine electronic state:  partially filled degenerate orbitals.
 Alpha  occ. eigenvalues --   -0.73625  -0.72361  -0.70584  -0.68944  -0.49692
 Alpha virt. eigenvalues --    0.13240   0.53790   0.58718   0.65511   0.71653
  Beta  occ. eigenvalues --   -0.73625  -0.72361  -0.70584  -0.68944  -0.49692
  Beta virt. eigenvalues --    0.13240   0.53790   0.58718   0.65511   0.71653

 Mulliken charges and spin densities:
               1          2
     1  H    0.003114  -1.003113
     2  H   -0.000961   0.001543
     3  H   -0.002156   0.001574
     4  H   -0.000088   0.000012
     5  H    0.000091  -0.000016
     6  H    0.000091   0.000016
     7  H   -0.000088  -0.000012
     8  H   -0.002156  -0.001574
     9  H   -0.000961  -0.001543
    10  H    0.003114   1.003113
 Sum of Mulliken charges =  -0.00000  -0.00000

 Dipole moment (field-independent basis, Debye):
    X=             -0.0000    Y=             -0.0000    Z=              0.0000  Tot=              0.0000
 Quadrupole moment (field-independent basis, Debye-Ang):
   XX=            -12.6393   YY=            -14.7351   ZZ=            -13.4518
   XY=             -0.3234   XZ=              0.0000   YZ=             -0.0000

 Normal termination of Gaussian 09 at Tue Feb 28 16:47:41 2017.
