 Gaussian 09, Revision E.01,
 Gaussian 09:  ES64L-G09RevE.01 30-Nov-2015

 ----------------------------------------------------------------------
 #uhf/gen scf(tight,novaracc,noincfock,fulldiag, ) stable(crhf) guess=r
 ead geom=nocrowd test
 ----------------------------------------------------------------------

 hf stability analysis of h10 triangular lattice, y= 0.4980454386758799
 1 alpha= 23.250000000000000
 ----------------------------------------------------------------------
 Symbolic Z-matrix:
 Charge =  0 Multiplicity = 1

                         Standard orientation:
 ---------------------------------------------------------------------
 Center     Atomic      Atomic             Coordinates (Angstroms)
 Number     Number       Type             X           Y           Z
 ---------------------------------------------------------------------
      1          1           0        1.830399   -1.106137    0.000000
      2          1           0        1.830399   -2.367830    0.000000
      3          1           0        0.915200   -0.237646    0.000000
      4          1           0        0.915200   -1.499338    0.000000
      5          1           0        0.000000    0.630846   -0.000000
      6          1           0       -0.000000   -0.630846   -0.000000
      7          1           0       -0.915200    1.499338    0.000000
      8          1           0       -0.915200    0.237646    0.000000
      9          1           0       -1.830399    2.367830    0.000000
     10          1           0       -1.830399    1.106137    0.000000
 ---------------------------------------------------------------------

 SCF Done:  E(UHF) =  -4.82218139815     A.U. after   18 cycles
 E2 =    -0.9795283621D-01 EUMP2 =    -0.49201342343634D+01

 Unable to determine electronic state:  partially filled degenerate orbitals.
 Alpha  occ. eigenvalues --   -0.80899  -0.73129  -0.56246  -0.35820  -0.24559
 Alpha virt. eigenvalues --    0.05171   0.13941   0.24315   0.40493   0.60280
  Beta  occ. eigenvalues --   -0.80899  -0.73129  -0.56246  -0.35820  -0.24559
  Beta virt. eigenvalues --    0.05171   0.13941   0.24315   0.40493   0.60280

 Mulliken charges and spin densities:
               1          2
     1  H    0.044339   0.148397
     2  H   -0.001074  -0.556895
     3  H   -0.014235  -0.055608
     4  H    0.111412   0.049937
     5  H   -0.140444  -0.057795
     6  H   -0.140444   0.057795
     7  H    0.111412  -0.049937
     8  H   -0.014235   0.055608
     9  H   -0.001074   0.556895
    10  H    0.044339  -0.148397
 Sum of Mulliken charges =  -0.00000   0.00000

 Dipole moment (field-independent basis, Debye):
    X=              0.0000    Y=             -0.0000    Z=              0.0000  Tot=              0.0000
 Quadrupole moment (field-independent basis, Debye-Ang):
   XX=            -12.6394   YY=            -12.6515   ZZ=            -13.0759
   XY=             -2.1778   XZ=             -0.0000   YZ=             -0.0000

 Normal termination of Gaussian 09 at Tue Feb 28 16:36:03 2017.
