 Gaussian 09, Revision E.01,
 Gaussian 09:  ES64L-G09RevE.01 30-Nov-2015

 ----------------------------------------------------------------------
 #uhf/gen scf(tight,novaracc,noincfock,fulldiag, ) stable(crhf) guess=r
 ead geom=nocrowd test
 ----------------------------------------------------------------------

 hf stability analysis of h10 triangular lattice, y= 0.9208433600613213
 9 alpha= 55.750000000000000
 ----------------------------------------------------------------------
 Symbolic Z-matrix:
 Charge =  0 Multiplicity = 1

                         Standard orientation:
 ---------------------------------------------------------------------
 Center     Atomic      Atomic             Coordinates (Angstroms)
 Number     Number       Type             X           Y           Z
 ---------------------------------------------------------------------
      1          1           0        2.073021    1.373598    0.000000
      2          1           0        2.073021    0.259571    0.000000
      3          1           0        1.036510    0.965306    0.000000
      4          1           0        1.036510   -0.148721    0.000000
      5          1           0       -0.000000    0.557014   -0.000000
      6          1           0       -0.000000   -0.557014   -0.000000
      7          1           0       -1.036510    0.148721    0.000000
      8          1           0       -1.036510   -0.965306    0.000000
      9          1           0       -2.073021   -0.259571    0.000000
     10          1           0       -2.073021   -1.373598    0.000000
 ---------------------------------------------------------------------

 SCF Done:  E(UHF) =  -4.87040931350     A.U. after   16 cycles
 E2 =    -0.8995952273D-01 EUMP2 =    -0.49603688362348D+01

 Unable to determine electronic state:  partially filled degenerate orbitals.
 Alpha  occ. eigenvalues --   -0.86918  -0.73060  -0.54839  -0.40557  -0.29692
 Alpha virt. eigenvalues --    0.00508   0.22399   0.27277   0.53534   0.71683
  Beta  occ. eigenvalues --   -0.86918  -0.73060  -0.54839  -0.40557  -0.29692
  Beta virt. eigenvalues --    0.00508   0.22399   0.27277   0.53534   0.71683

 Mulliken charges and spin densities:
               1          2
     1  H   -0.098552  -0.019657
     2  H    0.115288  -0.135211
     3  H    0.065246  -0.217758
     4  H   -0.105687  -0.259408
     5  H    0.023706  -0.067970
     6  H    0.023706   0.067970
     7  H   -0.105687   0.259408
     8  H    0.065246   0.217758
     9  H    0.115288   0.135211
    10  H   -0.098552   0.019657
 Sum of Mulliken charges =   0.00000  -0.00000

 Dipole moment (field-independent basis, Debye):
    X=              0.0000    Y=              0.0000    Z=              0.0000  Tot=              0.0000
 Quadrupole moment (field-independent basis, Debye-Ang):
   XX=            -16.0355   YY=            -15.1444   ZZ=            -12.8565
   XY=             -2.3429   XZ=              0.0000   YZ=              0.0000

 Normal termination of Gaussian 09 at Tue Feb 28 16:42:23 2017.
