 Gaussian 09, Revision E.01,
 Gaussian 09:  ES64L-G09RevE.01 30-Nov-2015

 ----------------------------------------------------------------------
 #uhf/gen scf(tight,novaracc,noincfock,fulldiag, ) stable(crhf) guess=r
 ead geom=nocrowd test
 ----------------------------------------------------------------------

 hf stability analysis of h10 triangular lattice, y= 0.5247684832164858
 4 alpha= 25.500000000000000
 ----------------------------------------------------------------------
 Symbolic Z-matrix:
 Charge =  0 Multiplicity = 1

                         Standard orientation:
 ---------------------------------------------------------------------
 Center     Atomic      Atomic             Coordinates (Angstroms)
 Number     Number       Type             X           Y           Z
 ---------------------------------------------------------------------
      1          1           0        1.894593   -0.924740    0.000000
      2          1           0        1.894593   -2.143683    0.000000
      3          1           0        0.947297   -0.157634    0.000000
      4          1           0        0.947297   -1.376577    0.000000
      5          1           0        0.000000    0.609471   -0.000000
      6          1           0       -0.000000   -0.609471   -0.000000
      7          1           0       -0.947297    1.376577    0.000000
      8          1           0       -0.947297    0.157634   -0.000000
      9          1           0       -1.894593    2.143683    0.000000
     10          1           0       -1.894593    0.924740    0.000000
 ---------------------------------------------------------------------

 SCF Done:  E(UHF) =  -4.85070040605     A.U. after   18 cycles
 E2 =    -0.9672300895D-01 EUMP2 =    -0.49474234150015D+01

 Unable to determine electronic state:  partially filled degenerate orbitals.
 Alpha  occ. eigenvalues --   -0.82218  -0.73565  -0.56012  -0.34702  -0.28094
 Alpha virt. eigenvalues --    0.04305   0.15638   0.25739   0.44651   0.58960
  Beta  occ. eigenvalues --   -0.82218  -0.73565  -0.56012  -0.34702  -0.28094
  Beta virt. eigenvalues --    0.04305   0.15638   0.25739   0.44651   0.58960

 Mulliken charges and spin densities:
               1          2
     1  H    0.064630   0.176929
     2  H   -0.024465  -0.480518
     3  H   -0.037704  -0.149053
     4  H    0.117107   0.049293
     5  H   -0.119568  -0.021740
     6  H   -0.119568   0.021740
     7  H    0.117107  -0.049293
     8  H   -0.037704   0.149053
     9  H   -0.024465   0.480518
    10  H    0.064630  -0.176929
 Sum of Mulliken charges =  -0.00000   0.00000

 Dipole moment (field-independent basis, Debye):
    X=             -0.0000    Y=              0.0000    Z=              0.0000  Tot=              0.0000
 Quadrupole moment (field-independent basis, Debye-Ang):
   XX=            -12.9593   YY=            -13.7550   ZZ=            -13.0454
   XY=             -1.3118   XZ=              0.0000   YZ=              0.0000

 Normal termination of Gaussian 09 at Tue Feb 28 16:36:32 2017.
