 Gaussian 09, Revision E.01,
 Gaussian 09:  ES64L-G09RevE.01 30-Nov-2015

 ----------------------------------------------------------------------
 #uhf/gen scf(tight,novaracc,noincfock,fulldiag, ) stable(crhf) guess=r
 ead geom=nocrowd test
 ----------------------------------------------------------------------

 hf stability analysis of h10 triangular lattice, y= 1.2344594529595776
  alpha= 69.250000000000000
 ----------------------------------------------------------------------
 Symbolic Z-matrix:
 Charge =  0 Multiplicity = 1

                         Standard orientation:
 ---------------------------------------------------------------------
 Center     Atomic      Atomic             Coordinates (Angstroms)
 Number     Number       Type             X           Y           Z
 ---------------------------------------------------------------------
      1          1           0        1.749432    2.637416   -0.000000
      2          1           0        1.749432    1.317329   -0.000000
      3          1           0        0.874716    1.648730   -0.000000
      4          1           0        0.874716    0.328643   -0.000000
      5          1           0        0.000000    0.660043    0.000000
      6          1           0       -0.000000   -0.660043    0.000000
      7          1           0       -0.874716   -0.328643   -0.000000
      8          1           0       -0.874716   -1.648730   -0.000000
      9          1           0       -1.749432   -1.317329   -0.000000
     10          1           0       -1.749432   -2.637416   -0.000000
 ---------------------------------------------------------------------

 SCF Done:  E(UHF) =  -4.78024070392     A.U. after   46 cycles
 E2 =    -0.8687478386D-01 EUMP2 =    -0.48671154877845D+01

 Unable to determine electronic state:  partially filled degenerate orbitals.
 Alpha  occ. eigenvalues --   -0.79682  -0.72123  -0.56920  -0.38351  -0.20546
 Alpha virt. eigenvalues --    0.04213   0.15974   0.20858   0.39278   0.61451
  Beta  occ. eigenvalues --   -0.79682  -0.72123  -0.56920  -0.38351  -0.20546
  Beta virt. eigenvalues --    0.04213   0.15974   0.20858   0.39278   0.61451

 Mulliken charges and spin densities:
               1          2
     1  H    0.026710  -0.685788
     2  H   -0.027228   0.156947
     3  H    0.112776   0.219003
     4  H    0.069613   0.067312
     5  H   -0.181871   0.061902
     6  H   -0.181871  -0.061902
     7  H    0.069613  -0.067312
     8  H    0.112776  -0.219003
     9  H   -0.027228  -0.156947
    10  H    0.026710   0.685788
 Sum of Mulliken charges =  -0.00000   0.00000

 Dipole moment (field-independent basis, Debye):
    X=             -0.0000    Y=             -0.0000    Z=             -0.0000  Tot=              0.0000
 Quadrupole moment (field-independent basis, Debye-Ang):
   XX=            -13.2892   YY=            -11.4923   ZZ=            -13.0410
   XY=              2.0999   XZ=              0.0000   YZ=             -0.0000

 Normal termination of Gaussian 09 at Tue Feb 28 16:45:00 2017.
