 Gaussian 09, Revision E.01,
 Gaussian 09:  ES64L-G09RevE.01 30-Nov-2015

 ----------------------------------------------------------------------
 #uhf/gen scf(tight,novaracc,noincfock,fulldiag, ) stable(crhf) guess=r
 ead geom=nocrowd test
 ----------------------------------------------------------------------

 hf stability analysis of h10 triangular lattice, y= 0.8078216382370341
 2 alpha= 48.500000000000000
 ----------------------------------------------------------------------
 Symbolic Z-matrix:
 Charge =  0 Multiplicity = 1

                         Standard orientation:
 ---------------------------------------------------------------------
 Center     Atomic      Atomic             Coordinates (Angstroms)
 Number     Number       Type             X           Y           Z
 ---------------------------------------------------------------------
      1          1           0        2.141115    0.802195    0.000000
      2          1           0        2.141115   -0.276403   -0.000000
      3          1           0        1.070558    0.670747    0.000000
      4          1           0        1.070558   -0.407851   -0.000000
      5          1           0        0.000000    0.539299    0.000000
      6          1           0       -0.000000   -0.539299    0.000000
      7          1           0       -1.070558    0.407851   -0.000000
      8          1           0       -1.070558   -0.670747    0.000000
      9          1           0       -2.141115    0.276403   -0.000000
     10          1           0       -2.141115   -0.802195    0.000000
 ---------------------------------------------------------------------

 SCF Done:  E(UHF) =  -4.84710311384     A.U. after   15 cycles
 E2 =    -0.9628525897D-01 EUMP2 =    -0.49433883728123D+01

 Unable to determine electronic state:  partially filled degenerate orbitals.
 Alpha  occ. eigenvalues --   -0.87592  -0.72835  -0.54394  -0.43004  -0.28438
 Alpha virt. eigenvalues --   -0.01387   0.20941   0.32788   0.51998   0.89393
  Beta  occ. eigenvalues --   -0.87592  -0.72835  -0.54394  -0.43004  -0.28438
  Beta virt. eigenvalues --   -0.01387   0.20941   0.32788   0.51998   0.89393

 Mulliken charges and spin densities:
               1          2
     1  H   -0.038615  -0.045404
     2  H    0.054090  -0.079761
     3  H    0.002048  -0.247265
     4  H   -0.068727  -0.249840
     5  H    0.051204  -0.012362
     6  H    0.051204   0.012362
     7  H   -0.068727   0.249840
     8  H    0.002048   0.247265
     9  H    0.054090   0.079761
    10  H   -0.038615   0.045404
 Sum of Mulliken charges =  -0.00000  -0.00000

 Dipole moment (field-independent basis, Debye):
    X=              0.0000    Y=              0.0000    Z=              0.0000  Tot=              0.0000
 Quadrupole moment (field-independent basis, Debye-Ang):
   XX=            -17.1792   YY=            -13.5189   ZZ=            -12.7701
   XY=             -1.0981   XZ=              0.0000   YZ=              0.0000

 Normal termination of Gaussian 09 at Tue Feb 28 16:40:59 2017.
