 Gaussian 09, Revision E.01,
 Gaussian 09:  ES64L-G09RevE.01 30-Nov-2015

 ----------------------------------------------------------------------
 #uhf/gen scf(tight,novaracc,noincfock,fulldiag, ) stable(crhf) guess=r
 ead geom=nocrowd test
 ----------------------------------------------------------------------

 hf stability analysis of h10 triangular lattice, y= 0.6929481720257152
 4 alpha= 39.750000000000000
 ----------------------------------------------------------------------
 Symbolic Z-matrix:
 Charge =  0 Multiplicity = 1

                         Standard orientation:
 ---------------------------------------------------------------------
 Center     Atomic      Atomic             Coordinates (Angstroms)
 Number     Number       Type             X           Y           Z
 ---------------------------------------------------------------------
      1          1           0        2.131070    0.146870   -0.000000
      2          1           0        2.131070   -0.936811    0.000000
      3          1           0        1.065535    0.344355   -0.000000
      4          1           0        1.065535   -0.739326    0.000000
      5          1           0        0.000000    0.541841   -0.000000
      6          1           0       -0.000000   -0.541841   -0.000000
      7          1           0       -1.065535    0.739326    0.000000
      8          1           0       -1.065535   -0.344355   -0.000000
      9          1           0       -2.131070    0.936811    0.000000
     10          1           0       -2.131070   -0.146870   -0.000000
 ---------------------------------------------------------------------

 SCF Done:  E(UHF) =  -4.85149798377     A.U. after   15 cycles
 E2 =    -0.9511089841D-01 EUMP2 =    -0.49466088821792D+01

 Unable to determine electronic state:  partially filled degenerate orbitals.
 Alpha  occ. eigenvalues --   -0.87519  -0.72900  -0.54466  -0.42663  -0.28638
 Alpha virt. eigenvalues --   -0.01149   0.21169   0.31905   0.52217   0.86409
  Beta  occ. eigenvalues --   -0.87519  -0.72900  -0.54466  -0.42663  -0.28638
  Beta virt. eigenvalues --   -0.01149   0.21169   0.31905   0.52217   0.86409

 Mulliken charges and spin densities:
               1          2
     1  H    0.074319  -0.091369
     2  H   -0.059238  -0.038281
     3  H   -0.082335  -0.250019
     4  H    0.020200  -0.243618
     5  H    0.047054   0.021093
     6  H    0.047054  -0.021093
     7  H    0.020200   0.243618
     8  H   -0.082335   0.250019
     9  H   -0.059238   0.038281
    10  H    0.074319   0.091369
 Sum of Mulliken charges =   0.00000  -0.00000

 Dipole moment (field-independent basis, Debye):
    X=             -0.0000    Y=              0.0000    Z=             -0.0000  Tot=              0.0000
 Quadrupole moment (field-independent basis, Debye-Ang):
   XX=            -17.0078   YY=            -13.8236   ZZ=            -12.7842
   XY=              1.5706   XZ=             -0.0000   YZ=              0.0000

 Normal termination of Gaussian 09 at Tue Feb 28 16:39:18 2017.
