 Gaussian 09, Revision E.01,
 Gaussian 09:  ES64L-G09RevE.01 30-Nov-2015

 ----------------------------------------------------------------------
 #uhf/gen scf(tight,novaracc,noincfock,fulldiag, ) stable(crhf) guess=r
 ead geom=nocrowd test
 ----------------------------------------------------------------------

 hf stability analysis of h10 triangular lattice, y= 0.4920397018298700
 0 alpha= 22.750000000000000
 ----------------------------------------------------------------------
 Symbolic Z-matrix:
 Charge =  0 Multiplicity = 1

                         Standard orientation:
 ---------------------------------------------------------------------
 Center     Atomic      Atomic             Coordinates (Angstroms)
 Number     Number       Type             X           Y           Z
 ---------------------------------------------------------------------
      1          1           0        1.815038   -1.147447    0.000000
      2          1           0        1.815038   -2.419818    0.000000
      3          1           0        0.907519   -0.255631    0.000000
      4          1           0        0.907519   -1.528002    0.000000
      5          1           0        0.000000    0.636185   -0.000000
      6          1           0       -0.000000   -0.636185   -0.000000
      7          1           0       -0.907519    1.528002    0.000000
      8          1           0       -0.907519    0.255631    0.000000
      9          1           0       -1.815038    2.419818    0.000000
     10          1           0       -1.815038    1.147447    0.000000
 ---------------------------------------------------------------------

 SCF Done:  E(UHF) =  -4.81438029322     A.U. after   23 cycles
 E2 =    -0.9200087249D-01 EUMP2 =    -0.49063811657005D+01

 Unable to determine electronic state:  partially filled degenerate orbitals.
 Alpha  occ. eigenvalues --   -0.80621  -0.72988  -0.56909  -0.36467  -0.24192
 Alpha virt. eigenvalues --    0.04309   0.15975   0.23984   0.39340   0.60952
  Beta  occ. eigenvalues --   -0.81155  -0.72937  -0.56527  -0.37356  -0.23776
  Beta virt. eigenvalues --    0.07144   0.11923   0.25038   0.40565   0.60056

 Mulliken charges and spin densities:
               1          2
     1  H    0.068888   0.360795
     2  H    0.031297  -0.649905
     3  H    0.005350  -0.203030
     4  H    0.053509  -0.064438
     5  H   -0.178881   0.012840
     6  H   -0.072538   0.236125
     7  H    0.130637  -0.142522
     8  H   -0.027595  -0.188382
     9  H   -0.030250   0.620196
    10  H    0.019583   0.018321
 Sum of Mulliken charges =  -0.00000   0.00000

 Dipole moment (field-independent basis, Debye):
    X=              0.7738    Y=             -0.7864    Z=              0.0000  Tot=              1.1033
 Quadrupole moment (field-independent basis, Debye-Ang):
   XX=            -12.6264   YY=            -12.9613   ZZ=            -13.0425
   XY=             -1.9895   XZ=              0.0000   YZ=             -0.0000

 Normal termination of Gaussian 09 at Tue Feb 28 16:35:57 2017.
