 Gaussian 09, Revision E.01,
 Gaussian 09:  ES64L-G09RevE.01 30-Nov-2015

 ----------------------------------------------------------------------
 #uhf/gen scf(tight,novaracc,noincfock,fulldiag, ) stable(crhf) guess=r
 ead geom=nocrowd test
 ----------------------------------------------------------------------

 hf stability analysis of h10 triangular lattice, y= 0.6625913996779515
 5 alpha= 37.250000000000000
 ----------------------------------------------------------------------
 Symbolic Z-matrix:
 Charge =  0 Multiplicity = 1

                         Standard orientation:
 ---------------------------------------------------------------------
 Center     Atomic      Atomic             Coordinates (Angstroms)
 Number     Number       Type             X           Y           Z
 ---------------------------------------------------------------------
      1          1           0        2.109696   -0.037740    0.000000
      2          1           0        2.109696   -1.132401    0.000000
      3          1           0        1.054848    0.254795   -0.000000
      4          1           0        1.054848   -0.839865    0.000000
      5          1           0        0.000000    0.547330   -0.000000
      6          1           0       -0.000000   -0.547330   -0.000000
      7          1           0       -1.054848    0.839865    0.000000
      8          1           0       -1.054848   -0.254795   -0.000000
      9          1           0       -2.109696    1.132401   -0.000000
     10          1           0       -2.109696    0.037740   -0.000000
 ---------------------------------------------------------------------

 SCF Done:  E(UHF) =  -4.85972834043     A.U. after   16 cycles
 E2 =    -0.9290798300D-01 EUMP2 =    -0.49526363234308D+01

 Unable to determine electronic state:  partially filled degenerate orbitals.
 Alpha  occ. eigenvalues --   -0.87331  -0.72998  -0.54613  -0.41914  -0.29044
 Alpha virt. eigenvalues --   -0.00589   0.21639   0.30112   0.52692   0.80524
  Beta  occ. eigenvalues --   -0.87331  -0.72998  -0.54613  -0.41914  -0.29044
  Beta virt. eigenvalues --   -0.00589   0.21639   0.30112   0.52692   0.80524

 Mulliken charges and spin densities:
               1          2
     1  H    0.097862  -0.110611
     2  H   -0.082796  -0.028378
     3  H   -0.097094  -0.251954
     4  H    0.043468  -0.234903
     5  H    0.038559   0.038483
     6  H    0.038559  -0.038483
     7  H    0.043468   0.234903
     8  H   -0.097094   0.251954
     9  H   -0.082796   0.028378
    10  H    0.097862   0.110611
 Sum of Mulliken charges =  -0.00000  -0.00000

 Dipole moment (field-independent basis, Debye):
    X=              0.0000    Y=             -0.0000    Z=             -0.0000  Tot=              0.0000
 Quadrupole moment (field-independent basis, Debye-Ang):
   XX=            -16.6440   YY=            -14.3963   ZZ=            -12.8125
   XY=              2.0821   XZ=             -0.0000   YZ=              0.0000

 Normal termination of Gaussian 09 at Tue Feb 28 16:38:49 2017.
