 Gaussian 09, Revision E.01,
 Gaussian 09:  ES64L-G09RevE.01 30-Nov-2015

 ----------------------------------------------------------------------
 #uhf/gen scf(tight,novaracc,noincfock,fulldiag, ) stable(crhf) guess=r
 ead geom=nocrowd test
 ----------------------------------------------------------------------

 hf stability analysis of h10 triangular lattice, y= 0.8113826706734035
 3 alpha= 48.750000000000000
 ----------------------------------------------------------------------
 Symbolic Z-matrix:
 Charge =  0 Multiplicity = 1

                         Standard orientation:
 ---------------------------------------------------------------------
 Center     Atomic      Atomic             Coordinates (Angstroms)
 Number     Number       Type             X           Y           Z
 ---------------------------------------------------------------------
      1          1           0        2.139927    0.821325    0.000000
      2          1           0        2.139927   -0.257871    0.000000
      3          1           0        1.069964    0.680461    0.000000
      4          1           0        1.069964   -0.398735    0.000000
      5          1           0       -0.000000    0.539598    0.000000
      6          1           0       -0.000000   -0.539598    0.000000
      7          1           0       -1.069964    0.398735    0.000000
      8          1           0       -1.069964   -0.680461    0.000000
      9          1           0       -2.139927    0.257871    0.000000
     10          1           0       -2.139927   -0.821325    0.000000
 ---------------------------------------------------------------------

 SCF Done:  E(UHF) =  -4.84764083998     A.U. after   15 cycles
 E2 =    -0.9614144676D-01 EUMP2 =    -0.49437822867361D+01

 Unable to determine electronic state:  partially filled degenerate orbitals.
 Alpha  occ. eigenvalues --   -0.87584  -0.72843  -0.54403  -0.42964  -0.28462
 Alpha virt. eigenvalues --   -0.01360   0.20968   0.32683   0.52024   0.89032
  Beta  occ. eigenvalues --   -0.87584  -0.72843  -0.54403  -0.42964  -0.28462
  Beta virt. eigenvalues --   -0.01360   0.20968   0.32683   0.52024   0.89032

 Mulliken charges and spin densities:
               1          2
     1  H   -0.041721  -0.044376
     2  H    0.057134  -0.081324
     3  H    0.004700  -0.246853
     4  H   -0.070819  -0.249831
     5  H    0.050705  -0.013466
     6  H    0.050705   0.013466
     7  H   -0.070819   0.249831
     8  H    0.004700   0.246853
     9  H    0.057134   0.081324
    10  H   -0.041721   0.044376
 Sum of Mulliken charges =  -0.00000   0.00000

 Dipole moment (field-independent basis, Debye):
    X=              0.0000    Y=             -0.0000    Z=             -0.0000  Tot=              0.0000
 Quadrupole moment (field-independent basis, Debye-Ang):
   XX=            -17.1589   YY=            -13.5561   ZZ=            -12.7718
   XY=             -1.1701   XZ=             -0.0000   YZ=             -0.0000

 Normal termination of Gaussian 09 at Tue Feb 28 16:41:02 2017.
