 Gaussian 09, Revision E.01,
 Gaussian 09:  ES64L-G09RevE.01 30-Nov-2015

 ----------------------------------------------------------------------
 #uhf/gen scf(tight,novaracc,noincfock,fulldiag, ) stable(crhf) guess=r
 ead geom=nocrowd test
 ----------------------------------------------------------------------

 hf stability analysis of h10 triangular lattice, y= 0.7499531690997017
 8 alpha= 44.250000000000000
 ----------------------------------------------------------------------
 Symbolic Z-matrix:
 Charge =  0 Multiplicity = 1

                         Standard orientation:
 ---------------------------------------------------------------------
 Center     Atomic      Atomic             Coordinates (Angstroms)
 Number     Number       Type             X           Y           Z
 ---------------------------------------------------------------------
      1          1           0        2.148772    0.481109   -0.000000
      2          1           0        2.148772   -0.593645   -0.000000
      3          1           0        1.074386    0.509243   -0.000000
      4          1           0        1.074386   -0.565511   -0.000000
      5          1           0       -0.000000    0.537377    0.000000
      6          1           0       -0.000000   -0.537377    0.000000
      7          1           0       -1.074386    0.565511    0.000000
      8          1           0       -1.074386   -0.509243    0.000000
      9          1           0       -2.148772    0.593645    0.000000
     10          1           0       -2.148772   -0.481109    0.000000
 ---------------------------------------------------------------------

 SCF Done:  E(UHF) =  -4.84352171496     A.U. after   15 cycles
 E2 =    -0.9724459571D-01 EUMP2 =    -0.49407663106648D+01

 Unable to determine electronic state:  partially filled degenerate orbitals.
 Alpha  occ. eigenvalues --   -0.87641  -0.72777  -0.54337  -0.43259  -0.28281
 Alpha virt. eigenvalues --   -0.01556   0.20765   0.33480   0.51832   0.91772
  Beta  occ. eigenvalues --   -0.87641  -0.72777  -0.54337  -0.43259  -0.28281
  Beta virt. eigenvalues --   -0.01556   0.20765   0.33480   0.51832   0.91772

 Mulliken charges and spin densities:
               1          2
     1  H    0.018234  -0.064443
     2  H   -0.002248  -0.057265
     3  H   -0.043021  -0.250078
     4  H   -0.027445  -0.249813
     5  H    0.054481   0.002357
     6  H    0.054481  -0.002357
     7  H   -0.027445   0.249813
     8  H   -0.043021   0.250078
     9  H   -0.002248   0.057265
    10  H    0.018234   0.064443
 Sum of Mulliken charges =  -0.00000  -0.00000

 Dipole moment (field-independent basis, Debye):
    X=              0.0000    Y=              0.0000    Z=             -0.0000  Tot=              0.0000
 Quadrupole moment (field-independent basis, Debye-Ang):
   XX=            -17.3092   YY=            -13.2710   ZZ=            -12.7591
   XY=              0.2437   XZ=              0.0000   YZ=             -0.0000

 Normal termination of Gaussian 09 at Tue Feb 28 16:40:09 2017.
