 Gaussian 09, Revision E.01,
 Gaussian 09:  ES64L-G09RevE.01 30-Nov-2015

 ----------------------------------------------------------------------
 #uhf/gen scf(tight,novaracc,noincfock,fulldiag, ) stable(crhf) guess=r
 ead geom=nocrowd test
 ----------------------------------------------------------------------

 hf stability analysis of h10 triangular lattice, y= 0.6006400760937612
 4 alpha= 32.000000000000000
 ----------------------------------------------------------------------
 Symbolic Z-matrix:
 Charge =  0 Multiplicity = 1

                         Standard orientation:
 ---------------------------------------------------------------------
 Center     Atomic      Atomic             Coordinates (Angstroms)
 Number     Number       Type             X           Y           Z
 ---------------------------------------------------------------------
      1          1           0        2.037487   -0.427021   -0.000000
      2          1           0        2.037487   -1.560477   -0.000000
      3          1           0        1.018743    0.069854   -0.000000
      4          1           0        1.018743   -1.063602   -0.000000
      5          1           0        0.000000    0.566728    0.000000
      6          1           0       -0.000000   -0.566728    0.000000
      7          1           0       -1.018743    1.063602    0.000000
      8          1           0       -1.018743   -0.069854    0.000000
      9          1           0       -2.037487    1.560477    0.000000
     10          1           0       -2.037487    0.427021    0.000000
 ---------------------------------------------------------------------

 SCF Done:  E(UHF) =  -4.87671097669     A.U. after   18 cycles
 E2 =    -0.8796574447D-01 EUMP2 =    -0.49646767211671D+01

 Unable to determine electronic state:  partially filled degenerate orbitals.
 Alpha  occ. eigenvalues --   -0.86412  -0.73017  -0.55020  -0.39169  -0.30267
 Alpha virt. eigenvalues --    0.01684   0.23061   0.24796   0.54365   0.64399
  Beta  occ. eigenvalues --   -0.86412  -0.73017  -0.55020  -0.39169  -0.30267
  Beta virt. eigenvalues --    0.01684   0.23061   0.24796   0.54365   0.64399

 Mulliken charges and spin densities:
               1          2
     1  H    0.118015  -0.144284
     2  H   -0.098965  -0.029166
     3  H   -0.101679  -0.273248
     4  H    0.076878  -0.198121
     5  H    0.005751   0.093350
     6  H    0.005751  -0.093350
     7  H    0.076878   0.198121
     8  H   -0.101679   0.273248
     9  H   -0.098965   0.029166
    10  H    0.118015   0.144284
 Sum of Mulliken charges =   0.00000  -0.00000

 Dipole moment (field-independent basis, Debye):
    X=              0.0000    Y=             -0.0000    Z=              0.0000  Tot=              0.0000
 Quadrupole moment (field-independent basis, Debye-Ang):
   XX=            -15.4728   YY=            -15.5818   ZZ=            -12.8947
   XY=              2.2061   XZ=              0.0000   YZ=             -0.0000

 Normal termination of Gaussian 09 at Tue Feb 28 16:37:49 2017.
