 Gaussian 09, Revision E.01,
 Gaussian 09:  ES64L-G09RevE.01 30-Nov-2015

 ----------------------------------------------------------------------
 #uhf/gen scf(tight,novaracc,noincfock,fulldiag, ) stable(crhf) guess=r
 ead geom=nocrowd test
 ----------------------------------------------------------------------

 hf stability analysis of h10 triangular lattice, y= 0.9165423628436679
 7 alpha= 55.500000000000000
 ----------------------------------------------------------------------
 Symbolic Z-matrix:
 Charge =  0 Multiplicity = 1

                         Standard orientation:
 ---------------------------------------------------------------------
 Center     Atomic      Atomic             Coordinates (Angstroms)
 Number     Number       Type             X           Y           Z
 ---------------------------------------------------------------------
      1          1           0        2.076541    1.353179    0.000000
      2          1           0        2.076541    0.241040    0.000000
      3          1           0        1.038271    0.954624    0.000000
      4          1           0        1.038271   -0.157514    0.000000
      5          1           0       -0.000000    0.556069   -0.000000
      6          1           0       -0.000000   -0.556069    0.000000
      7          1           0       -1.038271    0.157514    0.000000
      8          1           0       -1.038271   -0.954624    0.000000
      9          1           0       -2.076541   -0.241040    0.000000
     10          1           0       -2.076541   -1.353179    0.000000
 ---------------------------------------------------------------------

 SCF Done:  E(UHF) =  -4.86956904269     A.U. after   16 cycles
 E2 =    -0.9020099676D-01 EUMP2 =    -0.49597700394416D+01

 Unable to determine electronic state:  partially filled degenerate orbitals.
 Alpha  occ. eigenvalues --   -0.86963  -0.73059  -0.54819  -0.40691  -0.29632
 Alpha virt. eigenvalues --    0.00397   0.22329   0.27537   0.53452   0.72470
  Beta  occ. eigenvalues --   -0.86963  -0.73059  -0.54819  -0.40691  -0.29632
  Beta virt. eigenvalues --    0.00397   0.22329   0.27537   0.53452   0.72470

 Mulliken charges and spin densities:
               1          2
     1  H   -0.097850  -0.019968
     2  H    0.114367  -0.133332
     3  H    0.063717  -0.219520
     4  H   -0.105450  -0.258447
     5  H    0.025215  -0.065194
     6  H    0.025215   0.065194
     7  H   -0.105450   0.258447
     8  H    0.063717   0.219520
     9  H    0.114367   0.133332
    10  H   -0.097850   0.019968
 Sum of Mulliken charges =   0.00000   0.00000

 Dipole moment (field-independent basis, Debye):
    X=             -0.0000    Y=             -0.0000    Z=             -0.0000  Tot=              0.0000
 Quadrupole moment (field-independent basis, Debye-Ang):
   XX=            -16.0927   YY=            -15.0854   ZZ=            -12.8525
   XY=             -2.3388   XZ=              0.0000   YZ=              0.0000

 Normal termination of Gaussian 09 at Tue Feb 28 16:42:20 2017.
