 Gaussian 09, Revision E.01,
 Gaussian 09:  ES64L-G09RevE.01 30-Nov-2015

 ----------------------------------------------------------------------
 #uhf/gen scf(tight,novaracc,noincfock,fulldiag, ) stable(crhf) guess=r
 ead geom=nocrowd test
 ----------------------------------------------------------------------

 hf stability analysis of h10 triangular lattice, y= 0.5277127250247978
 2 alpha= 25.750000000000000
 ----------------------------------------------------------------------
 Symbolic Z-matrix:
 Charge =  0 Multiplicity = 1

                         Standard orientation:
 ---------------------------------------------------------------------
 Center     Atomic      Atomic             Coordinates (Angstroms)
 Number     Number       Type             X           Y           Z
 ---------------------------------------------------------------------
      1          1           0        1.901240   -0.904973    0.000000
      2          1           0        1.901240   -2.119655    0.000000
      3          1           0        0.950620   -0.148816    0.000000
      4          1           0        0.950620   -1.363498    0.000000
      5          1           0        0.000000    0.607341    0.000000
      6          1           0       -0.000000   -0.607341   -0.000000
      7          1           0       -0.950620    1.363498    0.000000
      8          1           0       -0.950620    0.148816    0.000000
      9          1           0       -1.901240    2.119655    0.000000
     10          1           0       -1.901240    0.904973    0.000000
 ---------------------------------------------------------------------

 SCF Done:  E(UHF) =  -4.85325670987     A.U. after   18 cycles
 E2 =    -0.9610215455D-01 EUMP2 =    -0.49493588644263D+01

 Unable to determine electronic state:  partially filled degenerate orbitals.
 Alpha  occ. eigenvalues --   -0.82358  -0.73600  -0.55994  -0.34653  -0.28458
 Alpha virt. eigenvalues --    0.04205   0.15895   0.25814   0.45257   0.58822
  Beta  occ. eigenvalues --   -0.82358  -0.73600  -0.55994  -0.34653  -0.28458
  Beta virt. eigenvalues --    0.04205   0.15895   0.25814   0.45257   0.58822

 Mulliken charges and spin densities:
               1          2
     1  H    0.064884   0.179743
     2  H   -0.026018  -0.474875
     3  H   -0.037789  -0.162219
     4  H    0.117408   0.053213
     5  H   -0.118486  -0.014405
     6  H   -0.118486   0.014405
     7  H    0.117408  -0.053213
     8  H   -0.037789   0.162219
     9  H   -0.026018   0.474875
    10  H    0.064884  -0.179743
 Sum of Mulliken charges =   0.00000  -0.00000

 Dipole moment (field-independent basis, Debye):
    X=              0.0000    Y=             -0.0000    Z=              0.0000  Tot=              0.0000
 Quadrupole moment (field-independent basis, Debye-Ang):
   XX=            -13.0160   YY=            -13.8326   ZZ=            -13.0407
   XY=             -1.2294   XZ=             -0.0000   YZ=             -0.0000

 Normal termination of Gaussian 09 at Tue Feb 28 16:36:35 2017.
