 Gaussian 09, Revision E.01,
 Gaussian 09:  ES64L-G09RevE.01 30-Nov-2015

 ----------------------------------------------------------------------
 #uhf/gen scf(tight,novaracc,noincfock,fulldiag, ) stable(crhf) guess=r
 ead geom=nocrowd test
 ----------------------------------------------------------------------

 hf stability analysis of h10 triangular lattice, y= 1.8330252138232914
  alpha= 80.250000000000000
 ----------------------------------------------------------------------
 Symbolic Z-matrix:
 Charge =  0 Multiplicity = 1

                         Standard orientation:
 ---------------------------------------------------------------------
 Center     Atomic      Atomic             Coordinates (Angstroms)
 Number     Number       Type             X           Y           Z
 ---------------------------------------------------------------------
      1          1           0        1.241688    4.436362    0.000000
      2          1           0        1.241688    2.576473    0.000000
      3          1           0        0.620844    2.683154    0.000000
      4          1           0        0.620844    0.823264    0.000000
      5          1           0        0.000000    0.929945    0.000000
      6          1           0       -0.000000   -0.929945    0.000000
      7          1           0       -0.620844   -0.823264   -0.000000
      8          1           0       -0.620844   -2.683154   -0.000000
      9          1           0       -1.241688   -2.576473   -0.000000
     10          1           0       -1.241688   -4.436362   -0.000000
 ---------------------------------------------------------------------

 SCF Done:  E(UHF) =  -5.17352071925     A.U. after    7 cycles
 E2 =    -0.3708956783D-01 EUMP2 =    -0.52106102870752D+01

 Unable to determine electronic state:  partially filled degenerate orbitals.
 Alpha  occ. eigenvalues --   -0.73427  -0.70058  -0.64615  -0.58356  -0.47274
 Alpha virt. eigenvalues --    0.15244   0.35959   0.44020   0.55987   0.67640
  Beta  occ. eigenvalues --   -0.73427  -0.70058  -0.64615  -0.58356  -0.47274
  Beta virt. eigenvalues --    0.15244   0.35959   0.44020   0.55987   0.67640

 Mulliken charges and spin densities:
               1          2
     1  H    0.003336  -1.003268
     2  H   -0.002583   0.001046
     3  H   -0.001291   0.002791
     4  H   -0.000292   0.000576
     5  H    0.000830  -0.001092
     6  H    0.000830   0.001092
     7  H   -0.000292  -0.000576
     8  H   -0.001291  -0.002791
     9  H   -0.002583  -0.001046
    10  H    0.003336   1.003268
 Sum of Mulliken charges =  -0.00000   0.00000

 Dipole moment (field-independent basis, Debye):
    X=              0.0000    Y=              0.0000    Z=              0.0000  Tot=              0.0000
 Quadrupole moment (field-independent basis, Debye-Ang):
   XX=            -12.1628   YY=            -16.6715   ZZ=            -13.1178
   XY=             -1.3163   XZ=              0.0000   YZ=             -0.0000

 Normal termination of Gaussian 09 at Tue Feb 28 16:47:01 2017.
