 Gaussian 09, Revision E.01,
 Gaussian 09:  ES64L-G09RevE.01 30-Nov-2015

 ----------------------------------------------------------------------
 #uhf/gen scf(tight,novaracc,noincfock,fulldiag, ) stable(crhf) guess=r
 ead geom=nocrowd test
 ----------------------------------------------------------------------

 hf stability analysis of h10 triangular lattice, y= 0.9384058608233425
 4 alpha= 56.750000000000000
 ----------------------------------------------------------------------
 Symbolic Z-matrix:
 Charge =  0 Multiplicity = 1

                         Standard orientation:
 ---------------------------------------------------------------------
 Center     Atomic      Atomic             Coordinates (Angstroms)
 Number     Number       Type             X           Y           Z
 ---------------------------------------------------------------------
      1          1           0        2.058086    1.455937    0.000000
      2          1           0        2.058086    0.333826    0.000000
      3          1           0        1.029043    1.008496    0.000000
      4          1           0        1.029043   -0.113615   -0.000000
      5          1           0       -0.000000    0.561055    0.000000
      6          1           0       -0.000000   -0.561055    0.000000
      7          1           0       -1.029043    0.113615    0.000000
      8          1           0       -1.029043   -1.008496    0.000000
      9          1           0       -2.058086   -0.333826    0.000000
     10          1           0       -2.058086   -1.455937    0.000000
 ---------------------------------------------------------------------

 SCF Done:  E(UHF) =  -4.87354147801     A.U. after   17 cycles
 E2 =    -0.8902588436D-01 EUMP2 =    -0.49625673623620D+01

 Unable to determine electronic state:  partially filled degenerate orbitals.
 Alpha  occ. eigenvalues --   -0.86719  -0.73053  -0.54921  -0.39982  -0.29940
 Alpha virt. eigenvalues --    0.00992   0.22688   0.26204   0.53884   0.68477
  Beta  occ. eigenvalues --   -0.86719  -0.73053  -0.54921  -0.39982  -0.29940
  Beta virt. eigenvalues --    0.00992   0.22688   0.26204   0.53884   0.68477

 Mulliken charges and spin densities:
               1          2
     1  H   -0.100115  -0.020279
     2  H    0.117835  -0.141592
     3  H    0.070853  -0.209960
     4  H   -0.105469  -0.264211
     5  H    0.016896  -0.079393
     6  H    0.016896   0.079393
     7  H   -0.105469   0.264211
     8  H    0.070853   0.209960
     9  H    0.117835   0.141592
    10  H   -0.100115   0.020279
 Sum of Mulliken charges =   0.00000   0.00000

 Dipole moment (field-independent basis, Debye):
    X=              0.0000    Y=              0.0000    Z=             -0.0000  Tot=              0.0000
 Quadrupole moment (field-independent basis, Debye-Ang):
   XX=            -15.7958   YY=            -15.3642   ZZ=            -12.8730
   XY=             -2.3230   XZ=              0.0000   YZ=              0.0000

 Normal termination of Gaussian 09 at Tue Feb 28 16:42:34 2017.
