 Gaussian 09, Revision E.01,
 Gaussian 09:  ES64L-G09RevE.01 30-Nov-2015

 ----------------------------------------------------------------------
 #uhf/gen scf(tight,novaracc,noincfock,fulldiag, ) stable(crhf) guess=r
 ead geom=nocrowd test
 ----------------------------------------------------------------------

 hf stability analysis of h10 triangular lattice, y= 0.5482239839410609
 8 alpha= 27.500000000000000
 ----------------------------------------------------------------------
 Symbolic Z-matrix:
 Charge =  0 Multiplicity = 1

                         Standard orientation:
 ---------------------------------------------------------------------
 Center     Atomic      Atomic             Coordinates (Angstroms)
 Number     Number       Type             X           Y           Z
 ---------------------------------------------------------------------
      1          1           0        1.945122   -0.768350    0.000000
      2          1           0        1.945122   -1.955628    0.000000
      3          1           0        0.972561   -0.087356    0.000000
      4          1           0        0.972561   -1.274634    0.000000
      5          1           0        0.000000    0.593639    0.000000
      6          1           0       -0.000000   -0.593639   -0.000000
      7          1           0       -0.972561    1.274634    0.000000
      8          1           0       -0.972561    0.087356    0.000000
      9          1           0       -1.945122    1.955628    0.000000
     10          1           0       -1.945122    0.768350    0.000000
 ---------------------------------------------------------------------

 SCF Done:  E(UHF) =  -4.86863336527     A.U. after   20 cycles
 E2 =    -0.8971786892D-01 EUMP2 =    -0.49583512341880D+01

 Unable to determine electronic state:  partially filled degenerate orbitals.
 Alpha  occ. eigenvalues --   -0.83339  -0.73715  -0.55862  -0.34938  -0.30613
 Alpha virt. eigenvalues --    0.03742   0.17859   0.26009   0.49971   0.58022
  Beta  occ. eigenvalues --   -0.83339  -0.73715  -0.55862  -0.34938  -0.30613
  Beta virt. eigenvalues --    0.03742   0.17859   0.26009   0.49971   0.58022

 Mulliken charges and spin densities:
               1          2
     1  H    0.059989   0.185548
     2  H   -0.031469  -0.441550
     3  H   -0.026321  -0.272908
     4  H    0.113962   0.065339
     5  H   -0.116161   0.048974
     6  H   -0.116161  -0.048974
     7  H    0.113962  -0.065339
     8  H   -0.026321   0.272908
     9  H   -0.031469   0.441550
    10  H    0.059989  -0.185548
 Sum of Mulliken charges =  -0.00000  -0.00000

 Dipole moment (field-independent basis, Debye):
    X=             -0.0000    Y=              0.0000    Z=              0.0000  Tot=              0.0000
 Quadrupole moment (field-independent basis, Debye-Ang):
   XX=            -13.4430   YY=            -14.2065   ZZ=            -13.0019
   XY=             -0.7367   XZ=             -0.0000   YZ=             -0.0000

 Normal termination of Gaussian 09 at Tue Feb 28 16:36:55 2017.
