 Gaussian 09, Revision E.01,
 Gaussian 09:  ES64L-G09RevE.01 30-Nov-2015

 ----------------------------------------------------------------------
 #uhf/gen scf(tight,novaracc,noincfock,fulldiag, ) stable(crhf) guess=r
 ead geom=nocrowd test
 ----------------------------------------------------------------------

 hf stability analysis of h10 triangular lattice, y= 0.7868496627299574
 9 alpha= 47.000000000000000
 ----------------------------------------------------------------------
 Symbolic Z-matrix:
 Charge =  0 Multiplicity = 1

                         Standard orientation:
 ---------------------------------------------------------------------
 Center     Atomic      Atomic             Coordinates (Angstroms)
 Number     Number       Type             X           Y           Z
 ---------------------------------------------------------------------
      1          1           0        2.146521    0.688040    0.000000
      2          1           0        2.146521   -0.387841    0.000000
      3          1           0        1.073260    0.612990    0.000000
      4          1           0        1.073260   -0.462891    0.000000
      5          1           0        0.000000    0.537941    0.000000
      6          1           0       -0.000000   -0.537941    0.000000
      7          1           0       -1.073260    0.462891    0.000000
      8          1           0       -1.073260   -0.612990    0.000000
      9          1           0       -2.146521    0.387841    0.000000
     10          1           0       -2.146521   -0.688040    0.000000
 ---------------------------------------------------------------------

 SCF Done:  E(UHF) =  -4.84459563168     A.U. after   15 cycles
 E2 =    -0.9695661784D-01 EUMP2 =    -0.49415522495199D+01

 Unable to determine electronic state:  partially filled degenerate orbitals.
 Alpha  occ. eigenvalues --   -0.87627  -0.72795  -0.54354  -0.43184  -0.28327
 Alpha virt. eigenvalues --   -0.01508   0.20817   0.33275   0.51880   0.91063
  Beta  occ. eigenvalues --   -0.87627  -0.72795  -0.54354  -0.43184  -0.28327
  Beta virt. eigenvalues --   -0.01508   0.20817   0.33275   0.51880   0.91063

 Mulliken charges and spin densities:
               1          2
     1  H   -0.019158  -0.051719
     2  H    0.034973  -0.071008
     3  H   -0.014055  -0.249062
     4  H   -0.055265  -0.249996
     5  H    0.053506  -0.006518
     6  H    0.053506   0.006518
     7  H   -0.055265   0.249996
     8  H   -0.014055   0.249062
     9  H    0.034973   0.071008
    10  H   -0.019158   0.051719
 Sum of Mulliken charges =  -0.00000  -0.00000

 Dipole moment (field-independent basis, Debye):
    X=             -0.0000    Y=             -0.0000    Z=             -0.0000  Tot=              0.0000
 Quadrupole moment (field-independent basis, Debye-Ang):
   XX=            -17.2710   YY=            -13.3453   ZZ=            -12.7623
   XY=             -0.6433   XZ=              0.0000   YZ=              0.0000

 Normal termination of Gaussian 09 at Tue Feb 28 16:40:41 2017.
