 Gaussian 09, Revision E.01,
 Gaussian 09:  ES64L-G09RevE.01 30-Nov-2015

 ----------------------------------------------------------------------
 #uhf/gen scf(tight,novaracc,noincfock,fulldiag, ) stable(crhf) guess=r
 ead geom=nocrowd test
 ----------------------------------------------------------------------

 hf stability analysis of h10 triangular lattice, y= 1.0644781770328475
  alpha= 63.000000000000000
 ----------------------------------------------------------------------
 Symbolic Z-matrix:
 Charge =  0 Multiplicity = 1

                         Standard orientation:
 ---------------------------------------------------------------------
 Center     Atomic      Atomic             Coordinates (Angstroms)
 Number     Number       Type             X           Y           Z
 ---------------------------------------------------------------------
      1          1           0        1.933052    2.001790    0.000000
      2          1           0        1.933052    0.807099    0.000000
      3          1           0        0.966526    1.299568    0.000000
      4          1           0        0.966526    0.104876    0.000000
      5          1           0        0.000000    0.597346    0.000000
      6          1           0       -0.000000   -0.597346   -0.000000
      7          1           0       -0.966526   -0.104876   -0.000000
      8          1           0       -0.966526   -1.299568   -0.000000
      9          1           0       -1.933052   -0.807099   -0.000000
     10          1           0       -1.933052   -2.001790   -0.000000
 ---------------------------------------------------------------------

 SCF Done:  E(UHF) =  -4.86465563321     A.U. after   17 cycles
 E2 =    -0.9173264510D-01 EUMP2 =    -0.49563882783109D+01

 Unable to determine electronic state:  partially filled degenerate orbitals.
 Alpha  occ. eigenvalues --   -0.83049  -0.73716  -0.55909  -0.34726  -0.30102
 Alpha virt. eigenvalues --    0.03829   0.17274   0.26017   0.48568   0.58213
  Beta  occ. eigenvalues --   -0.83049  -0.73716  -0.55909  -0.34726  -0.30102
  Beta virt. eigenvalues --    0.03829   0.17274   0.26017   0.48568   0.58213

 Mulliken charges and spin densities:
               1          2
     1  H   -0.030337  -0.451889
     2  H    0.061890   0.188668
     3  H    0.116011   0.069017
     4  H   -0.031495  -0.238893
     5  H   -0.116069  -0.030052
     6  H   -0.116069   0.030052
     7  H   -0.031495   0.238893
     8  H    0.116011  -0.069017
     9  H    0.061890  -0.188668
    10  H   -0.030337   0.451889
 Sum of Mulliken charges =  -0.00000  -0.00000

 Dipole moment (field-independent basis, Debye):
    X=             -0.0000    Y=             -0.0000    Z=             -0.0000  Tot=              0.0000
 Quadrupole moment (field-independent basis, Debye-Ang):
   XX=            -13.3179   YY=            -14.1105   ZZ=            -13.0140
   XY=              0.8804   XZ=              0.0000   YZ=             -0.0000

 Normal termination of Gaussian 09 at Tue Feb 28 16:43:46 2017.
