 Gaussian 09, Revision E.01,
 Gaussian 09:  ES64L-G09RevE.01 30-Nov-2015

 ----------------------------------------------------------------------
 #uhf/gen scf(tight,novaracc,noincfock,fulldiag, ) stable(crhf) guess=r
 ead geom=nocrowd test
 ----------------------------------------------------------------------

 hf stability analysis of h10 triangular lattice, y= 1.2426558648313226
  alpha= 69.500000000000000
 ----------------------------------------------------------------------
 Symbolic Z-matrix:
 Charge =  0 Multiplicity = 1

                         Standard orientation:
 ---------------------------------------------------------------------
 Center     Atomic      Atomic             Coordinates (Angstroms)
 Number     Number       Type             X           Y           Z
 ---------------------------------------------------------------------
      1          1           0        1.740749    2.665838    0.000000
      2          1           0        1.740749    1.339167    0.000000
      3          1           0        0.870375    1.664587    0.000000
      4          1           0        0.870375    0.337916    0.000000
      5          1           0        0.000000    0.663336    0.000000
      6          1           0       -0.000000   -0.663336   -0.000000
      7          1           0       -0.870375   -0.337916   -0.000000
      8          1           0       -0.870375   -1.664587   -0.000000
      9          1           0       -1.740749   -1.339167   -0.000000
     10          1           0       -1.740749   -2.665838   -0.000000
 ---------------------------------------------------------------------

 SCF Done:  E(UHF) =  -4.77607084589     A.U. after   49 cycles
 E2 =    -0.8502844012D-01 EUMP2 =    -0.48610992860045D+01

 Unable to determine electronic state:  partially filled degenerate orbitals.
 Alpha  occ. eigenvalues --   -0.79616  -0.71902  -0.57015  -0.38682  -0.20217
 Alpha virt. eigenvalues --    0.03990   0.16481   0.20504   0.39356   0.61599
  Beta  occ. eigenvalues --   -0.79616  -0.71902  -0.57015  -0.38682  -0.20217
  Beta virt. eigenvalues --    0.03990   0.16481   0.20504   0.39356   0.61599

 Mulliken charges and spin densities:
               1          2
     1  H    0.030207  -0.700663
     2  H   -0.032977   0.173110
     3  H    0.108660   0.234124
     4  H    0.073976   0.082321
     5  H   -0.179867   0.074086
     6  H   -0.179867  -0.074086
     7  H    0.073976  -0.082321
     8  H    0.108660  -0.234124
     9  H   -0.032977  -0.173110
    10  H    0.030207   0.700663
 Sum of Mulliken charges =  -0.00000   0.00000

 Dipole moment (field-independent basis, Debye):
    X=             -0.0000    Y=             -0.0000    Z=             -0.0000  Tot=              0.0000
 Quadrupole moment (field-independent basis, Debye-Ang):
   XX=            -13.3421   YY=            -11.3921   ZZ=            -13.0322
   XY=              2.0589   XZ=              0.0000   YZ=              0.0000

 Normal termination of Gaussian 09 at Tue Feb 28 16:45:03 2017.
