 Gaussian 09, Revision E.01,
 Gaussian 09:  ES64L-G09RevE.01 30-Nov-2015

 ----------------------------------------------------------------------
 #uhf/gen scf(tight,novaracc,noincfock,fulldiag, ) stable(crhf) guess=r
 ead geom=nocrowd test
 ----------------------------------------------------------------------

 hf stability analysis of h10 triangular lattice, y= 0.5394520384962004
 9 alpha= 26.750000000000000
 ----------------------------------------------------------------------
 Symbolic Z-matrix:
 Charge =  0 Multiplicity = 1

                         Standard orientation:
 ---------------------------------------------------------------------
 Center     Atomic      Atomic             Coordinates (Angstroms)
 Number     Number       Type             X           Y           Z
 ---------------------------------------------------------------------
      1          1           0        1.926877   -0.826554    0.000000
      2          1           0        1.926877   -2.025074    0.000000
      3          1           0        0.963439   -0.113647    0.000000
      4          1           0        0.963439   -1.312167    0.000000
      5          1           0       -0.000000    0.599260   -0.000000
      6          1           0       -0.000000   -0.599260    0.000000
      7          1           0       -0.963439    1.312167   -0.000000
      8          1           0       -0.963439    0.113647   -0.000000
      9          1           0       -1.926877    2.025074   -0.000000
     10          1           0       -1.926877    0.826554   -0.000000
 ---------------------------------------------------------------------

 SCF Done:  E(UHF) =  -4.86254417165     A.U. after   43 cycles
 E2 =    -0.9272787131D-01 EUMP2 =    -0.49552720429652D+01

 Unable to determine electronic state:  partially filled degenerate orbitals.
 Alpha  occ. eigenvalues --   -0.82910  -0.73703  -0.55928  -0.34663  -0.29806
 Alpha virt. eigenvalues --    0.03886   0.16988   0.25999   0.47877   0.58321
  Beta  occ. eigenvalues --   -0.82910  -0.73703  -0.55928  -0.34663  -0.29806
  Beta virt. eigenvalues --    0.03886   0.16988   0.25999   0.47877   0.58321

 Mulliken charges and spin densities:
               1          2
     1  H    0.062873   0.188175
     2  H   -0.029812  -0.456313
     3  H   -0.033596  -0.222306
     4  H    0.116715   0.067597
     5  H   -0.116181   0.020434
     6  H   -0.116181  -0.020434
     7  H    0.116715  -0.067597
     8  H   -0.033596   0.222306
     9  H   -0.029812   0.456313
    10  H    0.062873  -0.188175
 Sum of Mulliken charges =   0.00000  -0.00000

 Dipole moment (field-independent basis, Debye):
    X=              0.0000    Y=             -0.0000    Z=              0.0000  Tot=              0.0000
 Quadrupole moment (field-independent basis, Debye-Ang):
   XX=            -13.2566   YY=            -14.0645   ZZ=            -13.0197
   XY=             -0.9457   XZ=              0.0000   YZ=             -0.0000

 Normal termination of Gaussian 09 at Tue Feb 28 16:36:46 2017.
