 Gaussian 09, Revision E.01,
 Gaussian 09:  ES64L-G09RevE.01 30-Nov-2015

 ----------------------------------------------------------------------
 #uhf/gen scf(tight,novaracc,noincfock,fulldiag, ) stable(crhf) guess=r
 ead geom=nocrowd test
 ----------------------------------------------------------------------

 hf stability analysis of h10 triangular lattice, y= 1.3232044396011293
  alpha= 71.750000000000000
 ----------------------------------------------------------------------
 Symbolic Z-matrix:
 Charge =  0 Multiplicity = 1

                         Standard orientation:
 ---------------------------------------------------------------------
 Center     Atomic      Atomic             Coordinates (Angstroms)
 Number     Number       Type             X           Y           Z
 ---------------------------------------------------------------------
      1          1           0        1.657519    2.936652   -0.000000
      2          1           0        1.657519    1.543364   -0.000000
      3          1           0        0.828759    1.816648   -0.000000
      4          1           0        0.828759    0.423360   -0.000000
      5          1           0        0.000000    0.696644   -0.000000
      6          1           0       -0.000000   -0.696644   -0.000000
      7          1           0       -0.828759   -0.423360   -0.000000
      8          1           0       -0.828759   -1.816648   -0.000000
      9          1           0       -1.657519   -1.543364   -0.000000
     10          1           0       -1.657519   -2.936652   -0.000000
 ---------------------------------------------------------------------

 SCF Done:  E(UHF) =  -4.95054194195     A.U. after   12 cycles
 E2 =    -0.5749017041D-01 EUMP2 =    -0.50080321123576D+01

 Unable to determine electronic state:  partially filled degenerate orbitals.
 Alpha  occ. eigenvalues --   -0.78775  -0.71167  -0.58871  -0.43280  -0.30034
 Alpha virt. eigenvalues --    0.11751   0.23512   0.24499   0.42509   0.60662
  Beta  occ. eigenvalues --   -0.78775  -0.71167  -0.58871  -0.43280  -0.30034
  Beta virt. eigenvalues --    0.11751   0.23512   0.24499   0.42509   0.60662

 Mulliken charges and spin densities:
               1          2
     1  H   -0.082609  -0.893899
     2  H   -0.033725  -0.241202
     3  H    0.089660   0.166781
     4  H    0.037062   0.148817
     5  H   -0.010388  -0.175072
     6  H   -0.010388   0.175072
     7  H    0.037062  -0.148817
     8  H    0.089660  -0.166781
     9  H   -0.033725   0.241202
    10  H   -0.082609   0.893899
 Sum of Mulliken charges =  -0.00000  -0.00000

 Dipole moment (field-independent basis, Debye):
    X=              0.0000    Y=             -0.0000    Z=              0.0000  Tot=              0.0000
 Quadrupole moment (field-independent basis, Debye-Ang):
   XX=            -15.0710   YY=            -22.2219   ZZ=            -12.5943
   XY=             -6.8189   XZ=             -0.0000   YZ=             -0.0000

 Normal termination of Gaussian 09 at Tue Feb 28 16:45:29 2017.
