 Gaussian 09, Revision E.01,
 Gaussian 09:  ES64L-G09RevE.01 30-Nov-2015

 ----------------------------------------------------------------------
 #uhf/gen scf(tight,novaracc,noincfock,fulldiag, ) stable(crhf) guess=r
 ead geom=nocrowd test
 ----------------------------------------------------------------------

 hf stability analysis of h10 triangular lattice, y= 0.5010379721798762
 2 alpha= 23.500000000000000
 ----------------------------------------------------------------------
 Symbolic Z-matrix:
 Charge =  0 Multiplicity = 1

                         Standard orientation:
 ---------------------------------------------------------------------
 Center     Atomic      Atomic             Coordinates (Angstroms)
 Number     Number       Type             X           Y           Z
 ---------------------------------------------------------------------
      1          1           0        1.837928   -1.085633    0.000000
      2          1           0        1.837928   -2.342157    0.000000
      3          1           0        0.918964   -0.228685    0.000000
      4          1           0        0.918964   -1.485210    0.000000
      5          1           0        0.000000    0.628262    0.000000
      6          1           0       -0.000000   -0.628262    0.000000
      7          1           0       -0.918964    1.485210   -0.000000
      8          1           0       -0.918964    0.228685   -0.000000
      9          1           0       -1.837928    2.342157   -0.000000
     10          1           0       -1.837928    1.085633   -0.000000
 ---------------------------------------------------------------------

 SCF Done:  E(UHF) =  -4.82589798104     A.U. after   20 cycles
 E2 =    -0.9817552442D-01 EUMP2 =    -0.49240735054594D+01

 Unable to determine electronic state:  partially filled degenerate orbitals.
 Alpha  occ. eigenvalues --   -0.81050  -0.73185  -0.56212  -0.35646  -0.24971
 Alpha virt. eigenvalues --    0.05115   0.14040   0.24558   0.40822   0.60136
  Beta  occ. eigenvalues --   -0.81050  -0.73185  -0.56212  -0.35646  -0.24971
  Beta virt. eigenvalues --    0.05115   0.14040   0.24558   0.40822   0.60136

 Mulliken charges and spin densities:
               1          2
     1  H    0.048428   0.152063
     2  H   -0.004231  -0.546489
     3  H   -0.019212  -0.064833
     4  H    0.111831   0.044664
     5  H   -0.136817  -0.056759
     6  H   -0.136817   0.056759
     7  H    0.111831  -0.044664
     8  H   -0.019212   0.064833
     9  H   -0.004231   0.546489
    10  H    0.048428  -0.152063
 Sum of Mulliken charges =  -0.00000  -0.00000

 Dipole moment (field-independent basis, Debye):
    X=              0.0000    Y=             -0.0000    Z=             -0.0000  Tot=              0.0000
 Quadrupole moment (field-independent basis, Debye-Ang):
   XX=            -12.6488   YY=            -12.8047   ZZ=            -13.0738
   XY=             -2.0843   XZ=              0.0000   YZ=             -0.0000

 Normal termination of Gaussian 09 at Tue Feb 28 16:36:06 2017.
