 Gaussian 09, Revision E.01,
 Gaussian 09:  ES64L-G09RevE.01 30-Nov-2015

 ----------------------------------------------------------------------
 #uhf/gen scf(tight,novaracc,noincfock,fulldiag, ) stable(crhf) guess=r
 ead geom=nocrowd test
 ----------------------------------------------------------------------

 hf stability analysis of h10 triangular lattice, y= 0.5335894054604231
 1 alpha= 26.250000000000000
 ----------------------------------------------------------------------
 Symbolic Z-matrix:
 Charge =  0 Multiplicity = 1

                         Standard orientation:
 ---------------------------------------------------------------------
 Center     Atomic      Atomic             Coordinates (Angstroms)
 Number     Number       Type             X           Y           Z
 ---------------------------------------------------------------------
      1          1           0        1.914247   -0.865640    0.000000
      2          1           0        1.914247   -2.072067    0.000000
      3          1           0        0.957124   -0.131213    0.000000
      4          1           0        0.957124   -1.337641    0.000000
      5          1           0       -0.000000    0.603214    0.000000
      6          1           0       -0.000000   -0.603214    0.000000
      7          1           0       -0.957124    1.337641   -0.000000
      8          1           0       -0.957124    0.131213   -0.000000
      9          1           0       -1.914247    2.072067   -0.000000
     10          1           0       -1.914247    0.865640   -0.000000
 ---------------------------------------------------------------------

 SCF Done:  E(UHF) =  -4.85807650728     A.U. after   19 cycles
 E2 =    -0.9457166253D-01 EUMP2 =    -0.49526481698174D+01

 Unable to determine electronic state:  partially filled degenerate orbitals.
 Alpha  occ. eigenvalues --   -0.82635  -0.73661  -0.55961  -0.34614  -0.29159
 Alpha virt. eigenvalues --    0.04028   0.16431   0.25928   0.46532   0.58559
  Beta  occ. eigenvalues --   -0.82635  -0.73661  -0.55961  -0.34614  -0.29159
  Beta virt. eigenvalues --    0.04028   0.16431   0.25928   0.46532   0.58559

 Mulliken charges and spin densities:
               1          2
     1  H    0.064398   0.184806
     2  H   -0.028355  -0.465045
     3  H   -0.036577  -0.190838
     4  H    0.117471   0.061287
     5  H   -0.116937   0.002042
     6  H   -0.116937  -0.002042
     7  H    0.117471  -0.061287
     8  H   -0.036577   0.190838
     9  H   -0.028355   0.465045
    10  H    0.064398  -0.184806
 Sum of Mulliken charges =   0.00000  -0.00000

 Dipole moment (field-independent basis, Debye):
    X=             -0.0000    Y=              0.0000    Z=             -0.0000  Tot=              0.0000
 Quadrupole moment (field-independent basis, Debye-Ang):
   XX=            -13.1347   YY=            -13.9620   ZZ=            -13.0306
   XY=             -1.0798   XZ=             -0.0000   YZ=             -0.0000

 Normal termination of Gaussian 09 at Tue Feb 28 16:36:40 2017.
