 Gaussian 09, Revision E.01,
 Gaussian 09:  ES64L-G09RevE.01 30-Nov-2015

 ----------------------------------------------------------------------
 #uhf/gen scf(tight,novaracc,noincfock,fulldiag, ) stable(crhf) guess=r
 ead geom=nocrowd test
 ----------------------------------------------------------------------

 hf stability analysis of h10 triangular lattice, y= 0.7273541585154700
 3 alpha= 42.500000000000000
 ----------------------------------------------------------------------
 Symbolic Z-matrix:
 Charge =  0 Multiplicity = 1

                         Standard orientation:
 ---------------------------------------------------------------------
 Center     Atomic      Atomic             Coordinates (Angstroms)
 Number     Number       Type             X           Y           Z
 ---------------------------------------------------------------------
      1          1           0        2.145047    0.350643    0.000000
      2          1           0        2.145047   -0.725977    0.000000
      3          1           0        1.072523    0.444477    0.000000
      4          1           0        1.072523   -0.632144    0.000000
      5          1           0       -0.000000    0.538310   -0.000000
      6          1           0       -0.000000   -0.538310    0.000000
      7          1           0       -1.072523    0.632144    0.000000
      8          1           0       -1.072523   -0.444477    0.000000
      9          1           0       -2.145047    0.725977    0.000000
     10          1           0       -2.145047   -0.350643    0.000000
 ---------------------------------------------------------------------

 SCF Done:  E(UHF) =  -4.84528925453     A.U. after   15 cycles
 E2 =    -0.9677076799D-01 EUMP2 =    -0.49420600225180D+01

 Unable to determine electronic state:  partially filled degenerate orbitals.
 Alpha  occ. eigenvalues --   -0.87618  -0.72806  -0.54365  -0.43135  -0.28358
 Alpha virt. eigenvalues --   -0.01476   0.20851   0.33141   0.51912   0.90603
  Beta  occ. eigenvalues --   -0.87618  -0.72806  -0.54365  -0.43135  -0.28358
  Beta virt. eigenvalues --   -0.01476   0.20851   0.33141   0.51912   0.90603

 Mulliken charges and spin densities:
               1          2
     1  H    0.041490  -0.073812
     2  H   -0.025777  -0.049582
     3  H   -0.059917  -0.249935
     4  H   -0.008668  -0.248583
     5  H    0.052873   0.008336
     6  H    0.052873  -0.008336
     7  H   -0.008668   0.248583
     8  H   -0.059917   0.249935
     9  H   -0.025777   0.049582
    10  H    0.041490   0.073812
 Sum of Mulliken charges =   0.00000   0.00000

 Dipole moment (field-independent basis, Debye):
    X=             -0.0000    Y=              0.0000    Z=             -0.0000  Tot=              0.0000
 Quadrupole moment (field-independent basis, Debye-Ang):
   XX=            -17.2460   YY=            -13.3933   ZZ=            -12.7645
   XY=              0.7988   XZ=             -0.0000   YZ=              0.0000

 Normal termination of Gaussian 09 at Tue Feb 28 16:39:49 2017.
