 Gaussian 09, Revision E.01,
 Gaussian 09:  ES64L-G09RevE.01 30-Nov-2015

 ----------------------------------------------------------------------
 #uhf/gen scf(tight,novaracc,noincfock,fulldiag, ) stable(crhf) guess=r
 ead geom=nocrowd test
 ----------------------------------------------------------------------

 hf stability analysis of h10 triangular lattice, y= 0.6898774187181774
 3 alpha= 39.500000000000000
 ----------------------------------------------------------------------
 Symbolic Z-matrix:
 Charge =  0 Multiplicity = 1

                         Standard orientation:
 ---------------------------------------------------------------------
 Center     Atomic      Atomic             Coordinates (Angstroms)
 Number     Number       Type             X           Y           Z
 ---------------------------------------------------------------------
      1          1           0        2.129305    0.128395   -0.000000
      2          1           0        2.129305   -0.956185   -0.000000
      3          1           0        1.064653    0.335342   -0.000000
      4          1           0        1.064653   -0.749237   -0.000000
      5          1           0       -0.000000    0.542290   -0.000000
      6          1           0       -0.000000   -0.542290   -0.000000
      7          1           0       -1.064653    0.749237   -0.000000
      8          1           0       -1.064653   -0.335342   -0.000000
      9          1           0       -2.129305    0.956185   -0.000000
     10          1           0       -2.129305   -0.128395   -0.000000
 ---------------------------------------------------------------------

 SCF Done:  E(UHF) =  -4.85223487635     A.U. after   16 cycles
 E2 =    -0.9491411036D-01 EUMP2 =    -0.49471489867173D+01

 Unable to determine electronic state:  partially filled degenerate orbitals.
 Alpha  occ. eigenvalues --   -0.87505  -0.72910  -0.54479  -0.42603  -0.28672
 Alpha virt. eigenvalues --   -0.01106   0.21208   0.31753   0.52256   0.85900
  Beta  occ. eigenvalues --   -0.87505  -0.72910  -0.54479  -0.42603  -0.28672
  Beta virt. eigenvalues --   -0.01106   0.21208   0.31753   0.52256   0.85900

 Mulliken charges and spin densities:
               1          2
     1  H    0.076982  -0.093157
     2  H   -0.061942  -0.037275
     3  H   -0.084072  -0.250105
     4  H    0.022692  -0.242942
     5  H    0.046339   0.022551
     6  H    0.046339  -0.022551
     7  H    0.022692   0.242942
     8  H   -0.084072   0.250105
     9  H   -0.061942   0.037275
    10  H    0.076982   0.093157
 Sum of Mulliken charges =  -0.00000  -0.00000

 Dipole moment (field-independent basis, Debye):
    X=             -0.0000    Y=             -0.0000    Z=              0.0000  Tot=              0.0000
 Quadrupole moment (field-independent basis, Debye-Ang):
   XX=            -16.9776   YY=            -13.8748   ZZ=            -12.7866
   XY=              1.6314   XZ=              0.0000   YZ=             -0.0000

 Normal termination of Gaussian 09 at Tue Feb 28 16:39:15 2017.
