 Gaussian 09, Revision E.01,
 Gaussian 09:  ES64L-G09RevE.01 30-Nov-2015

 ----------------------------------------------------------------------
 #uhf/gen scf(tight,novaracc,noincfock,fulldiag, ) stable(crhf) guess=r
 ead geom=nocrowd test
 ----------------------------------------------------------------------

 hf stability analysis of h10 triangular lattice, y= 0.8007574317254395
 6 alpha= 48.000000000000000
 ----------------------------------------------------------------------
 Symbolic Z-matrix:
 Charge =  0 Multiplicity = 1

                         Standard orientation:
 ---------------------------------------------------------------------
 Center     Atomic      Atomic             Coordinates (Angstroms)
 Number     Number       Type             X           Y           Z
 ---------------------------------------------------------------------
      1          1           0        2.143245    0.764027   -0.000000
      2          1           0        2.143245   -0.313499   -0.000000
      3          1           0        1.071623    0.651395   -0.000000
      4          1           0        1.071623   -0.426131   -0.000000
      5          1           0        0.000000    0.538763    0.000000
      6          1           0       -0.000000   -0.538763    0.000000
      7          1           0       -1.071623    0.426131    0.000000
      8          1           0       -1.071623   -0.651395    0.000000
      9          1           0       -2.143245    0.313499    0.000000
     10          1           0       -2.143245   -0.764027    0.000000
 ---------------------------------------------------------------------

 SCF Done:  E(UHF) =  -4.84612706423     A.U. after   15 cycles
 E2 =    -0.9654643214D-01 EUMP2 =    -0.49426734963735D+01

 Unable to determine electronic state:  partially filled degenerate orbitals.
 Alpha  occ. eigenvalues --   -0.87607  -0.72820  -0.54378  -0.43075  -0.28394
 Alpha virt. eigenvalues --   -0.01436   0.20893   0.32979   0.51951   0.90046
  Beta  occ. eigenvalues --   -0.87607  -0.72820  -0.54378  -0.43075  -0.28394
  Beta virt. eigenvalues --   -0.01436   0.20893   0.32979   0.51951   0.90046

 Mulliken charges and spin densities:
               1          2
     1  H   -0.032272  -0.047479
     2  H    0.047869  -0.076728
     3  H   -0.003293  -0.247987
     4  H   -0.064409  -0.249879
     5  H    0.052104  -0.010276
     6  H    0.052104   0.010276
     7  H   -0.064409   0.249879
     8  H   -0.003293   0.247987
     9  H    0.047869   0.076728
    10  H   -0.032272   0.047479
 Sum of Mulliken charges =   0.00000   0.00000

 Dipole moment (field-independent basis, Debye):
    X=              0.0000    Y=             -0.0000    Z=             -0.0000  Tot=              0.0000
 Quadrupole moment (field-independent basis, Debye-Ang):
   XX=            -17.2154   YY=            -13.4513   ZZ=            -12.7671
   XY=             -0.9506   XZ=              0.0000   YZ=              0.0000

 Normal termination of Gaussian 09 at Tue Feb 28 16:40:53 2017.
