 Gaussian 09, Revision E.01,
 Gaussian 09:  ES64L-G09RevE.01 30-Nov-2015

 ----------------------------------------------------------------------
 #uhf/gen scf(tight,novaracc,noincfock,fulldiag, ) stable(crhf) guess=r
 ead geom=nocrowd test
 ----------------------------------------------------------------------

 hf stability analysis of h10 triangular lattice, y= 0.8996750916440937
 6 alpha= 54.500000000000000
 ----------------------------------------------------------------------
 Symbolic Z-matrix:
 Charge =  0 Multiplicity = 1

                         Standard orientation:
 ---------------------------------------------------------------------
 Center     Atomic      Atomic             Coordinates (Angstroms)
 Number     Number       Type             X           Y           Z
 ---------------------------------------------------------------------
      1          1           0        2.089776    1.272115    0.000000
      2          1           0        2.089776    0.167020    0.000000
      3          1           0        1.044888    0.912331    0.000000
      4          1           0        1.044888   -0.192764    0.000000
      5          1           0        0.000000    0.552548    0.000000
      6          1           0       -0.000000   -0.552548   -0.000000
      7          1           0       -1.044888    0.192764    0.000000
      8          1           0       -1.044888   -0.912331    0.000000
      9          1           0       -2.089776   -0.167020    0.000000
     10          1           0       -2.089776   -1.272115    0.000000
 ---------------------------------------------------------------------

 SCF Done:  E(UHF) =  -4.86606071369     A.U. after   16 cycles
 E2 =    -0.9118519584D-01 EUMP2 =    -0.49572459095322D+01

 Unable to determine electronic state:  partially filled degenerate orbitals.
 Alpha  occ. eigenvalues --   -0.87120  -0.73047  -0.54740  -0.41187  -0.29403
 Alpha virt. eigenvalues --   -0.00012   0.22060   0.28536   0.53146   0.75541
  Beta  occ. eigenvalues --   -0.87120  -0.73047  -0.54740  -0.41187  -0.29403
  Beta virt. eigenvalues --   -0.00012   0.22060   0.28536   0.53146   0.75541

 Mulliken charges and spin densities:
               1          2
     1  H   -0.093877  -0.022283
     2  H    0.109662  -0.125260
     3  H    0.057079  -0.225916
     4  H   -0.103539  -0.255332
     5  H    0.030675  -0.054602
     6  H    0.030675   0.054602
     7  H   -0.103539   0.255332
     8  H    0.057079   0.225916
     9  H    0.109662   0.125260
    10  H   -0.093877   0.022283
 Sum of Mulliken charges =  -0.00000   0.00000

 Dipole moment (field-independent basis, Debye):
    X=             -0.0000    Y=             -0.0000    Z=             -0.0000  Tot=              0.0000
 Quadrupole moment (field-independent basis, Debye-Ang):
   XX=            -16.3102   YY=            -14.8392   ZZ=            -12.8370
   XY=             -2.2884   XZ=              0.0000   YZ=              0.0000

 Normal termination of Gaussian 09 at Tue Feb 28 16:42:08 2017.
