 Gaussian 09, Revision E.01,
 Gaussian 09:  ES64L-G09RevE.01 30-Nov-2015

 ----------------------------------------------------------------------
 #uhf/gen scf(tight,novaracc,noincfock,fulldiag, ) stable(crhf) guess=r
 ead geom=nocrowd test
 ----------------------------------------------------------------------

 hf stability analysis of h10 triangular lattice, y= 0.7022134528066417
 1 alpha= 40.500000000000000
 ----------------------------------------------------------------------
 Symbolic Z-matrix:
 Charge =  0 Multiplicity = 1

                         Standard orientation:
 ---------------------------------------------------------------------
 Center     Atomic      Atomic             Coordinates (Angstroms)
 Number     Number       Type             X           Y           Z
 ---------------------------------------------------------------------
      1          1           0        2.135869    0.202335   -0.000000
      2          1           0        2.135869   -0.878912    0.000000
      3          1           0        1.067935    0.371479   -0.000000
      4          1           0        1.067935   -0.709767    0.000000
      5          1           0       -0.000000    0.540623   -0.000000
      6          1           0       -0.000000   -0.540623   -0.000000
      7          1           0       -1.067935    0.709767    0.000000
      8          1           0       -1.067935   -0.371479   -0.000000
      9          1           0       -2.135869    0.878912    0.000000
     10          1           0       -2.135869   -0.202335    0.000000
 ---------------------------------------------------------------------

 SCF Done:  E(UHF) =  -4.84944099987     A.U. after   15 cycles
 E2 =    -0.9566030787D-01 EUMP2 =    -0.49451013077422D+01

 Unable to determine electronic state:  partially filled degenerate orbitals.
 Alpha  occ. eigenvalues --   -0.87555  -0.72870  -0.54432  -0.42827  -0.28543
 Alpha virt. eigenvalues --   -0.01265   0.21061   0.32324   0.52112   0.87816
  Beta  occ. eigenvalues --   -0.87555  -0.72870  -0.54432  -0.42827  -0.28543
  Beta virt. eigenvalues --   -0.01265   0.21061   0.32324   0.52112   0.87816

 Mulliken charges and spin densities:
               1          2
     1  H    0.065972  -0.086201
     2  H   -0.050739  -0.041315
     3  H   -0.076805  -0.249864
     4  H    0.012553  -0.245405
     5  H    0.049018   0.017050
     6  H    0.049018  -0.017050
     7  H    0.012553   0.245405
     8  H   -0.076805   0.249864
     9  H   -0.050739   0.041315
    10  H    0.065972   0.086201
 Sum of Mulliken charges =  -0.00000   0.00000

 Dipole moment (field-independent basis, Debye):
    X=              0.0000    Y=             -0.0000    Z=             -0.0000  Tot=              0.0000
 Quadrupole moment (field-independent basis, Debye-Ang):
   XX=            -17.0897   YY=            -13.6809   ZZ=            -12.7775
   XY=              1.3775   XZ=             -0.0000   YZ=              0.0000

 Normal termination of Gaussian 09 at Tue Feb 28 16:39:26 2017.
