 Gaussian 09, Revision E.01,
 Gaussian 09:  ES64L-G09RevE.01 30-Nov-2015

 ----------------------------------------------------------------------
 #uhf/gen scf(tight,novaracc,noincfock,fulldiag, ) stable(crhf) guess=r
 ead geom=nocrowd test
 ----------------------------------------------------------------------

 hf stability analysis of h10 triangular lattice, y= 0.6211063758797595
 9 alpha= 33.750000000000000
 ----------------------------------------------------------------------
 Symbolic Z-matrix:
 Charge =  0 Multiplicity = 1

                         Standard orientation:
 ---------------------------------------------------------------------
 Center     Atomic      Atomic             Coordinates (Angstroms)
 Number     Number       Type             X           Y           Z
 ---------------------------------------------------------------------
      1          1           0        2.065724   -0.296670    0.000000
      2          1           0        2.065724   -1.414632    0.000000
      3          1           0        1.032862    0.131155    0.000000
      4          1           0        1.032862   -0.986806    0.000000
      5          1           0        0.000000    0.558981   -0.000000
      6          1           0       -0.000000   -0.558981   -0.000000
      7          1           0       -1.032862    0.986806    0.000000
      8          1           0       -1.032862   -0.131155    0.000000
      9          1           0       -2.065724    1.414632    0.000000
     10          1           0       -2.065724    0.296670    0.000000
 ---------------------------------------------------------------------

 SCF Done:  E(UHF) =  -4.87202691021     A.U. after   17 cycles
 E2 =    -0.8948531426D-01 EUMP2 =    -0.49615122244674D+01

 Unable to determine electronic state:  partially filled degenerate orbitals.
 Alpha  occ. eigenvalues --   -0.86823  -0.73059  -0.54880  -0.40278  -0.29814
 Alpha virt. eigenvalues --    0.00742   0.22542   0.26747   0.53704   0.70090
  Beta  occ. eigenvalues --   -0.86823  -0.73059  -0.54880  -0.40278  -0.29814
  Beta virt. eigenvalues --    0.00742   0.22542   0.26747   0.53704   0.70090

 Mulliken charges and spin densities:
               1          2
     1  H    0.116797  -0.138680
     2  H   -0.099589  -0.019522
     3  H   -0.105829  -0.261599
     4  H    0.068148  -0.214017
     5  H    0.020472   0.073636
     6  H    0.020472  -0.073636
     7  H    0.068148   0.214017
     8  H   -0.105829   0.261599
     9  H   -0.099589   0.019522
    10  H    0.116797   0.138680
 Sum of Mulliken charges =   0.00000   0.00000

 Dipole moment (field-independent basis, Debye):
    X=             -0.0000    Y=              0.0000    Z=             -0.0000  Tot=              0.0000
 Quadrupole moment (field-independent basis, Debye-Ang):
   XX=            -15.9178   YY=            -15.2580   ZZ=            -12.8646
   XY=              2.3405   XZ=              0.0000   YZ=             -0.0000

 Normal termination of Gaussian 09 at Tue Feb 28 16:38:10 2017.
