 Gaussian 09, Revision E.01,
 Gaussian 09:  ES64L-G09RevE.01 30-Nov-2015

 ----------------------------------------------------------------------
 #rhf/gen scf(symm,tight,novaracc,noincfock,fulldiag) stable(crhf) gues
 s=read geom=nocrowd test
 ----------------------------------------------------------------------

 hf stability analysis of h10 triangular lattice, y= 0.6716215332591580
 8
 ----------------------------------------------------------------------
 Symbolic Z-matrix:
 Charge =  0 Multiplicity = 1

                         Standard orientation:
 ---------------------------------------------------------------------
 Center     Atomic      Atomic             Coordinates (Angstroms)
 Number     Number       Type             X           Y           Z
 ---------------------------------------------------------------------
      1          1           0        1.719273    2.014865   -0.000000
      2          1           0        2.578909    1.343243   -0.000000
      3          1           0        0.859636    1.343243   -0.000000
      4          1           0        1.719273    0.671622   -0.000000
      5          1           0        0.000000    0.671622   -0.000000
      6          1           0        0.859636    0.000000   -0.000000
      7          1           0       -0.859636    0.000000   -0.000000
      8          1           0       -0.000000   -0.671622    0.000000
      9          1           0       -1.719273   -0.671622   -0.000000
     10          1           0       -0.859636   -1.343243    0.000000
     11          1           0       -2.578909   -1.343243   -0.000000
     12          1           0       -1.719273   -2.014865   -0.000000
 ---------------------------------------------------------------------

 SCF Done:  E(RHF) =  -5.39471456144     A.U. after   11 cycles
 E2 =    -0.2888848488D+00 EUMP2 =    -0.56835994102082D+01

 The electronic state is 1-AG.
 Alpha  occ. eigenvalues --   -0.89891  -0.78066  -0.63291  -0.44570  -0.25711
 Alpha  occ. eigenvalues --   -0.17782
 Alpha virt. eigenvalues --   -0.20652   0.09752   0.33049   0.33411   0.61723
 Alpha virt. eigenvalues --    0.82658

 Mulliken charges:
               1
     1  H    0.034801
     2  H   -0.137790
     3  H   -0.120590
     4  H   -0.036634
     5  H    0.141761
     6  H    0.118453
     7  H    0.118453
     8  H    0.141761
     9  H   -0.036634
    10  H   -0.120590
    11  H   -0.137790
    12  H    0.034801
 Sum of Mulliken charges =  -0.00000

 Dipole moment (field-independent basis, Debye):
    X=              0.0000    Y=             -0.0000    Z=              0.0000  Tot=              0.0000
 Quadrupole moment (field-independent basis, Debye-Ang):
   XX=            -28.6297   YY=            -20.3066   ZZ=            -14.8819
   XY=             -9.2714   XZ=              0.0000   YZ=              0.0000

 Normal termination of Gaussian 09 at Tue Feb 14 17:54:25 2017.
