 Gaussian 09, Revision E.01,
 Gaussian 09:  ES64L-G09RevE.01 30-Nov-2015

 ----------------------------------------------------------------------
 #rhf/gen scf(symm,tight,novaracc,noincfock,fulldiag) stable(crhf) gues
 s=read geom=nocrowd test
 ----------------------------------------------------------------------

 ----------------------------------------------------------------------
 hf stability analysis of h10 triangular lattice, y= 1.2263967642726714
 ----------------------------------------------------------------------
 Symbolic Z-matrix:
 Charge =  0 Multiplicity = 1

                         Standard orientation:
 ---------------------------------------------------------------------
 Center     Atomic      Atomic             Coordinates (Angstroms)
 Number     Number       Type             X           Y           Z
 ---------------------------------------------------------------------
      1          1           0        3.679190    0.941539    0.000000
      2          1           0        2.452793    1.412309    0.000000
      3          1           0        2.452793    0.470770    0.000000
      4          1           0        1.226397    0.941539    0.000000
      5          1           0        1.226397    0.000000    0.000000
      6          1           0       -0.000000    0.470770    0.000000
      7          1           0        0.000000   -0.470770    0.000000
      8          1           0       -1.226397   -0.000000    0.000000
      9          1           0       -1.226397   -0.941539    0.000000
     10          1           0       -2.452793   -0.470770    0.000000
     11          1           0       -2.452793   -1.412309    0.000000
     12          1           0       -3.679190   -0.941539    0.000000
 ---------------------------------------------------------------------

 SCF Done:  E(RHF) =  -5.57384832409     A.U. after   11 cycles
 E2 =    -0.2639137678D+00 EUMP2 =    -0.58377620919070D+01

 The electronic state is 1-AG.
 Alpha  occ. eigenvalues --   -0.80241  -0.74701  -0.63946  -0.48364  -0.30636
 Alpha  occ. eigenvalues --   -0.09464
 Alpha virt. eigenvalues --   -0.02399   0.09438   0.20012   0.27526   0.46834
 Alpha virt. eigenvalues --    0.62343

 Mulliken charges:
               1
     1  H   -0.009680
     2  H   -0.075713
     3  H    0.126343
     4  H   -0.012473
     5  H   -0.072372
     6  H    0.043896
     7  H    0.043896
     8  H   -0.072372
     9  H   -0.012473
    10  H    0.126343
    11  H   -0.075713
    12  H   -0.009680
 Sum of Mulliken charges =  -0.00000

 Dipole moment (field-independent basis, Debye):
    X=              0.0000    Y=              0.0000    Z=             -0.0000  Tot=              0.0000
 Quadrupole moment (field-independent basis, Debye-Ang):
   XX=            -19.6147   YY=            -17.5381   ZZ=            -15.3664
   XY=             -2.8629   XZ=             -0.0000   YZ=             -0.0000

 Normal termination of Gaussian 09 at Tue Feb 14 17:55:42 2017.
