 Gaussian 09, Revision E.01,
 Gaussian 09:  ES64L-G09RevE.01 30-Nov-2015

 ----------------------------------------------------------------------
 #rhf/gen scf(symm,tight,novaracc,noincfock,fulldiag) stable(crhf) gues
 s=read geom=nocrowd test
 ----------------------------------------------------------------------

 ----------------------------------------------------------------------
 hf stability analysis of h10 triangular lattice, y= 1.8095073443210954
 ----------------------------------------------------------------------
 Symbolic Z-matrix:
 Charge =  0 Multiplicity = 1

                         Standard orientation:
 ---------------------------------------------------------------------
 Center     Atomic      Atomic             Coordinates (Angstroms)
 Number     Number       Type             X           Y           Z
 ---------------------------------------------------------------------
      1          1           0        5.428522    0.638130    0.000000
      2          1           0        3.619015    0.957195    0.000000
      3          1           0        3.619015    0.319065    0.000000
      4          1           0        1.809507    0.638130    0.000000
      5          1           0        1.809507    0.000000    0.000000
      6          1           0        0.000000    0.319065    0.000000
      7          1           0       -0.000000   -0.319065    0.000000
      8          1           0       -1.809507    0.000000    0.000000
      9          1           0       -1.809507   -0.638130    0.000000
     10          1           0       -3.619015   -0.319065    0.000000
     11          1           0       -3.619015   -0.957195    0.000000
     12          1           0       -5.428522   -0.638130    0.000000
 ---------------------------------------------------------------------

 SCF Done:  E(RHF) =  -5.93831774262     A.U. after    6 cycles
 E2 =    -0.8997235973D+00 EUMP2 =    -0.68380413398800D+01

 The electronic state is 1-AG.
 Alpha  occ. eigenvalues --   -0.73930  -0.71549  -0.67275  -0.61969  -0.56583
 Alpha  occ. eigenvalues --   -0.18333
 Alpha virt. eigenvalues --   -0.13475   0.34024   0.39683   0.48931   0.59632
 Alpha virt. eigenvalues --    0.68873

 Mulliken charges:
               1
     1  H   -0.015559
     2  H    0.006128
     3  H    0.007722
     4  H   -0.000540
     5  H    0.002224
     6  H    0.000026
     7  H    0.000026
     8  H    0.002224
     9  H   -0.000540
    10  H    0.007722
    11  H    0.006128
    12  H   -0.015559
 Sum of Mulliken charges =   0.00000

 Dipole moment (field-independent basis, Debye):
    X=              0.0000    Y=             -0.0000    Z=             -0.0000  Tot=              0.0000
 Quadrupole moment (field-independent basis, Debye-Ang):
   XX=            -23.6045   YY=            -14.1250   ZZ=            -15.7325
   XY=             -0.9308   XZ=             -0.0000   YZ=              0.0000

 Normal termination of Gaussian 09 at Tue Feb 14 17:56:07 2017.
