 Gaussian 09, Revision E.01,
 Gaussian 09:  ES64L-G09RevE.01 30-Nov-2015

 ----------------------------------------------------------------------
 #rhf/gen scf(symm,tight,novaracc,noincfock,fulldiag) stable(crhf) gues
 s=read geom=nocrowd test
 ----------------------------------------------------------------------

 hf stability analysis of h10 triangular lattice, y= 0.6595943070875844
 9
 ----------------------------------------------------------------------
 Symbolic Z-matrix:
 Charge =  0 Multiplicity = 1

                         Standard orientation:
 ---------------------------------------------------------------------
 Center     Atomic      Atomic             Coordinates (Angstroms)
 Number     Number       Type             X           Y           Z
 ---------------------------------------------------------------------
      1          1           0        1.750622    1.978783   -0.000000
      2          1           0        2.625934    1.319189   -0.000000
      3          1           0        0.875311    1.319189   -0.000000
      4          1           0        1.750622    0.659594   -0.000000
      5          1           0        0.000000    0.659594   -0.000000
      6          1           0        0.875311    0.000000    0.000000
      7          1           0       -0.875311    0.000000   -0.000000
      8          1           0       -0.000000   -0.659594   -0.000000
      9          1           0       -1.750622   -0.659594   -0.000000
     10          1           0       -0.875311   -1.319189   -0.000000
     11          1           0       -2.625934   -1.319189   -0.000000
     12          1           0       -1.750622   -1.978783   -0.000000
 ---------------------------------------------------------------------

 SCF Done:  E(RHF) =  -5.40655297540     A.U. after   11 cycles
 E2 =    -0.2818920830D+00 EUMP2 =    -0.56884450583934D+01

 The electronic state is 1-AG.
 Alpha  occ. eigenvalues --   -0.89719  -0.78127  -0.63414  -0.44691  -0.25465
 Alpha  occ. eigenvalues --   -0.18241
 Alpha virt. eigenvalues --   -0.20251   0.09877   0.32930   0.33618   0.61031
 Alpha virt. eigenvalues --    0.79844

 Mulliken charges:
               1
     1  H    0.044258
     2  H   -0.148723
     3  H   -0.120896
     4  H   -0.025303
     5  H    0.134637
     6  H    0.116027
     7  H    0.116027
     8  H    0.134637
     9  H   -0.025303
    10  H   -0.120896
    11  H   -0.148723
    12  H    0.044258
 Sum of Mulliken charges =  -0.00000

 Dipole moment (field-independent basis, Debye):
    X=              0.0000    Y=              0.0000    Z=              0.0000  Tot=              0.0000
 Quadrupole moment (field-independent basis, Debye-Ang):
   XX=            -29.2063   YY=            -19.8858   ZZ=            -14.9028
   XY=             -9.0768   XZ=             -0.0000   YZ=             -0.0000

 Normal termination of Gaussian 09 at Tue Feb 14 17:54:23 2017.
