 Gaussian 09, Revision E.01,
 Gaussian 09:  ES64L-G09RevE.01 30-Nov-2015

 ----------------------------------------------------------------------
 #rhf/gen scf(symm,tight,novaracc,noincfock,fulldiag) stable(crhf) gues
 s=read geom=nocrowd test
 ----------------------------------------------------------------------

 hf stability analysis of h10 triangular lattice, y= 0.7337491795890599
 4
 ----------------------------------------------------------------------
 Symbolic Z-matrix:
 Charge =  0 Multiplicity = 1

                         Standard orientation:
 ---------------------------------------------------------------------
 Center     Atomic      Atomic             Coordinates (Angstroms)
 Number     Number       Type             X           Y           Z
 ---------------------------------------------------------------------
      1          1           0        1.573699    2.201247   -0.000000
      2          1           0        2.360549    1.467498   -0.000000
      3          1           0        0.786850    1.467498   -0.000000
      4          1           0        1.573699    0.733749   -0.000000
      5          1           0        0.000000    0.733749   -0.000000
      6          1           0        0.786850    0.000000   -0.000000
      7          1           0       -0.786850    0.000000   -0.000000
      8          1           0       -0.000000   -0.733749   -0.000000
      9          1           0       -1.573699   -0.733749   -0.000000
     10          1           0       -0.786850   -1.467498   -0.000000
     11          1           0       -2.360549   -1.467498   -0.000000
     12          1           0       -1.573699   -2.201247   -0.000000
 ---------------------------------------------------------------------

 SCF Done:  E(RHF) =  -5.35589765942     A.U. after   12 cycles
 E2 =    -0.3080433757D+00 EUMP2 =    -0.56639410351327D+01

 The electronic state is 1-AG.
 Alpha  occ. eigenvalues --   -0.90362  -0.77754  -0.62853  -0.44214  -0.26311
 Alpha  occ. eigenvalues --   -0.16185
 Alpha virt. eigenvalues --   -0.21774   0.09506   0.32668   0.33049   0.64356
 Alpha virt. eigenvalues --    0.91991

 Mulliken charges:
               1
     1  H   -0.022493
     2  H   -0.068581
     3  H   -0.114598
     4  H   -0.092470
     5  H    0.164332
     6  H    0.133810
     7  H    0.133810
     8  H    0.164332
     9  H   -0.092470
    10  H   -0.114598
    11  H   -0.068581
    12  H   -0.022493
 Sum of Mulliken charges =  -0.00000

 Dipole moment (field-independent basis, Debye):
    X=              0.0000    Y=             -0.0000    Z=              0.0000  Tot=              0.0000
 Quadrupole moment (field-independent basis, Debye-Ang):
   XX=            -25.3384   YY=            -22.8832   ZZ=            -14.8156
   XY=             -9.8194   XZ=             -0.0000   YZ=             -0.0000

 Normal termination of Gaussian 09 at Tue Feb 14 17:54:38 2017.
