 Gaussian 09, Revision E.01,
 Gaussian 09:  ES64L-G09RevE.01 30-Nov-2015

 ----------------------------------------------------------------------
 #rhf/gen scf(symm,tight,novaracc,noincfock,fulldiag) stable(crhf) gues
 s=read geom=nocrowd test
 ----------------------------------------------------------------------

 hf stability analysis of h10 triangular lattice, y= 0.5423787099077283
 0
 ----------------------------------------------------------------------
 Symbolic Z-matrix:
 Charge =  0 Multiplicity = 1

                         Standard orientation:
 ---------------------------------------------------------------------
 Center     Atomic      Atomic             Coordinates (Angstroms)
 Number     Number       Type             X           Y           Z
 ---------------------------------------------------------------------
      1          1           0        2.128956    1.627136    0.000000
      2          1           0        3.193434    1.084757    0.000000
      3          1           0        1.064478    1.084757    0.000000
      4          1           0        2.128956    0.542379    0.000000
      5          1           0        0.000000    0.542379   -0.000000
      6          1           0        1.064478    0.000000    0.000000
      7          1           0       -1.064478    0.000000    0.000000
      8          1           0       -0.000000   -0.542379   -0.000000
      9          1           0       -2.128956   -0.542379    0.000000
     10          1           0       -1.064478   -1.084757   -0.000000
     11          1           0       -3.193434   -1.084757    0.000000
     12          1           0       -2.128956   -1.627136   -0.000000
 ---------------------------------------------------------------------

 SCF Done:  E(RHF) =  -5.54305843827     A.U. after   10 cycles
 E2 =    -0.2613775561D+00 EUMP2 =    -0.58044359944049D+01

 The electronic state is 1-AG.
 Alpha  occ. eigenvalues --   -0.85614  -0.77247  -0.64434  -0.46662  -0.25192
 Alpha  occ. eigenvalues --   -0.18361
 Alpha virt. eigenvalues --   -0.11888   0.12535   0.27047   0.34000   0.48457
 Alpha virt. eigenvalues --    0.58024

 Mulliken charges:
               1
     1  H    0.051532
     2  H   -0.129751
     3  H   -0.099344
     4  H    0.055446
     5  H    0.085026
     6  H    0.037091
     7  H    0.037091
     8  H    0.085026
     9  H    0.055446
    10  H   -0.099344
    11  H   -0.129751
    12  H    0.051532
 Sum of Mulliken charges =  -0.00000

 Dipole moment (field-independent basis, Debye):
    X=              0.0000    Y=             -0.0000    Z=             -0.0000  Tot=              0.0000
 Quadrupole moment (field-independent basis, Debye-Ang):
   XX=            -28.9881   YY=            -17.5148   ZZ=            -15.2027
   XY=             -5.3868   XZ=             -0.0000   YZ=             -0.0000

 Normal termination of Gaussian 09 at Tue Feb 14 17:53:59 2017.
