 Gaussian 09, Revision E.01,
 Gaussian 09:  ES64L-G09RevE.01 30-Nov-2015

 ----------------------------------------------------------------------
 #rhf/gen scf(symm,tight,novaracc,noincfock,fulldiag) stable(crhf) gues
 s=read geom=nocrowd test
 ----------------------------------------------------------------------

 hf stability analysis of h10 triangular lattice, y= 0.3794068973118231
 4
 ----------------------------------------------------------------------
 Symbolic Z-matrix:
 Charge =  0 Multiplicity = 1

                         Standard orientation:
 ---------------------------------------------------------------------
 Center     Atomic      Atomic             Coordinates (Angstroms)
 Number     Number       Type             X           Y           Z
 ---------------------------------------------------------------------
      1          1           0        3.043436    1.138221   -0.000000
      2          1           0        4.565154    0.758814   -0.000000
      3          1           0        1.521718    0.758814   -0.000000
      4          1           0        3.043436    0.379407   -0.000000
      5          1           0        0.000000    0.379407    0.000000
      6          1           0        1.521718    0.000000   -0.000000
      7          1           0       -1.521718    0.000000    0.000000
      8          1           0       -0.000000   -0.379407    0.000000
      9          1           0       -3.043436   -0.379407    0.000000
     10          1           0       -1.521718   -0.758814    0.000000
     11          1           0       -4.565154   -0.758814    0.000000
     12          1           0       -3.043436   -1.138221    0.000000
 ---------------------------------------------------------------------

 SCF Done:  E(RHF) =  -5.90896580976     A.U. after    8 cycles
 E2 =    -0.7049603189D+00 EUMP2 =    -0.66139261286953D+01

 The electronic state is 1-AG.
 Alpha  occ. eigenvalues --   -0.76090  -0.72422  -0.65341  -0.56145  -0.45553
 Alpha  occ. eigenvalues --   -0.14004
 Alpha virt. eigenvalues --   -0.08435   0.21004   0.28001   0.39997   0.54036
 Alpha virt. eigenvalues --    0.66504

 Mulliken charges:
               1
     1  H    0.017156
     2  H   -0.071642
     3  H    0.002252
     4  H    0.042933
     5  H    0.000393
     6  H    0.008907
     7  H    0.008907
     8  H    0.000393
     9  H    0.042933
    10  H    0.002252
    11  H   -0.071642
    12  H    0.017156
 Sum of Mulliken charges =  -0.00000

 Dipole moment (field-independent basis, Debye):
    X=              0.0000    Y=              0.0000    Z=              0.0000  Tot=              0.0000
 Quadrupole moment (field-independent basis, Debye-Ang):
   XX=            -31.2619   YY=            -13.5513   ZZ=            -15.3598
   XY=             -2.6949   XZ=              0.0000   YZ=              0.0000

 Normal termination of Gaussian 09 at Tue Feb 14 17:53:29 2017.
