 Gaussian 09, Revision E.01,
 Gaussian 09:  ES64L-G09RevE.01 30-Nov-2015

 ----------------------------------------------------------------------
 #rhf/gen scf(symm,tight,novaracc,noincfock,fulldiag) stable(crhf) gues
 s=read geom=nocrowd test
 ----------------------------------------------------------------------

 hf stability analysis of h10 triangular lattice, y= 0.2662511995880488
 8
 ----------------------------------------------------------------------
 Symbolic Z-matrix:
 Charge =  0 Multiplicity = 1

                         Standard orientation:
 ---------------------------------------------------------------------
 Center     Atomic      Atomic             Coordinates (Angstroms)
 Number     Number       Type             X           Y           Z
 ---------------------------------------------------------------------
      1          1           0        4.336884    0.798754   -0.000000
      2          1           0        6.505326    0.532502    0.000000
      3          1           0        2.168442    0.532502   -0.000000
      4          1           0        4.336884    0.266251    0.000000
      5          1           0        0.000000    0.266251   -0.000000
      6          1           0        2.168442    0.000000    0.000000
      7          1           0       -2.168442    0.000000    0.000000
      8          1           0       -0.000000   -0.266251    0.000000
      9          1           0       -4.336884   -0.266251    0.000000
     10          1           0       -2.168442   -0.532502    0.000000
     11          1           0       -6.505326   -0.532502    0.000000
     12          1           0       -4.336884   -0.798754    0.000000
 ---------------------------------------------------------------------

 SCF Done:  E(RHF) =  -5.65264951454     A.U. after    5 cycles
 E2 =    -0.1107524140D+01 EUMP2 =    -0.67601736548129D+01

 The electronic state is 1-AG.
 Alpha  occ. eigenvalues --   -0.73487  -0.72209  -0.70142  -0.67789  -0.65714
 Alpha  occ. eigenvalues --   -0.19886
 Alpha virt. eigenvalues --   -0.15830   0.47505   0.51677   0.58077   0.65218
 Alpha virt. eigenvalues --    0.71079

 Mulliken charges:
               1
     1  H    0.000669
     2  H   -0.000002
     3  H   -0.000245
     4  H   -0.000764
     5  H    0.000001
     6  H    0.000341
     7  H    0.000341
     8  H    0.000001
     9  H   -0.000764
    10  H   -0.000245
    11  H   -0.000002
    12  H    0.000669
 Sum of Mulliken charges =  -0.00000

 Dipole moment (field-independent basis, Debye):
    X=             -0.0000    Y=              0.0000    Z=             -0.0000  Tot=              0.0000
 Quadrupole moment (field-independent basis, Debye-Ang):
   XX=            -19.2581   YY=            -14.8266   ZZ=            -16.0512
   XY=             -0.2700   XZ=              0.0000   YZ=             -0.0000

 Normal termination of Gaussian 09 at Tue Feb 14 17:53:14 2017.
