 Gaussian 09, Revision E.01,
 Gaussian 09:  ES64L-G09RevE.01 30-Nov-2015

 ----------------------------------------------------------------------
 #rhf/gen scf(symm,tight,novaracc,noincfock,fulldiag) stable(crhf) gues
 s=read geom=nocrowd test
 ----------------------------------------------------------------------

 hf stability analysis of h10 triangular lattice, y= 0.4068814698559844
 5
 ----------------------------------------------------------------------
 Symbolic Z-matrix:
 Charge =  0 Multiplicity = 1

                         Standard orientation:
 ---------------------------------------------------------------------
 Center     Atomic      Atomic             Coordinates (Angstroms)
 Number     Number       Type             X           Y           Z
 ---------------------------------------------------------------------
      1          1           0        2.837929    1.220644   -0.000000
      2          1           0        4.256893    0.813763   -0.000000
      3          1           0        1.418964    0.813763   -0.000000
      4          1           0        2.837929    0.406881   -0.000000
      5          1           0        0.000000    0.406881    0.000000
      6          1           0        1.418964    0.000000   -0.000000
      7          1           0       -1.418964    0.000000   -0.000000
      8          1           0       -0.000000   -0.406881   -0.000000
      9          1           0       -2.837929   -0.406881   -0.000000
     10          1           0       -1.418964   -0.813763   -0.000000
     11          1           0       -4.256893   -0.813763   -0.000000
     12          1           0       -2.837929   -1.220644   -0.000000
 ---------------------------------------------------------------------

 SCF Done:  E(RHF) =  -5.80932285717     A.U. after    8 cycles
 E2 =    -0.6360649873D+00 EUMP2 =    -0.64453878444882D+01

 The electronic state is 1-AG.
 Alpha  occ. eigenvalues --   -0.77460  -0.73190  -0.64821  -0.53907  -0.40872
 Alpha  occ. eigenvalues --   -0.10988
 Alpha virt. eigenvalues --   -0.05394   0.15745   0.23353   0.36387   0.51606
 Alpha virt. eigenvalues --    0.65081

 Mulliken charges:
               1
     1  H    0.014260
     2  H   -0.107503
     3  H    0.009308
     4  H    0.073840
     5  H    0.000856
     6  H    0.009238
     7  H    0.009238
     8  H    0.000856
     9  H    0.073840
    10  H    0.009308
    11  H   -0.107503
    12  H    0.014260
 Sum of Mulliken charges =  -0.00000

 Dipole moment (field-independent basis, Debye):
    X=             -0.0000    Y=             -0.0000    Z=              0.0000  Tot=              0.0000
 Quadrupole moment (field-independent basis, Debye-Ang):
   XX=            -34.4895   YY=            -13.5629   ZZ=            -15.2075
   XY=             -3.8886   XZ=             -0.0000   YZ=              0.0000

 Normal termination of Gaussian 09 at Tue Feb 14 17:53:34 2017.
