 Gaussian 09, Revision E.01,
 Gaussian 09:  ES64L-G09RevE.01 30-Nov-2015

 ----------------------------------------------------------------------
 #rhf/gen scf(symm,tight,novaracc,noincfock,fulldiag) stable(crhf) gues
 s=read geom=nocrowd test
 ----------------------------------------------------------------------

 hf stability analysis of h10 triangular lattice, y= 0.5657123745340343
 3
 ----------------------------------------------------------------------
 Symbolic Z-matrix:
 Charge =  0 Multiplicity = 1

                         Standard orientation:
 ---------------------------------------------------------------------
 Center     Atomic      Atomic             Coordinates (Angstroms)
 Number     Number       Type             X           Y           Z
 ---------------------------------------------------------------------
      1          1           0        2.041144    1.697137   -0.000000
      2          1           0        3.061716    1.131425   -0.000000
      3          1           0        1.020572    1.131425   -0.000000
      4          1           0        2.041144    0.565712   -0.000000
      5          1           0        0.000000    0.565712    0.000000
      6          1           0        1.020572    0.000000   -0.000000
      7          1           0       -1.020572    0.000000    0.000000
      8          1           0       -0.000000   -0.565712   -0.000000
      9          1           0       -2.041144   -0.565712   -0.000000
     10          1           0       -1.020572   -1.131425   -0.000000
     11          1           0       -3.061716   -1.131425   -0.000000
     12          1           0       -2.041144   -1.697137   -0.000000
 ---------------------------------------------------------------------

 SCF Done:  E(RHF) =  -5.51898593420     A.U. after   10 cycles
 E2 =    -0.2658896861D+00 EUMP2 =    -0.57848756203389D+01

 The electronic state is 1-AG.
 Alpha  occ. eigenvalues --   -0.86861  -0.77733  -0.64335  -0.46183  -0.23819
 Alpha  occ. eigenvalues --   -0.20272
 Alpha virt. eigenvalues --   -0.14291   0.11995   0.28778   0.35013   0.53616
 Alpha virt. eigenvalues --    0.57617

 Mulliken charges:
               1
     1  H    0.064453
     2  H   -0.153651
     3  H   -0.108255
     4  H    0.043929
     5  H    0.093435
     6  H    0.060089
     7  H    0.060089
     8  H    0.093435
     9  H    0.043929
    10  H   -0.108255
    11  H   -0.153651
    12  H    0.064453
 Sum of Mulliken charges =   0.00000

 Dipole moment (field-independent basis, Debye):
    X=              0.0000    Y=              0.0000    Z=              0.0000  Tot=              0.0000
 Quadrupole moment (field-independent basis, Debye-Ang):
   XX=            -30.2912   YY=            -17.7367   ZZ=            -15.1341
   XY=             -6.3497   XZ=              0.0000   YZ=              0.0000

 Normal termination of Gaussian 09 at Tue Feb 14 17:54:04 2017.
