 Gaussian 09, Revision E.01,
 Gaussian 09:  ES64L-G09RevE.01 30-Nov-2015

 ----------------------------------------------------------------------
 #rhf/gen scf(symm,tight,novaracc,noincfock,fulldiag) stable(crhf) gues
 s=read geom=nocrowd test
 ----------------------------------------------------------------------

 ----------------------------------------------------------------------
 hf stability analysis of h10 triangular lattice, y= 1.2594669489559134
 ----------------------------------------------------------------------
 Symbolic Z-matrix:
 Charge =  0 Multiplicity = 1

                         Standard orientation:
 ---------------------------------------------------------------------
 Center     Atomic      Atomic             Coordinates (Angstroms)
 Number     Number       Type             X           Y           Z
 ---------------------------------------------------------------------
      1          1           0        3.778401    0.916817   -0.000000
      2          1           0        2.518934    1.375225   -0.000000
      3          1           0        2.518934    0.458408   -0.000000
      4          1           0        1.259467    0.916817   -0.000000
      5          1           0        1.259467    0.000000   -0.000000
      6          1           0        0.000000    0.458408    0.000000
      7          1           0       -0.000000   -0.458408   -0.000000
      8          1           0       -1.259467    0.000000   -0.000000
      9          1           0       -1.259467   -0.916817   -0.000000
     10          1           0       -2.518934   -0.458408   -0.000000
     11          1           0       -2.518934   -1.375225   -0.000000
     12          1           0       -3.778401   -0.916817   -0.000000
 ---------------------------------------------------------------------

 SCF Done:  E(RHF) =  -5.58316154060     A.U. after   12 cycles
 E2 =    -0.2936587483D+00 EUMP2 =    -0.58768202888695D+01

 The electronic state is 1-AG.
 Alpha  occ. eigenvalues --   -0.79248  -0.74328  -0.63728  -0.49080  -0.32078
 Alpha  occ. eigenvalues --   -0.07644
 Alpha virt. eigenvalues --   -0.01307   0.08963   0.17903   0.29585   0.47748
 Alpha virt. eigenvalues --    0.63298

 Mulliken charges:
               1
     1  H   -0.020844
     2  H   -0.121253
     3  H    0.172594
     4  H    0.042829
     5  H   -0.095193
     6  H    0.021866
     7  H    0.021866
     8  H   -0.095193
     9  H    0.042829
    10  H    0.172594
    11  H   -0.121253
    12  H   -0.020844
 Sum of Mulliken charges =   0.00000

 Dipole moment (field-independent basis, Debye):
    X=              0.0000    Y=             -0.0000    Z=              0.0000  Tot=              0.0000
 Quadrupole moment (field-independent basis, Debye-Ang):
   XX=            -21.4240   YY=            -17.0399   ZZ=            -15.2822
   XY=             -3.6948   XZ=             -0.0000   YZ=             -0.0000

 Normal termination of Gaussian 09 at Tue Feb 14 17:55:44 2017.
