 Gaussian 09, Revision E.01,
 Gaussian 09:  ES64L-G09RevE.01 30-Nov-2015

 ----------------------------------------------------------------------
 #rhf/gen scf(symm,tight,novaracc,noincfock,fulldiag) stable(crhf) gues
 s=read geom=nocrowd test
 ----------------------------------------------------------------------

 hf stability analysis of h10 triangular lattice, y= 0.9612250668035587
 9
 ----------------------------------------------------------------------
 Symbolic Z-matrix:
 Charge =  0 Multiplicity = 1

                         Standard orientation:
 ---------------------------------------------------------------------
 Center     Atomic      Atomic             Coordinates (Angstroms)
 Number     Number       Type             X           Y           Z
 ---------------------------------------------------------------------
      1          1           0        2.883675    1.201280   -0.000000
      2          1           0        1.922450    1.801920   -0.000000
      3          1           0        1.922450    0.600640    0.000000
      4          1           0        0.961225    1.201280   -0.000000
      5          1           0        0.961225    0.000000    0.000000
      6          1           0        0.000000    0.600640   -0.000000
      7          1           0       -0.000000   -0.600640   -0.000000
      8          1           0       -0.961225    0.000000    0.000000
      9          1           0       -0.961225   -1.201280    0.000000
     10          1           0       -1.922450   -0.600640    0.000000
     11          1           0       -1.922450   -1.801920    0.000000
     12          1           0       -2.883675   -1.201280    0.000000
 ---------------------------------------------------------------------

 SCF Done:  E(RHF) =  -5.47653743340     A.U. after   10 cycles
 E2 =    -0.2776333458D+00 EUMP2 =    -0.57541707791595D+01

 The electronic state is 1-AG.
 Alpha  occ. eigenvalues --   -0.88289  -0.78129  -0.64047  -0.45529  -0.23524
 Alpha  occ. eigenvalues --   -0.20816
 Alpha virt. eigenvalues --   -0.17160   0.11005   0.31086   0.34773   0.58101
 Alpha virt. eigenvalues --    0.63471

 Mulliken charges:
               1
     1  H   -0.170293
     2  H    0.069546
     3  H    0.022850
     4  H   -0.116647
     5  H    0.088355
     6  H    0.106189
     7  H    0.106189
     8  H    0.088355
     9  H   -0.116647
    10  H    0.022850
    11  H    0.069546
    12  H   -0.170293
 Sum of Mulliken charges =  -0.00000

 Dipole moment (field-independent basis, Debye):
    X=             -0.0000    Y=             -0.0000    Z=             -0.0000  Tot=              0.0000
 Quadrupole moment (field-independent basis, Debye-Ang):
   XX=            -30.8389   YY=            -18.2958   ZZ=            -15.0369
   XY=             -7.6007   XZ=              0.0000   YZ=              0.0000

 Normal termination of Gaussian 09 at Tue Feb 14 17:55:16 2017.
