 Gaussian 09, Revision E.01,
 Gaussian 09:  ES64L-G09RevE.01 30-Nov-2015

 ----------------------------------------------------------------------
 #rhf/gen scf(symm,tight,novaracc,noincfock,fulldiag) stable(crhf) gues
 s=read geom=nocrowd test
 ----------------------------------------------------------------------

 hf stability analysis of h10 triangular lattice, y= 0.8914339662136427
 9
 ----------------------------------------------------------------------
 Symbolic Z-matrix:
 Charge =  0 Multiplicity = 1

                         Standard orientation:
 ---------------------------------------------------------------------
 Center     Atomic      Atomic             Coordinates (Angstroms)
 Number     Number       Type             X           Y           Z
 ---------------------------------------------------------------------
      1          1           0        2.674302    1.295329    0.000000
      2          1           0        1.782868    1.942994   -0.000000
      3          1           0        1.782868    0.647665    0.000000
      4          1           0        0.891434    1.295329   -0.000000
      5          1           0        0.891434    0.000000    0.000000
      6          1           0        0.000000    0.647665   -0.000000
      7          1           0       -0.000000   -0.647665    0.000000
      8          1           0       -0.891434    0.000000    0.000000
      9          1           0       -0.891434   -1.295329    0.000000
     10          1           0       -1.782868   -0.647665    0.000000
     11          1           0       -1.782868   -1.942994    0.000000
     12          1           0       -2.674302   -1.295329    0.000000
 ---------------------------------------------------------------------

 SCF Done:  E(RHF) =  -5.41938032374     A.U. after   11 cycles
 E2 =    -0.2685447508D+00 EUMP2 =    -0.56879250745009D+01

 The electronic state is 1-AG.
 Alpha  occ. eigenvalues --   -0.89513  -0.78174  -0.63542  -0.44829  -0.25168
 Alpha  occ. eigenvalues --   -0.18735
 Alpha virt. eigenvalues --   -0.19783   0.10035   0.32744   0.33841   0.60339
 Alpha virt. eigenvalues --    0.76816

 Mulliken charges:
               1
     1  H   -0.157654
     2  H    0.052407
     3  H   -0.014446
     4  H   -0.120869
     5  H    0.112642
     6  H    0.127919
     7  H    0.127919
     8  H    0.112642
     9  H   -0.120869
    10  H   -0.014446
    11  H    0.052407
    12  H   -0.157654
 Sum of Mulliken charges =   0.00000

 Dipole moment (field-independent basis, Debye):
    X=             -0.0000    Y=             -0.0000    Z=             -0.0000  Tot=              0.0000
 Quadrupole moment (field-independent basis, Debye-Ang):
   XX=            -29.7178   YY=            -19.4990   ZZ=            -14.9260
   XY=             -8.8476   XZ=              0.0000   YZ=              0.0000

 Normal termination of Gaussian 09 at Tue Feb 14 17:55:03 2017.
