 Gaussian 09, Revision E.01,
 Gaussian 09:  ES64L-G09RevE.01 30-Nov-2015

 ----------------------------------------------------------------------
 #rhf/gen scf(symm,tight,novaracc,noincfock,fulldiag) stable(crhf) gues
 s=read geom=nocrowd test
 ----------------------------------------------------------------------

 ----------------------------------------------------------------------
 hf stability analysis of h10 triangular lattice, y= 1.9092530122354845
 ----------------------------------------------------------------------
 Symbolic Z-matrix:
 Charge =  0 Multiplicity = 1

                         Standard orientation:
 ---------------------------------------------------------------------
 Center     Atomic      Atomic             Coordinates (Angstroms)
 Number     Number       Type             X           Y           Z
 ---------------------------------------------------------------------
      1          1           0        5.727759    0.604792    0.000000
      2          1           0        3.818506    0.907188    0.000000
      3          1           0        3.818506    0.302396    0.000000
      4          1           0        1.909253    0.604792    0.000000
      5          1           0        1.909253    0.000000    0.000000
      6          1           0        0.000000    0.302396   -0.000000
      7          1           0       -0.000000   -0.302396    0.000000
      8          1           0       -1.909253    0.000000    0.000000
      9          1           0       -1.909253   -0.604792    0.000000
     10          1           0       -3.818506   -0.302396    0.000000
     11          1           0       -3.818506   -0.907188    0.000000
     12          1           0       -5.727759   -0.604792    0.000000
 ---------------------------------------------------------------------

 SCF Done:  E(RHF) =  -5.88575094234     A.U. after    6 cycles
 E2 =    -0.9613857733D+00 EUMP2 =    -0.68471367156379D+01

 The electronic state is 1-AG.
 Alpha  occ. eigenvalues --   -0.73625  -0.71596  -0.68060  -0.63769  -0.59597
 Alpha  occ. eigenvalues --   -0.19009
 Alpha virt. eigenvalues --   -0.14402   0.38025   0.43262   0.51653   0.61273
 Alpha virt. eigenvalues --    0.69461

 Mulliken charges:
               1
     1  H   -0.007925
     2  H    0.003704
     3  H    0.003411
     4  H   -0.000497
     5  H    0.001299
     6  H    0.000010
     7  H    0.000010
     8  H    0.001299
     9  H   -0.000497
    10  H    0.003411
    11  H    0.003704
    12  H   -0.007925
 Sum of Mulliken charges =  -0.00000

 Dipole moment (field-independent basis, Debye):
    X=              0.0000    Y=             -0.0000    Z=             -0.0000  Tot=              0.0000
 Quadrupole moment (field-independent basis, Debye-Ang):
   XX=            -21.9446   YY=            -14.3423   ZZ=            -15.8376
   XY=             -0.6514   XZ=              0.0000   YZ=             -0.0000

 Normal termination of Gaussian 09 at Tue Feb 14 17:56:09 2017.
