 Gaussian 09, Revision E.01,
 Gaussian 09:  ES64L-G09RevE.01 30-Nov-2015

 ----------------------------------------------------------------------
 #rhf/gen scf(symm,tight,novaracc,noincfock,fulldiag) stable(crhf) gues
 s=read geom=nocrowd test
 ----------------------------------------------------------------------

 ----------------------------------------------------------------------
 hf stability analysis of h10 triangular lattice, y= 1.1954046164231349
 ----------------------------------------------------------------------
 Symbolic Z-matrix:
 Charge =  0 Multiplicity = 1

                         Standard orientation:
 ---------------------------------------------------------------------
 Center     Atomic      Atomic             Coordinates (Angstroms)
 Number     Number       Type             X           Y           Z
 ---------------------------------------------------------------------
      1          1           0        3.586214    0.965950    0.000000
      2          1           0        2.390809    1.448924    0.000000
      3          1           0        2.390809    0.482975    0.000000
      4          1           0        1.195405    0.965950    0.000000
      5          1           0        1.195405    0.000000    0.000000
      6          1           0        0.000000    0.482975    0.000000
      7          1           0       -0.000000   -0.482975    0.000000
      8          1           0       -1.195405    0.000000    0.000000
      9          1           0       -1.195405   -0.965950    0.000000
     10          1           0       -2.390809   -0.482975    0.000000
     11          1           0       -2.390809   -1.448924    0.000000
     12          1           0       -3.586214   -0.965950    0.000000
 ---------------------------------------------------------------------

 SCF Done:  E(RHF) =  -5.57238337633     A.U. after   10 cycles
 E2 =    -0.2598027710D+00 EUMP2 =    -0.58321861472909D+01

 The electronic state is 1-AG.
 Alpha  occ. eigenvalues --   -0.81301  -0.75188  -0.64139  -0.47993  -0.29549
 Alpha  occ. eigenvalues --   -0.11238
 Alpha virt. eigenvalues --   -0.04084   0.10500   0.22805   0.26376   0.46145
 Alpha virt. eigenvalues --    0.61352

 Mulliken charges:
               1
     1  H   -0.029226
     2  H   -0.035237
     3  H    0.098574
     4  H   -0.044885
     5  H   -0.044835
     6  H    0.055608
     7  H    0.055608
     8  H   -0.044835
     9  H   -0.044885
    10  H    0.098574
    11  H   -0.035237
    12  H   -0.029226
 Sum of Mulliken charges =  -0.00000

 Dipole moment (field-independent basis, Debye):
    X=              0.0000    Y=              0.0000    Z=             -0.0000  Tot=              0.0000
 Quadrupole moment (field-independent basis, Debye-Ang):
   XX=            -21.3125   YY=            -17.4951   ZZ=            -15.3615
   XY=             -2.9577   XZ=              0.0000   YZ=              0.0000

 Normal termination of Gaussian 09 at Tue Feb 14 17:55:40 2017.
