 Gaussian 09, Revision E.01,
 Gaussian 09:  ES64L-G09RevE.01 30-Nov-2015

 ----------------------------------------------------------------------
 #rhf/gen scf(symm,tight,novaracc,noincfock,fulldiag) stable(crhf) gues
 s=read geom=nocrowd test
 ----------------------------------------------------------------------

 hf stability analysis of h10 triangular lattice, y= 0.5540600992415728
 5
 ----------------------------------------------------------------------
 Symbolic Z-matrix:
 Charge =  0 Multiplicity = 1

                         Standard orientation:
 ---------------------------------------------------------------------
 Center     Atomic      Atomic             Coordinates (Angstroms)
 Number     Number       Type             X           Y           Z
 ---------------------------------------------------------------------
      1          1           0        2.084071    1.662180    0.000000
      2          1           0        3.126106    1.108120    0.000000
      3          1           0        1.042035    1.108120    0.000000
      4          1           0        2.084071    0.554060    0.000000
      5          1           0        0.000000    0.554060    0.000000
      6          1           0        1.042035    0.000000    0.000000
      7          1           0       -1.042035    0.000000   -0.000000
      8          1           0       -0.000000   -0.554060    0.000000
      9          1           0       -2.084071   -0.554060   -0.000000
     10          1           0       -1.042035   -1.108120   -0.000000
     11          1           0       -3.126106   -1.108120   -0.000000
     12          1           0       -2.084071   -1.662180   -0.000000
 ---------------------------------------------------------------------

 SCF Done:  E(RHF) =  -5.53164080852     A.U. after   10 cycles
 E2 =    -0.2633590337D+00 EUMP2 =    -0.57949998421871D+01

 The electronic state is 1-AG.
 Alpha  occ. eigenvalues --   -0.86269  -0.77514  -0.64396  -0.46419  -0.24464
 Alpha  occ. eigenvalues --   -0.19398
 Alpha virt. eigenvalues --   -0.13141   0.12301   0.27898   0.34714   0.50792
 Alpha virt. eigenvalues --    0.57748

 Mulliken charges:
               1
     1  H    0.059024
     2  H   -0.142984
     3  H   -0.104203
     4  H    0.049854
     5  H    0.089297
     6  H    0.049012
     7  H    0.049012
     8  H    0.089297
     9  H    0.049854
    10  H   -0.104203
    11  H   -0.142984
    12  H    0.059024
 Sum of Mulliken charges =  -0.00000

 Dipole moment (field-independent basis, Debye):
    X=             -0.0000    Y=              0.0000    Z=              0.0000  Tot=              0.0000
 Quadrupole moment (field-independent basis, Debye-Ang):
   XX=            -29.7482   YY=            -17.6110   ZZ=            -15.1682
   XY=             -5.8796   XZ=             -0.0000   YZ=             -0.0000

 Normal termination of Gaussian 09 at Tue Feb 14 17:54:02 2017.
