 Gaussian 09, Revision E.01,
 Gaussian 09:  ES64L-G09RevE.01 30-Nov-2015

 ----------------------------
 #T RHF/6-31G(d) Pop=Reg Test
 ----------------------------
 --------------------------------------
 single point E calculation for acetone
 --------------------------------------
 Symbolic Z-matrix:
 Charge =  0 Multiplicity = 1

                         Standard orientation:
 ---------------------------------------------------------------------
 Center     Atomic      Atomic             Coordinates (Angstroms)
 Number     Number       Type             X           Y           Z
 ---------------------------------------------------------------------
      1          6           0        0.000000    0.000000    0.082883
      2          8           0        0.000000    0.000000    1.152883
      3          6           0        0.000000    1.316359   -0.677117
      4          6           0       -0.000000   -1.316359   -0.677117
      5          1           0        0.000000    2.145201    0.030781
      6          1           0        0.889823    1.888331   -0.414130
      7          1           0       -0.889823    1.888331   -0.414130
      8          1           0       -0.000000   -2.145201    0.030781
      9          1           0       -0.889823   -1.888331   -0.414130
     10          1           0        0.889823   -1.888331   -0.414130
 ---------------------------------------------------------------------

 SCF Done:  E(RHF) =  -191.546525499     A.U. after   12 cycles

 The electronic state is 1-A1.
 Alpha  occ. eigenvalues --  -20.55631 -11.32431 -11.20957 -11.20955  -1.50278
 Alpha  occ. eigenvalues --   -1.07910  -1.06917  -0.80498  -0.69887  -0.67797
 Alpha  occ. eigenvalues --   -0.65877  -0.59343  -0.54071  -0.45814  -0.38145
 Alpha  occ. eigenvalues --   -0.33390
 Alpha virt. eigenvalues --    0.17587   0.20299   0.22987   0.23305   0.26997
 Alpha virt. eigenvalues --    0.31923   0.35321   0.38058   0.48759   0.49459
 Alpha virt. eigenvalues --    0.71822   0.72791   0.78533   0.83495   0.84463

 Mulliken charges:
               1
     1  C    0.330601
     2  O   -0.361724
     3  C   -0.624957
     4  C   -0.624957
     5  H    0.235489
     6  H    0.202515
     7  H    0.202515
     8  H    0.235489
     9  H    0.202515
    10  H    0.202515
 Sum of Mulliken charges =  -0.00000

 Dipole moment (field-independent basis, Debye):
    X=              0.0000    Y=              0.0000    Z=              2.1007  Tot=              2.1007
 Orbital energies and kinetic energies (alpha):
                                 1                 2
  12         (A2)--O          -0.593429          0.965218
  13         (B1)--O          -0.540710          1.582415
  14         (B2)--O          -0.458141          1.761368
  15         (A1)--O          -0.381451          1.176993
  16         (B2)--O          -0.333899          1.580811
  17         (B1)--V           0.175874          1.323565
  18         (A1)--V           0.202989          0.884165
  19         (A1)--V           0.229865          0.725406

 Normal termination of Gaussian 09 at Tue Nov 22 14:01:34 2016.
