 Gaussian 09, Revision E.01,
 Gaussian 09:  ES64L-G09RevE.01 30-Nov-2015

 ----------------------------------------------------------------------
 #uhf/gen scf(tight,novaracc,noincfock,fulldiag, ) stable(crhf) guess=r
 ead geom=nocrowd test
 ----------------------------------------------------------------------

 hf stability analysis of h10 triangular lattice, y= 0.6776762931058321
 1 alpha= 38.500000000000000
 ----------------------------------------------------------------------
 Symbolic Z-matrix:
 Charge =  0 Multiplicity = 5

                         Standard orientation:
 ---------------------------------------------------------------------
 Center     Atomic      Atomic             Coordinates (Angstroms)
 Number     Number       Type             X           Y           Z
 ---------------------------------------------------------------------
      1          1           0        2.121420    0.054537    0.000000
      2          1           0        2.121420   -1.034074    0.000000
      3          1           0        1.060710    0.299421    0.000000
      4          1           0        1.060710   -0.789190    0.000000
      5          1           0       -0.000000    0.544305    0.000000
      6          1           0       -0.000000   -0.544305    0.000000
      7          1           0       -1.060710    0.789190    0.000000
      8          1           0       -1.060710   -0.299421    0.000000
      9          1           0       -2.121420    1.034074    0.000000
     10          1           0       -2.121420   -0.054537    0.000000
 ---------------------------------------------------------------------

 SCF Done:  E(UHF) =  -4.71271368675     A.U. after   11 cycles
 E2 =    -0.5672435323D-01 EUMP2 =    -0.47694380399784D+01

 The electronic state is 5-BU.
 Alpha  occ. eigenvalues --   -0.96190  -0.83378  -0.63575  -0.57115  -0.41798
 Alpha  occ. eigenvalues --   -0.36545  -0.17304
 Alpha virt. eigenvalues --    0.22768   0.36775   0.71470
  Beta  occ. eigenvalues --   -0.79316  -0.64714  -0.43135
  Beta virt. eigenvalues --   -0.04983   0.05839   0.10202   0.33084   0.38860
  Beta virt. eigenvalues --    0.63534   0.88938

 Mulliken charges and spin densities:
               1          2
     1  H   -0.080326   0.579106
     2  H   -0.035177   0.466951
     3  H    0.094818   0.425494
     4  H    0.043038   0.236944
     5  H   -0.022354   0.291505
     6  H   -0.022354   0.291505
     7  H    0.043038   0.236944
     8  H    0.094818   0.425494
     9  H   -0.035177   0.466951
    10  H   -0.080326   0.579106
 Sum of Mulliken charges =  -0.00000   4.00000

 Dipole moment (field-independent basis, Debye):
    X=             -0.0000    Y=              0.0000    Z=              0.0000  Tot=              0.0000
 Quadrupole moment (field-independent basis, Debye-Ang):
   XX=            -19.6273   YY=            -14.7489   ZZ=            -12.5426
   XY=              1.0184   XZ=              0.0000   YZ=              0.0000

 Normal termination of Gaussian 09 at Thu Feb 23 12:46:48 2017.
