 Gaussian 09, Revision E.01,
 Gaussian 09:  ES64L-G09RevE.01 30-Nov-2015

 ----------------------------------------------------------------------
 #uhf/gen scf(tight,novaracc,noincfock,fulldiag, ) stable(crhf) guess=r
 ead geom=nocrowd test
 ----------------------------------------------------------------------

 hf stability analysis of h10 triangular lattice, y= 0.2357806384192915
 3 alpha= 5.5000000000000000
 ----------------------------------------------------------------------
 Symbolic Z-matrix:
 Charge =  0 Multiplicity = 5

                         Standard orientation:
 ---------------------------------------------------------------------
 Center     Atomic      Atomic             Coordinates (Angstroms)
 Number     Number       Type             X           Y           Z
 ---------------------------------------------------------------------
      1          1           0        0.938781   -3.599607    0.000000
      2          1           0        0.938781   -6.059608    0.000000
      3          1           0        0.469390   -1.184803    0.000000
      4          1           0        0.469390   -3.644804    0.000000
      5          1           0       -0.000000    1.230000   -0.000000
      6          1           0       -0.000000   -1.230000   -0.000000
      7          1           0       -0.469390    3.644804    0.000000
      8          1           0       -0.469390    1.184803    0.000000
      9          1           0       -0.938781    6.059608    0.000000
     10          1           0       -0.938781    3.599607    0.000000
 ---------------------------------------------------------------------

 SCF Done:  E(UHF) =  -3.77316841741     A.U. after    8 cycles
 E2 =    -0.8543961674D-01 EUMP2 =    -0.38586080341545D+01

 The electronic state is 5-BU.
 Alpha  occ. eigenvalues --   -0.82127  -0.79972  -0.72751  -0.72702  -0.49866
 Alpha  occ. eigenvalues --   -0.49865   0.19163
 Alpha virt. eigenvalues --    0.46899   0.64393   0.65392
  Beta  occ. eigenvalues --   -0.72355  -0.72330  -0.55624
  Beta virt. eigenvalues --   -0.31500   0.13012   0.13014   0.60353   0.62438
  Beta virt. eigenvalues --    0.70040   0.78631

 Mulliken charges and spin densities:
               1          2
     1  H   -0.004654   0.003377
     2  H    0.002547   1.002547
     3  H    0.007241   0.499462
     4  H   -0.009133   0.004458
     5  H    0.003999   0.490157
     6  H    0.003999   0.490157
     7  H   -0.009133   0.004458
     8  H    0.007241   0.499462
     9  H    0.002547   1.002547
    10  H   -0.004654   0.003377
 Sum of Mulliken charges =   0.00000   4.00000

 Dipole moment (field-independent basis, Debye):
    X=              0.0000    Y=              0.0000    Z=             -0.0000  Tot=              0.0000
 Quadrupole moment (field-independent basis, Debye-Ang):
   XX=            -14.2437   YY=            -14.1247   ZZ=            -13.1961
   XY=             -0.0728   XZ=             -0.0000   YZ=             -0.0000

 Normal termination of Gaussian 09 at Thu Feb 23 12:41:24 2017.
