 Gaussian 09, Revision E.01,
 Gaussian 09:  ES64L-G09RevE.01 30-Nov-2015

 ----------------------------------------------------------------------
 #uhf/gen scf(tight,novaracc,noincfock,fulldiag, ) stable(crhf) guess=r
 ead geom=nocrowd test
 ----------------------------------------------------------------------

 hf stability analysis of h10 triangular lattice, y= 1.3850361609029067
  alpha= 73.250000000000000
 ----------------------------------------------------------------------
 Symbolic Z-matrix:
 Charge =  0 Multiplicity = 5

                         Standard orientation:
 ---------------------------------------------------------------------
 Center     Atomic      Atomic             Coordinates (Angstroms)
 Number     Number       Type             X           Y           Z
 ---------------------------------------------------------------------
      1          1           0        1.596649    3.135476    0.000000
      2          1           0        1.596649    1.689071    0.000000
      3          1           0        0.798324    1.929339    0.000000
      4          1           0        0.798324    0.482934    0.000000
      5          1           0        0.000000    0.723203    0.000000
      6          1           0       -0.000000   -0.723203    0.000000
      7          1           0       -0.798324   -0.482934    0.000000
      8          1           0       -0.798324   -1.929339    0.000000
      9          1           0       -1.596649   -1.689071    0.000000
     10          1           0       -1.596649   -3.135476    0.000000
 ---------------------------------------------------------------------

 SCF Done:  E(UHF) =  -4.84007723763     A.U. after    9 cycles
 E2 =    -0.4928521380D-01 EUMP2 =    -0.48893624514248D+01

 The electronic state is 5-BU.
 Alpha  occ. eigenvalues --   -0.85583  -0.76116  -0.66068  -0.55016  -0.40331
 Alpha  occ. eigenvalues --   -0.35041  -0.21515
 Alpha virt. eigenvalues --    0.17812   0.37807   0.52700
  Beta  occ. eigenvalues --   -0.70562  -0.64875  -0.49158
  Beta virt. eigenvalues --   -0.03283   0.18982   0.20258   0.24645   0.29488
  Beta virt. eigenvalues --    0.48331   0.70070

 Mulliken charges and spin densities:
               1          2
     1  H   -0.022970   0.973912
     2  H   -0.000085   0.140657
     3  H    0.008438   0.005358
     4  H    0.039783   0.468404
     5  H   -0.025165   0.411669
     6  H   -0.025165   0.411669
     7  H    0.039783   0.468404
     8  H    0.008438   0.005358
     9  H   -0.000085   0.140657
    10  H   -0.022970   0.973912
 Sum of Mulliken charges =  -0.00000   4.00000

 Dipole moment (field-independent basis, Debye):
    X=              0.0000    Y=             -0.0000    Z=             -0.0000  Tot=              0.0000
 Quadrupole moment (field-independent basis, Debye-Ang):
   XX=            -13.6556   YY=            -18.3079   ZZ=            -12.7588
   XY=             -2.1241   XZ=             -0.0000   YZ=             -0.0000

 Normal termination of Gaussian 09 at Thu Feb 23 12:52:40 2017.
