 Gaussian 09, Revision E.01,
 Gaussian 09:  ES64L-G09RevE.01 30-Nov-2015

 ----------------------------------------------------------------------
 #uhf/gen scf(tight,novaracc,noincfock,fulldiag, ) stable(crhf) guess=r
 ead geom=nocrowd test
 ----------------------------------------------------------------------

 hf stability analysis of h10 triangular lattice, y= 2.0596822134404817
  alpha= 82.250000000000000
 ----------------------------------------------------------------------
 Symbolic Z-matrix:
 Charge =  0 Multiplicity = 5

                         Standard orientation:
 ---------------------------------------------------------------------
 Center     Atomic      Atomic             Coordinates (Angstroms)
 Number     Number       Type             X           Y           Z
 ---------------------------------------------------------------------
      1          1           0        1.111000    5.045472    0.000000
      2          1           0        1.111000    2.966803    0.000000
      3          1           0        0.555500    3.042403    0.000000
      4          1           0        0.555500    0.963734    0.000000
      5          1           0       -0.000000    1.039334    0.000000
      6          1           0       -0.000000   -1.039334    0.000000
      7          1           0       -0.555500   -0.963734    0.000000
      8          1           0       -0.555500   -3.042403    0.000000
      9          1           0       -1.111000   -2.966803    0.000000
     10          1           0       -1.111000   -5.045472    0.000000
 ---------------------------------------------------------------------

 SCF Done:  E(UHF) =  -4.33178401774     A.U. after    9 cycles
 E2 =    -0.6228207898D-01 EUMP2 =    -0.43940660967157D+01

 The electronic state is 5-BU.
 Alpha  occ. eigenvalues --   -0.81861  -0.76851  -0.70027  -0.69141  -0.49219
 Alpha  occ. eigenvalues --   -0.49190   0.06461
 Alpha virt. eigenvalues --    0.39537   0.56015   0.59558
  Beta  occ. eigenvalues --   -0.69513  -0.69193  -0.55764
  Beta virt. eigenvalues --   -0.25158   0.13865   0.13898   0.47689   0.52147
  Beta virt. eigenvalues --    0.62511   0.74782

 Mulliken charges and spin densities:
               1          2
     1  H    0.004604   1.004593
     2  H   -0.006959   0.011156
     3  H   -0.016553   0.012222
     4  H    0.015722   0.494337
     5  H    0.003187   0.477692
     6  H    0.003187   0.477692
     7  H    0.015722   0.494337
     8  H   -0.016553   0.012222
     9  H   -0.006959   0.011156
    10  H    0.004604   1.004593
 Sum of Mulliken charges =  -0.00000   4.00000

 Dipole moment (field-independent basis, Debye):
    X=              0.0000    Y=              0.0000    Z=             -0.0000  Tot=              0.0000
 Quadrupole moment (field-independent basis, Debye-Ang):
   XX=            -13.9858   YY=            -15.0345   ZZ=            -13.1468
   XY=             -0.0518   XZ=             -0.0000   YZ=              0.0000

 Normal termination of Gaussian 09 at Thu Feb 23 12:54:14 2017.
