 Gaussian 09, Revision E.01,
 Gaussian 09:  ES64L-G09RevE.01 30-Nov-2015

 ----------------------------------------------------------------------
 #uhf/gen scf(tight,novaracc,noincfock,fulldiag, ) stable(crhf) guess=r
 ead geom=nocrowd test
 ----------------------------------------------------------------------

 hf stability analysis of h10 triangular lattice, y= 0.5773502789032680
 7 alpha= 30.000000000000000
 ----------------------------------------------------------------------
 Symbolic Z-matrix:
 Charge =  0 Multiplicity = 5

                         Standard orientation:
 ---------------------------------------------------------------------
 Center     Atomic      Atomic             Coordinates (Angstroms)
 Number     Number       Type             X           Y           Z
 ---------------------------------------------------------------------
      1          1           0        2.000000   -0.577350    0.000000
      2          1           0        2.000000   -1.732051    0.000000
      3          1           0        1.000000    0.000000    0.000000
      4          1           0        1.000000   -1.154701    0.000000
      5          1           0        0.000000    0.577350    0.000000
      6          1           0       -0.000000   -0.577350    0.000000
      7          1           0       -1.000000    1.154701    0.000000
      8          1           0       -1.000000    0.000000    0.000000
      9          1           0       -2.000000    1.732051    0.000000
     10          1           0       -2.000000    0.577350    0.000000
 ---------------------------------------------------------------------

 SCF Done:  E(UHF) =  -4.70205158267     A.U. after   10 cycles
 E2 =    -0.5406012833D-01 EUMP2 =    -0.47561117110053D+01

 The electronic state is 5-BU.
 Alpha  occ. eigenvalues --   -0.93441  -0.81194  -0.64296  -0.51005  -0.39778
 Alpha  occ. eigenvalues --   -0.37088  -0.15218
 Alpha virt. eigenvalues --    0.17038   0.38188   0.49735
  Beta  occ. eigenvalues --   -0.77715  -0.65042  -0.44288
  Beta virt. eigenvalues --    0.00359   0.03342   0.15824   0.30054   0.38479
  Beta virt. eigenvalues --    0.62450   0.66295

 Mulliken charges and spin densities:
               1          2
     1  H   -0.108000   0.689498
     2  H    0.015215   0.553529
     3  H    0.087107   0.482265
     4  H    0.030014  -0.038642
     5  H   -0.024336   0.313350
     6  H   -0.024336   0.313350
     7  H    0.030014  -0.038642
     8  H    0.087107   0.482265
     9  H    0.015215   0.553529
    10  H   -0.108000   0.689498
 Sum of Mulliken charges =   0.00000   4.00000

 Dipole moment (field-independent basis, Debye):
    X=             -0.0000    Y=             -0.0000    Z=             -0.0000  Tot=              0.0000
 Quadrupole moment (field-independent basis, Debye-Ang):
   XX=            -17.7353   YY=            -14.8588   ZZ=            -12.6015
   XY=              0.8639   XZ=              0.0000   YZ=             -0.0000

 Normal termination of Gaussian 09 at Thu Feb 23 12:45:22 2017.
