 Gaussian 09, Revision E.01,
 Gaussian 09:  ES64L-G09RevE.01 30-Nov-2015

 ----------------------------------------------------------------------
 #uhf/gen scf(tight,novaracc,noincfock,fulldiag, ) stable(crhf) guess=r
 ead geom=nocrowd test
 ----------------------------------------------------------------------

 hf stability analysis of h10 triangular lattice, y= 0.3066389812720254
 9 alpha= 9.2500000000000000
 ----------------------------------------------------------------------
 Symbolic Z-matrix:
 Charge =  0 Multiplicity = 5

                         Standard orientation:
 ---------------------------------------------------------------------
 Center     Atomic      Atomic             Coordinates (Angstroms)
 Number     Number       Type             X           Y           Z
 ---------------------------------------------------------------------
      1          1           0        1.210606   -2.664300   -0.000000
      2          1           0        1.210606   -4.571941   -0.000000
      3          1           0        0.605303   -0.855240   -0.000000
      4          1           0        0.605303   -2.762880   -0.000000
      5          1           0        0.000000    0.953820    0.000000
      6          1           0       -0.000000   -0.953820    0.000000
      7          1           0       -0.605303    2.762880    0.000000
      8          1           0       -0.605303    0.855240    0.000000
      9          1           0       -1.210606    4.571941    0.000000
     10          1           0       -1.210606    2.664300    0.000000
 ---------------------------------------------------------------------

 SCF Done:  E(UHF) =  -4.54745847250     A.U. after    9 cycles
 E2 =    -0.5484662358D-01 EUMP2 =    -0.46023050960742D+01

 The electronic state is 5-BU.
 Alpha  occ. eigenvalues --   -0.82123  -0.75691  -0.68793  -0.66451  -0.48403
 Alpha  occ. eigenvalues --   -0.48269  -0.00048
 Alpha virt. eigenvalues --    0.35103   0.51739   0.57539
  Beta  occ. eigenvalues --   -0.68588  -0.67719  -0.55271
  Beta virt. eigenvalues --   -0.20963   0.14616   0.14724   0.41065   0.46766
  Beta virt. eigenvalues --    0.58984   0.73450

 Mulliken charges and spin densities:
               1          2
     1  H   -0.006076   0.020409
     2  H    0.004561   1.004521
     3  H    0.020444   0.489001
     4  H   -0.018824   0.018997
     5  H   -0.000106   0.467072
     6  H   -0.000106   0.467072
     7  H   -0.018824   0.018997
     8  H    0.020444   0.489001
     9  H    0.004561   1.004521
    10  H   -0.006076   0.020409
 Sum of Mulliken charges =  -0.00000   4.00000

 Dipole moment (field-independent basis, Debye):
    X=             -0.0000    Y=              0.0000    Z=             -0.0000  Tot=              0.0000
 Quadrupole moment (field-independent basis, Debye-Ang):
   XX=            -13.7901   YY=            -15.5422   ZZ=            -13.0920
   XY=              0.1757   XZ=              0.0000   YZ=             -0.0000

 Normal termination of Gaussian 09 at Thu Feb 23 12:41:59 2017.
