 Gaussian 09, Revision E.01,
 Gaussian 09:  ES64L-G09RevE.01 30-Nov-2015

 ----------------------------------------------------------------------
 #uhf/gen scf(tight,novaracc,noincfock,fulldiag, ) stable(crhf) guess=r
 ead geom=nocrowd test
 ----------------------------------------------------------------------

 hf stability analysis of h10 triangular lattice, y= 1.3330047374615932
  alpha= 72.000000000000000
 ----------------------------------------------------------------------
 Symbolic Z-matrix:
 Charge =  0 Multiplicity = 5

                         Standard orientation:
 ---------------------------------------------------------------------
 Center     Atomic      Atomic             Coordinates (Angstroms)
 Number     Number       Type             X           Y           Z
 ---------------------------------------------------------------------
      1          1           0        1.647684    2.968645    0.000000
      2          1           0        1.647684    1.567041   -0.000000
      3          1           0        0.823842    1.834724    0.000000
      4          1           0        0.823842    0.433119   -0.000000
      5          1           0        0.000000    0.700802    0.000000
      6          1           0       -0.000000   -0.700802   -0.000000
      7          1           0       -0.823842   -0.433119   -0.000000
      8          1           0       -0.823842   -1.834724   -0.000000
      9          1           0       -1.647684   -1.567041   -0.000000
     10          1           0       -1.647684   -2.968645   -0.000000
 ---------------------------------------------------------------------

 SCF Done:  E(UHF) =  -4.82503708515     A.U. after   10 cycles
 E2 =    -0.5010287128D-01 EUMP2 =    -0.48751399564342D+01

 The electronic state is 5-BU.
 Alpha  occ. eigenvalues --   -0.86313  -0.76478  -0.65865  -0.53898  -0.38717
 Alpha  occ. eigenvalues --   -0.32056  -0.23884
 Alpha virt. eigenvalues --    0.15792   0.36327   0.51713
  Beta  occ. eigenvalues --   -0.71269  -0.64844  -0.48264
  Beta virt. eigenvalues --   -0.01378   0.16670   0.21196   0.26974   0.27694
  Beta virt. eigenvalues --    0.47196   0.69622

 Mulliken charges and spin densities:
               1          2
     1  H   -0.030437   0.963288
     2  H   -0.005096   0.192609
     3  H    0.021163  -0.027837
     4  H    0.043537   0.469484
     5  H   -0.029166   0.402456
     6  H   -0.029166   0.402456
     7  H    0.043537   0.469484
     8  H    0.021163  -0.027837
     9  H   -0.005096   0.192609
    10  H   -0.030437   0.963288
 Sum of Mulliken charges =  -0.00000   4.00000

 Dipole moment (field-independent basis, Debye):
    X=              0.0000    Y=             -0.0000    Z=              0.0000  Tot=              0.0000
 Quadrupole moment (field-independent basis, Debye-Ang):
   XX=            -13.9479   YY=            -18.5374   ZZ=            -12.7090
   XY=             -2.5897   XZ=             -0.0000   YZ=             -0.0000

 Normal termination of Gaussian 09 at Thu Feb 23 12:52:28 2017.
