 Gaussian 09, Revision E.01,
 Gaussian 09:  ES64L-G09RevE.01 30-Nov-2015

 ----------------------------------------------------------------------
 #uhf/gen scf(tight,novaracc,noincfock,fulldiag, ) stable(crhf) guess=r
 ead geom=nocrowd test
 ----------------------------------------------------------------------

 hf stability analysis of h10 triangular lattice, y= 1.0101797939139427
  alpha= 60.500000000000000
 ----------------------------------------------------------------------
 Symbolic Z-matrix:
 Charge =  0 Multiplicity = 5

                         Standard orientation:
 ---------------------------------------------------------------------
 Center     Atomic      Atomic             Coordinates (Angstroms)
 Number     Number       Type             X           Y           Z
 ---------------------------------------------------------------------
      1          1           0        1.989745    1.775885    0.000000
      2          1           0        1.989745    0.615234    0.000000
      3          1           0        0.994873    1.178106    0.000000
      4          1           0        0.994873    0.017454    0.000000
      5          1           0       -0.000000    0.580326    0.000000
      6          1           0       -0.000000   -0.580326   -0.000000
      7          1           0       -0.994873   -0.017454    0.000000
      8          1           0       -0.994873   -1.178106    0.000000
      9          1           0       -1.989745   -0.615234    0.000000
     10          1           0       -1.989745   -1.775885    0.000000
 ---------------------------------------------------------------------

 SCF Done:  E(UHF) =  -4.70073902110     A.U. after   10 cycles
 E2 =    -0.5342832041D-01 EUMP2 =    -0.47541673415099D+01

 The electronic state is 5-BU.
 Alpha  occ. eigenvalues --   -0.93203  -0.81005  -0.64373  -0.50520  -0.40042
 Alpha  occ. eigenvalues --   -0.36754  -0.15152
 Alpha virt. eigenvalues --    0.16637   0.38396   0.48427
  Beta  occ. eigenvalues --   -0.77615  -0.65136  -0.44383
  Beta virt. eigenvalues --    0.00753   0.03331   0.16245   0.29446   0.38853
  Beta virt. eigenvalues --    0.60668   0.66524

 Mulliken charges and spin densities:
               1          2
     1  H    0.016341   0.569357
     2  H   -0.109773   0.696381
     3  H    0.032660  -0.065563
     4  H    0.085974   0.485252
     5  H   -0.025202   0.314573
     6  H   -0.025202   0.314573
     7  H    0.085974   0.485252
     8  H    0.032660  -0.065563
     9  H   -0.109773   0.696381
    10  H    0.016341   0.569357
 Sum of Mulliken charges =  -0.00000   4.00000

 Dipole moment (field-independent basis, Debye):
    X=              0.0000    Y=             -0.0000    Z=             -0.0000  Tot=              0.0000
 Quadrupole moment (field-independent basis, Debye-Ang):
   XX=            -17.6644   YY=            -14.8468   ZZ=            -12.6035
   XY=             -0.8666   XZ=              0.0000   YZ=              0.0000

 Normal termination of Gaussian 09 at Thu Feb 23 12:50:33 2017.
