 Gaussian 09, Revision E.01,
 Gaussian 09:  ES64L-G09RevE.01 30-Nov-2015

 ----------------------------------------------------------------------
 #uhf/gen scf(tight,novaracc,noincfock,fulldiag, ) stable(crhf) guess=r
 ead geom=nocrowd test
 ----------------------------------------------------------------------

 hf stability analysis of h10 triangular lattice, y= 1.5813852119866876
  alpha= 77.000000000000000
 ----------------------------------------------------------------------
 Symbolic Z-matrix:
 Charge =  0 Multiplicity = 5

                         Standard orientation:
 ---------------------------------------------------------------------
 Center     Atomic      Atomic             Coordinates (Angstroms)
 Number     Number       Type             X           Y           Z
 ---------------------------------------------------------------------
      1          1           0        1.422937    3.728944    0.000000
      2          1           0        1.422937    2.105962    0.000000
      3          1           0        0.711469    2.270218    0.000000
      4          1           0        0.711469    0.647236    0.000000
      5          1           0       -0.000000    0.811491    0.000000
      6          1           0       -0.000000   -0.811491    0.000000
      7          1           0       -0.711469   -0.647236   -0.000000
      8          1           0       -0.711469   -2.270218   -0.000000
      9          1           0       -1.422937   -2.105962   -0.000000
     10          1           0       -1.422937   -3.728944   -0.000000
 ---------------------------------------------------------------------

 SCF Done:  E(UHF) =  -4.80359444174     A.U. after    9 cycles
 E2 =    -0.4834275681D-01 EUMP2 =    -0.48519371985585D+01

 The electronic state is 5-BU.
 Alpha  occ. eigenvalues --   -0.83560  -0.75251  -0.66975  -0.59626  -0.44997
 Alpha  occ. eigenvalues --   -0.43466  -0.12379
 Alpha virt. eigenvalues --    0.25430   0.43607   0.54928
  Beta  occ. eigenvalues --   -0.68843  -0.65611  -0.52337
  Beta virt. eigenvalues --   -0.11012   0.17139   0.17984   0.28708   0.36583
  Beta virt. eigenvalues --    0.52662   0.71545

 Mulliken charges and spin densities:
               1          2
     1  H   -0.003695   0.995871
     2  H    0.000071   0.059365
     3  H   -0.013661   0.031583
     4  H    0.029859   0.474796
     5  H   -0.012574   0.438384
     6  H   -0.012574   0.438384
     7  H    0.029859   0.474796
     8  H   -0.013661   0.031583
     9  H    0.000071   0.059365
    10  H   -0.003695   0.995871
 Sum of Mulliken charges =  -0.00000   4.00000

 Dipole moment (field-independent basis, Debye):
    X=             -0.0000    Y=              0.0000    Z=             -0.0000  Tot=              0.0000
 Quadrupole moment (field-independent basis, Debye-Ang):
   XX=            -13.4312   YY=            -16.9848   ZZ=            -12.9260
   XY=             -0.8614   XZ=             -0.0000   YZ=             -0.0000

 Normal termination of Gaussian 09 at Thu Feb 23 12:53:18 2017.
