 Gaussian 09, Revision E.01,
 Gaussian 09:  ES64L-G09RevE.01 30-Nov-2015

 ----------------------------------------------------------------------
 #uhf/gen scf(tight,novaracc,noincfock,fulldiag, ) stable(crhf) guess=r
 ead geom=nocrowd test
 ----------------------------------------------------------------------

 hf stability analysis of h10 triangular lattice, y= 0.2710133450063199
 1 alpha= 7.2500000000000000
 ----------------------------------------------------------------------
 Symbolic Z-matrix:
 Charge =  0 Multiplicity = 5

                         Standard orientation:
 ---------------------------------------------------------------------
 Center     Atomic      Atomic             Coordinates (Angstroms)
 Number     Number       Type             X           Y           Z
 ---------------------------------------------------------------------
      1          1           0        1.075386   -3.084456   -0.000000
      2          1           0        1.075386   -5.231964   -0.000000
      3          1           0        0.537693   -1.005351   -0.000000
      4          1           0        0.537693   -3.152859   -0.000000
      5          1           0        0.000000    1.073754    0.000000
      6          1           0       -0.000000   -1.073754    0.000000
      7          1           0       -0.537693    3.152859   -0.000000
      8          1           0       -0.537693    1.005351   -0.000000
      9          1           0       -1.075386    5.231964   -0.000000
     10          1           0       -1.075386    3.084456   -0.000000
 ---------------------------------------------------------------------

 SCF Done:  E(UHF) =  -4.23723365932     A.U. after    9 cycles
 E2 =    -0.6585522230D-01 EUMP2 =    -0.43030888816236D+01

 The electronic state is 5-BU.
 Alpha  occ. eigenvalues --   -0.81835  -0.77414  -0.70533  -0.69964  -0.49420
 Alpha  occ. eigenvalues --   -0.49404   0.08934
 Alpha virt. eigenvalues --    0.41088   0.57633   0.60494
  Beta  occ. eigenvalues --   -0.69996  -0.69789  -0.55807
  Beta virt. eigenvalues --   -0.26560   0.13646   0.13667   0.50192   0.54170
  Beta virt. eigenvalues --    0.63895   0.75390

 Mulliken charges and spin densities:
               1          2
     1  H   -0.006822   0.008838
     2  H    0.004305   1.004298
     3  H    0.013938   0.495808
     4  H   -0.015251   0.010180
     5  H    0.003829   0.480876
     6  H    0.003829   0.480876
     7  H   -0.015251   0.010180
     8  H    0.013938   0.495808
     9  H    0.004305   1.004298
    10  H   -0.006822   0.008838
 Sum of Mulliken charges =   0.00000   4.00000

 Dipole moment (field-independent basis, Debye):
    X=             -0.0000    Y=              0.0000    Z=              0.0000  Tot=              0.0000
 Quadrupole moment (field-independent basis, Debye-Ang):
   XX=            -14.0487   YY=            -14.8573   ZZ=            -13.1621
   XY=              0.0200   XZ=              0.0000   YZ=              0.0000

 Normal termination of Gaussian 09 at Thu Feb 23 12:41:40 2017.
