 Gaussian 09, Revision E.01,
 Gaussian 09:  ES64L-G09RevE.01 30-Nov-2015

 ----------------------------------------------------------------------
 #uhf/gen scf(tight,novaracc,noincfock,fulldiag, ) stable(crhf) guess=r
 ead geom=nocrowd test
 ----------------------------------------------------------------------

 hf stability analysis of h10 triangular lattice, y= 1.0475506882612993
  alpha= 62.250000000000000
 ----------------------------------------------------------------------
 Symbolic Z-matrix:
 Charge =  0 Multiplicity = 5

                         Standard orientation:
 ---------------------------------------------------------------------
 Center     Atomic      Atomic             Coordinates (Angstroms)
 Number     Number       Type             X           Y           Z
 ---------------------------------------------------------------------
      1          1           0        1.951019    1.932743    0.000000
      2          1           0        1.951019    0.749054    0.000000
      3          1           0        0.975510    1.262294    0.000000
      4          1           0        0.975510    0.078604    0.000000
      5          1           0        0.000000    0.591845    0.000000
      6          1           0       -0.000000   -0.591845   -0.000000
      7          1           0       -0.975510   -0.078604   -0.000000
      8          1           0       -0.975510   -1.262294   -0.000000
      9          1           0       -1.951019   -0.749054   -0.000000
     10          1           0       -1.951019   -1.932743   -0.000000
 ---------------------------------------------------------------------

 SCF Done:  E(UHF) =  -4.69711282538     A.U. after   11 cycles
 E2 =    -0.5037936967D-01 EUMP2 =    -0.47474921950451D+01

 The electronic state is 5-BU.
 Alpha  occ. eigenvalues --   -0.92304  -0.80294  -0.64694  -0.48974  -0.40757
 Alpha  occ. eigenvalues --   -0.35677  -0.15185
 Alpha virt. eigenvalues --    0.15325   0.39369   0.44130
  Beta  occ. eigenvalues --   -0.77266  -0.65588  -0.44783
  Beta virt. eigenvalues --    0.01951   0.03778   0.17714   0.27491   0.40109
  Beta virt. eigenvalues --    0.54477   0.67323

 Mulliken charges and spin densities:
               1          2
     1  H    0.015220   0.639387
     2  H   -0.114109   0.716911
     3  H    0.046579  -0.171170
     4  H    0.081573   0.495179
     5  H   -0.029263   0.319692
     6  H   -0.029263   0.319692
     7  H    0.081573   0.495179
     8  H    0.046579  -0.171170
     9  H   -0.114109   0.716911
    10  H    0.015220   0.639387
 Sum of Mulliken charges =   0.00000   4.00000

 Dipole moment (field-independent basis, Debye):
    X=             -0.0000    Y=             -0.0000    Z=              0.0000  Tot=              0.0000
 Quadrupole moment (field-independent basis, Debye-Ang):
   XX=            -17.4704   YY=            -14.9003   ZZ=            -12.6046
   XY=             -1.0294   XZ=             -0.0000   YZ=             -0.0000

 Normal termination of Gaussian 09 at Thu Feb 23 12:50:50 2017.
