 Gaussian 09, Revision E.01,
 Gaussian 09:  ES64L-G09RevE.01 30-Nov-2015

 ----------------------------------------------------------------------
 #uhf/gen scf(tight,novaracc,noincfock,fulldiag, ) stable(crhf) guess=r
 ead geom=nocrowd test
 ----------------------------------------------------------------------

 hf stability analysis of h10 triangular lattice, y= 0.2247478695127229
 1 alpha= 5.0000000000000000
 ----------------------------------------------------------------------
 Symbolic Z-matrix:
 Charge =  0 Multiplicity = 5

                         Standard orientation:
 ---------------------------------------------------------------------
 Center     Atomic      Atomic             Coordinates (Angstroms)
 Number     Number       Type             X           Y           Z
 ---------------------------------------------------------------------
      1          1           0        0.895571   -3.789687    0.000000
      2          1           0        0.895571   -6.368379    0.000000
      3          1           0        0.447785   -1.250170    0.000000
      4          1           0        0.447785   -3.828863    0.000000
      5          1           0        0.000000    1.289346   -0.000000
      6          1           0       -0.000000   -1.289346   -0.000000
      7          1           0       -0.447785    3.828863    0.000000
      8          1           0       -0.447785    1.250170    0.000000
      9          1           0       -0.895571    6.368379    0.000000
     10          1           0       -0.895571    3.789687    0.000000
 ---------------------------------------------------------------------

 SCF Done:  E(UHF) =  -3.58685531853     A.U. after   13 cycles
 E2 =    -0.9408395963D-01 EUMP2 =    -0.36809392781578D+01

 The electronic state is 5-BU.
 Alpha  occ. eigenvalues --   -0.82372  -0.80824  -0.73526  -0.73514  -0.49930
 Alpha  occ. eigenvalues --   -0.49930   0.22636
 Alpha virt. eigenvalues --    0.48732   0.66758   0.67410
  Beta  occ. eigenvalues --   -0.73204  -0.73195  -0.55536
  Beta virt. eigenvalues --   -0.32945   0.12871   0.12873   0.63693   0.65225
  Beta virt. eigenvalues --    0.72344   0.80026

 Mulliken charges and spin densities:
               1          2
     1  H   -0.003706   0.002428
     2  H    0.001975   1.001975
     3  H    0.005409   0.500094
     4  H   -0.007203   0.003270
     5  H    0.003525   0.492233
     6  H    0.003525   0.492233
     7  H   -0.007203   0.003270
     8  H    0.005409   0.500094
     9  H    0.001975   1.001975
    10  H   -0.003706   0.002428
 Sum of Mulliken charges =   0.00000   4.00000

 Dipole moment (field-independent basis, Debye):
    X=              0.0000    Y=              0.0000    Z=             -0.0000  Tot=              0.0000
 Quadrupole moment (field-independent basis, Debye-Ang):
   XX=            -14.2897   YY=            -13.8783   ZZ=            -13.1977
   XY=             -0.0934   XZ=             -0.0000   YZ=             -0.0000

 Normal termination of Gaussian 09 at Thu Feb 23 12:41:19 2017.
