 Gaussian 09, Revision E.01,
 Gaussian 09:  ES64L-G09RevE.01 30-Nov-2015

 ----------------------------------------------------------------------
 #uhf/gen scf(tight,novaracc,noincfock,fulldiag, ) stable(crhf) guess=r
 ead geom=nocrowd test
 ----------------------------------------------------------------------

 hf stability analysis of h10 triangular lattice, y= 0.5070038553873883
 5 alpha= 24.000000000000000
 ----------------------------------------------------------------------
 Symbolic Z-matrix:
 Charge =  0 Multiplicity = 5

                         Standard orientation:
 ---------------------------------------------------------------------
 Center     Atomic      Atomic             Coordinates (Angstroms)
 Number     Number       Type             X           Y           Z
 ---------------------------------------------------------------------
      1          1           0        1.852684   -1.044906    0.000000
      2          1           0        1.852684   -2.291423    0.000000
      3          1           0        0.926342   -0.210824    0.000000
      4          1           0        0.926342   -1.457340    0.000000
      5          1           0       -0.000000    0.623258    0.000000
      6          1           0       -0.000000   -0.623258   -0.000000
      7          1           0       -0.926342    1.457340    0.000000
      8          1           0       -0.926342    0.210824    0.000000
      9          1           0       -1.852684    2.291423    0.000000
     10          1           0       -1.852684    1.044906    0.000000
 ---------------------------------------------------------------------

 SCF Done:  E(UHF) =  -4.71128896650     A.U. after   11 cycles
 E2 =    -0.4445331244D-01 EUMP2 =    -0.47557422789465D+01

 The electronic state is 5-BU.
 Alpha  occ. eigenvalues --   -0.90105  -0.78651  -0.65387  -0.49282  -0.37855
 Alpha  occ. eigenvalues --   -0.34597  -0.17521
 Alpha virt. eigenvalues --    0.13254   0.37032   0.43469
  Beta  occ. eigenvalues --   -0.75866  -0.66351  -0.45913
  Beta virt. eigenvalues --    0.02943   0.07398   0.20376   0.25271   0.40233
  Beta virt. eigenvalues --    0.44512   0.68595

 Mulliken charges and spin densities:
               1          2
     1  H   -0.095141   0.670071
     2  H   -0.015754   0.822867
     3  H    0.067543   0.504015
     4  H    0.082214  -0.339965
     5  H   -0.038863   0.343012
     6  H   -0.038863   0.343012
     7  H    0.082214  -0.339965
     8  H    0.067543   0.504015
     9  H   -0.015754   0.822867
    10  H   -0.095141   0.670071
 Sum of Mulliken charges =  -0.00000   4.00000

 Dipole moment (field-independent basis, Debye):
    X=             -0.0000    Y=             -0.0000    Z=             -0.0000  Tot=              0.0000
 Quadrupole moment (field-independent basis, Debye-Ang):
   XX=            -16.8126   YY=            -16.1730   ZZ=            -12.5867
   XY=              2.3664   XZ=              0.0000   YZ=             -0.0000

 Normal termination of Gaussian 09 at Thu Feb 23 12:44:22 2017.
