 Gaussian 09, Revision E.01,
 Gaussian 09:  ES64L-G09RevE.01 30-Nov-2015

 ----------------------------------------------------------------------
 #uhf/gen scf(tight,novaracc,noincfock,fulldiag, ) stable(crhf) guess=r
 ead geom=nocrowd test
 ----------------------------------------------------------------------

 hf stability analysis of h10 triangular lattice, y= 0.4707695940863088
 6 alpha= 21.000000000000000
 ----------------------------------------------------------------------
 Symbolic Z-matrix:
 Charge =  0 Multiplicity = 5

                         Standard orientation:
 ---------------------------------------------------------------------
 Center     Atomic      Atomic             Coordinates (Angstroms)
 Number     Number       Type             X           Y           Z
 ---------------------------------------------------------------------
      1          1           0        1.758005   -1.295638    0.000000
      2          1           0        1.758005   -2.609287    0.000000
      3          1           0        0.879003   -0.319407    0.000000
      4          1           0        0.879003   -1.633056    0.000000
      5          1           0        0.000000    0.656824    0.000000
      6          1           0       -0.000000   -0.656824    0.000000
      7          1           0       -0.879003    1.633056   -0.000000
      8          1           0       -0.879003    0.319407   -0.000000
      9          1           0       -1.758005    2.609287   -0.000000
     10          1           0       -1.758005    1.295638   -0.000000
 ---------------------------------------------------------------------

 SCF Done:  E(UHF) =  -4.76320080695     A.U. after   11 cycles
 E2 =    -0.4903132285D-01 EUMP2 =    -0.48122321297935D+01

 The electronic state is 5-BU.
 Alpha  occ. eigenvalues --   -0.88170  -0.77444  -0.65576  -0.51581  -0.35567
 Alpha  occ. eigenvalues --   -0.32180  -0.22360
 Alpha virt. eigenvalues --    0.12862   0.34573   0.48194
  Beta  occ. eigenvalues --   -0.73460  -0.65446  -0.46683
  Beta virt. eigenvalues --    0.01865   0.11497   0.21959   0.25141   0.33626
  Beta virt. eigenvalues --    0.44980   0.68925

 Mulliken charges and spin densities:
               1          2
     1  H   -0.041419   0.430475
     2  H   -0.039269   0.921018
     3  H    0.054172   0.484920
     4  H    0.064361  -0.211137
     5  H   -0.037845   0.374725
     6  H   -0.037845   0.374725
     7  H    0.064361  -0.211137
     8  H    0.054172   0.484920
     9  H   -0.039269   0.921018
    10  H   -0.041419   0.430475
 Sum of Mulliken charges =  -0.00000   4.00000

 Dipole moment (field-independent basis, Debye):
    X=             -0.0000    Y=             -0.0000    Z=              0.0000  Tot=              0.0000
 Quadrupole moment (field-independent basis, Debye-Ang):
   XX=            -15.2951   YY=            -18.0603   ZZ=            -12.6167
   XY=              3.2459   XZ=             -0.0000   YZ=              0.0000

 Normal termination of Gaussian 09 at Thu Feb 23 12:43:52 2017.
