 Gaussian 09, Revision E.01,
 Gaussian 09:  ES64L-G09RevE.01 30-Nov-2015

 ----------------------------------------------------------------------
 #uhf/gen scf(tight,novaracc,noincfock,fulldiag, ) stable(crhf) guess=r
 ead geom=nocrowd test
 ----------------------------------------------------------------------

 hf stability analysis of h10 triangular lattice, y= 0.8596363675198261
 9 alpha= 52.000000000000000
 ----------------------------------------------------------------------
 Symbolic Z-matrix:
 Charge =  0 Multiplicity = 5

                         Standard orientation:
 ---------------------------------------------------------------------
 Center     Atomic      Atomic             Coordinates (Angstroms)
 Number     Number       Type             X           Y           Z
 ---------------------------------------------------------------------
      1          1           0        2.116980    1.073269   -0.000000
      2          1           0        2.116980   -0.017625   -0.000000
      3          1           0        1.058490    0.809358   -0.000000
      4          1           0        1.058490   -0.281536   -0.000000
      5          1           0       -0.000000    0.545447   -0.000000
      6          1           0       -0.000000   -0.545447   -0.000000
      7          1           0       -1.058490    0.281536   -0.000000
      8          1           0       -1.058490   -0.809358   -0.000000
      9          1           0       -2.116980    0.017625   -0.000000
     10          1           0       -2.116980   -1.073269   -0.000000
 ---------------------------------------------------------------------

 SCF Done:  E(UHF) =  -4.71274234872     A.U. after   11 cycles
 E2 =    -0.5672562822D-01 EUMP2 =    -0.47694679769352D+01

 The electronic state is 5-BU.
 Alpha  occ. eigenvalues --   -0.96093  -0.83300  -0.63601  -0.56893  -0.41613
 Alpha  occ. eigenvalues --   -0.36653  -0.17209
 Alpha virt. eigenvalues --    0.22554   0.36785   0.70439
  Beta  occ. eigenvalues --   -0.79246  -0.64710  -0.43186
  Beta virt. eigenvalues --   -0.04779   0.05687   0.10425   0.33315   0.38506
  Beta virt. eigenvalues --    0.63625   0.87738

 Mulliken charges and spin densities:
               1          2
     1  H   -0.032150   0.466424
     2  H   -0.081526   0.585189
     3  H    0.040585   0.226035
     4  H    0.095231   0.429611
     5  H   -0.022139   0.292742
     6  H   -0.022139   0.292742
     7  H    0.095231   0.429611
     8  H    0.040585   0.226035
     9  H   -0.081526   0.585189
    10  H   -0.032150   0.466424
 Sum of Mulliken charges =   0.00000   4.00000

 Dipole moment (field-independent basis, Debye):
    X=              0.0000    Y=             -0.0000    Z=              0.0000  Tot=              0.0000
 Quadrupole moment (field-independent basis, Debye-Ang):
   XX=            -19.5162   YY=            -14.7832   ZZ=            -12.5454
   XY=             -1.0537   XZ=             -0.0000   YZ=             -0.0000

 Normal termination of Gaussian 09 at Thu Feb 23 12:49:06 2017.
