 Gaussian 09, Revision E.01,
 Gaussian 09:  ES64L-G09RevE.01 30-Nov-2015

 ----------------------------------------------------------------------
 #uhf/gen scf(tight,novaracc,noincfock,fulldiag, ) stable(crhf) guess=r
 ead geom=nocrowd test
 ----------------------------------------------------------------------

 hf stability analysis of h10 triangular lattice, y= 1.0153487862282633
  alpha= 60.750000000000000
 ----------------------------------------------------------------------
 Symbolic Z-matrix:
 Charge =  0 Multiplicity = 5

                         Standard orientation:
 ---------------------------------------------------------------------
 Center     Atomic      Atomic             Coordinates (Angstroms)
 Number     Number       Type             X           Y           Z
 ---------------------------------------------------------------------
      1          1           0        1.984484    1.797958    0.000000
      2          1           0        1.984484    0.634229    0.000000
      3          1           0        0.992242    1.189911    0.000000
      4          1           0        0.992242    0.026182    0.000000
      5          1           0       -0.000000    0.581864    0.000000
      6          1           0       -0.000000   -0.581864    0.000000
      7          1           0       -0.992242   -0.026182   -0.000000
      8          1           0       -0.992242   -1.189911   -0.000000
      9          1           0       -1.984484   -0.634229   -0.000000
     10          1           0       -1.984484   -1.797958   -0.000000
 ---------------------------------------------------------------------

 SCF Done:  E(UHF) =  -4.70010201182     A.U. after   10 cycles
 E2 =    -0.5307241529D-01 EUMP2 =    -0.47531744271124D+01

 The electronic state is 5-BU.
 Alpha  occ. eigenvalues --   -0.93080  -0.80908  -0.64414  -0.50279  -0.40170
 Alpha  occ. eigenvalues --   -0.36590  -0.15129
 Alpha virt. eigenvalues --    0.16439   0.38510   0.47785
  Beta  occ. eigenvalues --   -0.77566  -0.65190  -0.44433
  Beta virt. eigenvalues --    0.00946   0.03343   0.16457   0.29146   0.39040
  Beta virt. eigenvalues --    0.59776   0.66639

 Mulliken charges and spin densities:
               1          2
     1  H    0.016692   0.577975
     2  H   -0.110601   0.699739
     3  H    0.034206  -0.079654
     4  H    0.085389   0.486732
     5  H   -0.025686   0.315207
     6  H   -0.025686   0.315207
     7  H    0.085389   0.486732
     8  H    0.034206  -0.079654
     9  H   -0.110601   0.699739
    10  H    0.016692   0.577975
 Sum of Mulliken charges =   0.00000   4.00000

 Dipole moment (field-independent basis, Debye):
    X=             -0.0000    Y=             -0.0000    Z=             -0.0000  Tot=              0.0000
 Quadrupole moment (field-independent basis, Debye-Ang):
   XX=            -17.6319   YY=            -14.8438   ZZ=            -12.6043
   XY=             -0.8739   XZ=             -0.0000   YZ=             -0.0000

 Normal termination of Gaussian 09 at Thu Feb 23 12:50:35 2017.
