 Gaussian 09, Revision E.01,
 Gaussian 09:  ES64L-G09RevE.01 30-Nov-2015

 ----------------------------------------------------------------------
 #uhf/gen scf(tight,novaracc,noincfock,fulldiag, ) stable(crhf) guess=r
 ead geom=nocrowd test
 ----------------------------------------------------------------------

 hf stability analysis of h10 triangular lattice, y= 0.7834165171194891
 2 alpha= 46.750000000000000
 ----------------------------------------------------------------------
 Symbolic Z-matrix:
 Charge =  0 Multiplicity = 5

                         Standard orientation:
 ---------------------------------------------------------------------
 Center     Atomic      Atomic             Coordinates (Angstroms)
 Number     Number       Type             X           Y           Z
 ---------------------------------------------------------------------
      1          1           0        2.147135    0.669111    0.000000
      2          1           0        2.147135   -0.406462    0.000000
      3          1           0        1.073567    0.603449    0.000000
      4          1           0        1.073567   -0.472125    0.000000
      5          1           0        0.000000    0.537787    0.000000
      6          1           0       -0.000000   -0.537787    0.000000
      7          1           0       -1.073567    0.472125    0.000000
      8          1           0       -1.073567   -0.603449    0.000000
      9          1           0       -2.147135    0.406462    0.000000
     10          1           0       -2.147135   -0.669111    0.000000
 ---------------------------------------------------------------------

 SCF Done:  E(UHF) =  -4.71161160405     A.U. after   11 cycles
 E2 =    -0.5664471476D-01 EUMP2 =    -0.47682563188058D+01

 The electronic state is 5-BU.
 Alpha  occ. eigenvalues --   -0.96746  -0.83828  -0.63412  -0.58395  -0.42883
 Alpha  occ. eigenvalues --   -0.35945  -0.17838
 Alpha virt. eigenvalues --    0.23935   0.36839   0.77893
  Beta  occ. eigenvalues --   -0.79729  -0.64746  -0.42808
  Beta virt. eigenvalues --   -0.06163   0.06805   0.08877   0.31672   0.40928
  Beta virt. eigenvalues --    0.63052   0.96388

 Mulliken charges and spin densities:
               1          2
     1  H   -0.058452   0.490618
     2  H   -0.069336   0.523906
     3  H    0.068151   0.325919
     4  H    0.083792   0.376254
     5  H   -0.024156   0.283302
     6  H   -0.024156   0.283302
     7  H    0.083792   0.376254
     8  H    0.068151   0.325919
     9  H   -0.069336   0.523906
    10  H   -0.058452   0.490618
 Sum of Mulliken charges =   0.00000   4.00000

 Dipole moment (field-independent basis, Debye):
    X=              0.0000    Y=             -0.0000    Z=             -0.0000  Tot=              0.0000
 Quadrupole moment (field-independent basis, Debye-Ang):
   XX=            -20.3533   YY=            -14.4690   ZZ=            -12.5261
   XY=             -0.3442   XZ=             -0.0000   YZ=              0.0000

 Normal termination of Gaussian 09 at Thu Feb 23 12:48:13 2017.
