 Gaussian 09, Revision E.01,
 Gaussian 09:  ES64L-G09RevE.01 30-Nov-2015

 ----------------------------------------------------------------------
 #uhf/gen scf(tight,novaracc,noincfock,fulldiag, ) stable(crhf) guess=r
 ead geom=nocrowd test
 ----------------------------------------------------------------------

 hf stability analysis of h10 triangular lattice, y= 0.8294933944434413
 9 alpha= 50.000000000000000
 ----------------------------------------------------------------------
 Symbolic Z-matrix:
 Charge =  0 Multiplicity = 5

                         Standard orientation:
 ---------------------------------------------------------------------
 Center     Atomic      Atomic             Coordinates (Angstroms)
 Number     Number       Type             X           Y           Z
 ---------------------------------------------------------------------
      1          1           0        2.132752    0.917475    0.000000
      2          1           0        2.132752   -0.165352   -0.000000
      3          1           0        1.066376    0.729444    0.000000
      4          1           0        1.066376   -0.353382   -0.000000
      5          1           0        0.000000    0.541413    0.000000
      6          1           0       -0.000000   -0.541413    0.000000
      7          1           0       -1.066376    0.353382    0.000000
      8          1           0       -1.066376   -0.729444    0.000000
      9          1           0       -2.132752    0.165352    0.000000
     10          1           0       -2.132752   -0.917475    0.000000
 ---------------------------------------------------------------------

 SCF Done:  E(UHF) =  -4.71243051127     A.U. after   11 cycles
 E2 =    -0.5670336677D-01 EUMP2 =    -0.47691338780371D+01

 The electronic state is 5-BU.
 Alpha  occ. eigenvalues --   -0.96437  -0.83576  -0.63507  -0.57680  -0.42274
 Alpha  occ. eigenvalues --   -0.36275  -0.17543
 Alpha virt. eigenvalues --    0.23300   0.36775   0.74202
  Beta  occ. eigenvalues --   -0.79496  -0.64727  -0.42996
  Beta virt. eigenvalues --   -0.05503   0.06245   0.09625   0.32478   0.39769
  Beta virt. eigenvalues --    0.63310   0.92110

 Mulliken charges and spin densities:
               1          2
     1  H   -0.043652   0.471012
     2  H   -0.076893   0.561059
     3  H    0.050826   0.267753
     4  H    0.092743   0.412055
     5  H   -0.023023   0.288121
     6  H   -0.023023   0.288121
     7  H    0.092743   0.412055
     8  H    0.050826   0.267753
     9  H   -0.076893   0.561059
    10  H   -0.043652   0.471012
 Sum of Mulliken charges =  -0.00000   4.00000

 Dipole moment (field-independent basis, Debye):
    X=             -0.0000    Y=             -0.0000    Z=             -0.0000  Tot=              0.0000
 Quadrupole moment (field-independent basis, Debye-Ang):
   XX=            -19.9291   YY=            -14.6436   ZZ=            -12.5354
   XY=             -0.8666   XZ=              0.0000   YZ=             -0.0000

 Normal termination of Gaussian 09 at Thu Feb 23 12:48:47 2017.
