 Gaussian 09, Revision E.01,
 Gaussian 09:  ES64L-G09RevE.01 30-Nov-2015

 ----------------------------------------------------------------------
 #uhf/gen scf(tight,novaracc,noincfock,fulldiag, ) stable(crhf) guess=r
 ead geom=nocrowd test
 ----------------------------------------------------------------------

 hf stability analysis of h10 triangular lattice, y= 0.4920397018298700
 0 alpha= 22.750000000000000
 ----------------------------------------------------------------------
 Symbolic Z-matrix:
 Charge =  0 Multiplicity = 5

                         Standard orientation:
 ---------------------------------------------------------------------
 Center     Atomic      Atomic             Coordinates (Angstroms)
 Number     Number       Type             X           Y           Z
 ---------------------------------------------------------------------
      1          1           0        1.815038   -1.147447    0.000000
      2          1           0        1.815038   -2.419818    0.000000
      3          1           0        0.907519   -0.255631    0.000000
      4          1           0        0.907519   -1.528002    0.000000
      5          1           0        0.000000    0.636185   -0.000000
      6          1           0       -0.000000   -0.636185   -0.000000
      7          1           0       -0.907519    1.528002    0.000000
      8          1           0       -0.907519    0.255631    0.000000
      9          1           0       -1.815038    2.419818    0.000000
     10          1           0       -1.815038    1.147447    0.000000
 ---------------------------------------------------------------------

 SCF Done:  E(UHF) =  -4.72852673449     A.U. after   10 cycles
 E2 =    -0.4555577478D-01 EUMP2 =    -0.47740825092623D+01

 The electronic state is 5-BU.
 Alpha  occ. eigenvalues --   -0.89308  -0.78123  -0.65498  -0.50233  -0.35587
 Alpha  occ. eigenvalues --   -0.34754  -0.19205
 Alpha virt. eigenvalues --    0.12836   0.35533   0.45418
  Beta  occ. eigenvalues --   -0.74968  -0.66116  -0.46218
  Beta virt. eigenvalues --    0.02767   0.08991   0.21122   0.25055   0.37710
  Beta virt. eigenvalues --    0.44251   0.68775

 Mulliken charges and spin densities:
               1          2
     1  H   -0.075278   0.593533
     2  H   -0.028734   0.872024
     3  H    0.061743   0.498680
     4  H    0.082104  -0.319755
     5  H   -0.039835   0.355517
     6  H   -0.039835   0.355517
     7  H    0.082104  -0.319755
     8  H    0.061743   0.498680
     9  H   -0.028734   0.872024
    10  H   -0.075278   0.593533
 Sum of Mulliken charges =  -0.00000   4.00000

 Dipole moment (field-independent basis, Debye):
    X=              0.0000    Y=              0.0000    Z=             -0.0000  Tot=              0.0000
 Quadrupole moment (field-independent basis, Debye-Ang):
   XX=            -16.2779   YY=            -16.9830   ZZ=            -12.5906
   XY=              2.8846   XZ=              0.0000   YZ=             -0.0000

 Normal termination of Gaussian 09 at Thu Feb 23 12:44:09 2017.
