 Gaussian 09, Revision E.01,
 Gaussian 09:  ES64L-G09RevE.01 30-Nov-2015

 ----------------------------------------------------------------------
 #uhf/gen scf(tight,novaracc,noincfock,fulldiag, ) stable(crhf) guess=r
 ead geom=nocrowd test
 ----------------------------------------------------------------------

 hf stability analysis of h10 triangular lattice, y= 0.5831683378880934
 1 alpha= 30.500000000000000
 ----------------------------------------------------------------------
 Symbolic Z-matrix:
 Charge =  0 Multiplicity = 5

                         Standard orientation:
 ---------------------------------------------------------------------
 Center     Atomic      Atomic             Coordinates (Angstroms)
 Number     Number       Type             X           Y           Z
 ---------------------------------------------------------------------
      1          1           0        2.009899   -0.539599    0.000000
      2          1           0        2.009899   -1.688612    0.000000
      3          1           0        1.004950    0.017454    0.000000
      4          1           0        1.004950   -1.131559    0.000000
      5          1           0        0.000000    0.574507    0.000000
      6          1           0       -0.000000   -0.574507    0.000000
      7          1           0       -1.004950    1.131559   -0.000000
      8          1           0       -1.004950   -0.017454    0.000000
      9          1           0       -2.009899    1.688612    0.000000
     10          1           0       -2.009899    0.539599    0.000000
 ---------------------------------------------------------------------

 SCF Done:  E(UHF) =  -4.70337226211     A.U. after   10 cycles
 E2 =    -0.5459209303D-01 EUMP2 =    -0.47579643551429D+01

 The electronic state is 5-BU.
 Alpha  occ. eigenvalues --   -0.93671  -0.81376  -0.64225  -0.51488  -0.39512
 Alpha  occ. eigenvalues --   -0.37426  -0.15306
 Alpha virt. eigenvalues --    0.17444   0.38003   0.51068
  Beta  occ. eigenvalues --   -0.77815  -0.64963  -0.44200
  Beta virt. eigenvalues --   -0.00038   0.03393   0.15406   0.30671   0.38103
  Beta virt. eigenvalues --    0.64226   0.66071

 Mulliken charges and spin densities:
               1          2
     1  H   -0.106125   0.682508
     2  H    0.013590   0.539513
     3  H    0.088194   0.479257
     4  H    0.027941  -0.013438
     5  H   -0.023600   0.312160
     6  H   -0.023600   0.312160
     7  H    0.027941  -0.013438
     8  H    0.088194   0.479257
     9  H    0.013590   0.539513
    10  H   -0.106125   0.682508
 Sum of Mulliken charges =  -0.00000   4.00000

 Dipole moment (field-independent basis, Debye):
    X=             -0.0000    Y=              0.0000    Z=             -0.0000  Tot=              0.0000
 Quadrupole moment (field-independent basis, Debye-Ang):
   XX=            -17.8142   YY=            -14.8756   ZZ=            -12.5990
   XY=              0.8741   XZ=             -0.0000   YZ=              0.0000

 Normal termination of Gaussian 09 at Thu Feb 23 12:45:27 2017.
