 Gaussian 09, Revision E.01,
 Gaussian 09:  ES64L-G09RevE.01 30-Nov-2015

 ----------------------------------------------------------------------
 #uhf/gen scf(tight,novaracc,noincfock,fulldiag, ) stable(crhf) guess=r
 ead geom=nocrowd test
 ----------------------------------------------------------------------

 hf stability analysis of h10 triangular lattice, y= 0.7532333993657272
 0 alpha= 44.500000000000000
 ----------------------------------------------------------------------
 Symbolic Z-matrix:
 Charge =  0 Multiplicity = 5

                         Standard orientation:
 ---------------------------------------------------------------------
 Center     Atomic      Atomic             Coordinates (Angstroms)
 Number     Number       Type             X           Y           Z
 ---------------------------------------------------------------------
      1          1           0        2.148976    0.499815   -0.000000
      2          1           0        2.148976   -0.574836    0.000000
      3          1           0        1.074488    0.518571   -0.000000
      4          1           0        1.074488   -0.556081    0.000000
      5          1           0       -0.000000    0.537326   -0.000000
      6          1           0       -0.000000   -0.537326   -0.000000
      7          1           0       -1.074488    0.556081    0.000000
      8          1           0       -1.074488   -0.518571   -0.000000
      9          1           0       -2.148976    0.574836    0.000000
     10          1           0       -2.148976   -0.499815   -0.000000
 ---------------------------------------------------------------------

 SCF Done:  E(UHF) =  -4.71146779399     A.U. after   10 cycles
 E2 =    -0.5663493280D-01 EUMP2 =    -0.47681027267967D+01

 The electronic state is 5-BU.
 Alpha  occ. eigenvalues --   -0.96785  -0.83860  -0.63400  -0.58486  -0.42962
 Alpha  occ. eigenvalues --   -0.35904  -0.17875
 Alpha virt. eigenvalues --    0.24012   0.36853   0.78385
  Beta  occ. eigenvalues --   -0.79759  -0.64748  -0.42783
  Beta virt. eigenvalues --   -0.06248   0.06880   0.08780   0.31565   0.41076
  Beta virt. eigenvalues --    0.63021   0.96957

 Mulliken charges and spin densities:
               1          2
     1  H   -0.065934   0.510929
     2  H   -0.062854   0.501350
     3  H    0.078810   0.359731
     4  H    0.074304   0.345352
     5  H   -0.024327   0.282638
     6  H   -0.024327   0.282638
     7  H    0.074304   0.345352
     8  H    0.078810   0.359731
     9  H   -0.062854   0.501350
    10  H   -0.065934   0.510929
 Sum of Mulliken charges =  -0.00000   4.00000

 Dipole moment (field-independent basis, Debye):
    X=             -0.0000    Y=              0.0000    Z=              0.0000  Tot=              0.0000
 Quadrupole moment (field-independent basis, Debye-Ang):
   XX=            -20.4112   YY=            -14.4430   ZZ=            -12.5249
   XY=              0.0999   XZ=              0.0000   YZ=             -0.0000

 Normal termination of Gaussian 09 at Thu Feb 23 12:47:50 2017.
