 Gaussian 09, Revision E.01,
 Gaussian 09:  ES64L-G09RevE.01 30-Nov-2015

 ----------------------------------------------------------------------
 #uhf/gen scf(tight,novaracc,noincfock,fulldiag, ) stable(crhf) guess=r
 ead geom=nocrowd test
 ----------------------------------------------------------------------

 hf stability analysis of h10 triangular lattice, y= 0.4584084631436424
 2 alpha= 20.000000000000000
 ----------------------------------------------------------------------
 Symbolic Z-matrix:
 Charge =  0 Multiplicity = 5

                         Standard orientation:
 ---------------------------------------------------------------------
 Center     Atomic      Atomic             Coordinates (Angstroms)
 Number     Number       Type             X           Y           Z
 ---------------------------------------------------------------------
      1          1           0        1.723052   -1.383305    0.000000
      2          1           0        1.723052   -2.723602    0.000000
      3          1           0        0.861526   -0.356578    0.000000
      4          1           0        0.861526   -1.696875    0.000000
      5          1           0        0.000000    0.670148   -0.000000
      6          1           0       -0.000000   -0.670148   -0.000000
      7          1           0       -0.861526    1.696875    0.000000
      8          1           0       -0.861526    0.356578    0.000000
      9          1           0       -1.723052    2.723602    0.000000
     10          1           0       -1.723052    1.383305    0.000000
 ---------------------------------------------------------------------

 SCF Done:  E(UHF) =  -4.78563522602     A.U. after   11 cycles
 E2 =    -0.5029792336D-01 EUMP2 =    -0.48359331493859D+01

 The electronic state is 5-BU.
 Alpha  occ. eigenvalues --   -0.87532  -0.77099  -0.65637  -0.52328  -0.36413
 Alpha  occ. eigenvalues --   -0.30607  -0.24224
 Alpha virt. eigenvalues --    0.13435   0.34747   0.49588
  Beta  occ. eigenvalues --   -0.72632  -0.65114  -0.47093
  Beta virt. eigenvalues --    0.00999   0.13111   0.22057   0.25628   0.31320
  Beta virt. eigenvalues --    0.45633   0.69073

 Mulliken charges and spin densities:
               1          2
     1  H   -0.024684   0.332660
     2  H   -0.039250   0.939371
     3  H    0.050309   0.477420
     4  H    0.048924  -0.134559
     5  H   -0.035299   0.385108
     6  H   -0.035299   0.385108
     7  H    0.048924  -0.134559
     8  H    0.050309   0.477420
     9  H   -0.039250   0.939371
    10  H   -0.024684   0.332660
 Sum of Mulliken charges =   0.00000   4.00000

 Dipole moment (field-independent basis, Debye):
    X=             -0.0000    Y=              0.0000    Z=             -0.0000  Tot=              0.0000
 Quadrupole moment (field-independent basis, Debye-Ang):
   XX=            -14.7453   YY=            -18.4332   ZZ=            -12.6418
   XY=              3.1687   XZ=              0.0000   YZ=             -0.0000

 Normal termination of Gaussian 09 at Thu Feb 23 12:43:42 2017.
