 Gaussian 09, Revision E.01,
 Gaussian 09:  ES64L-G09RevE.01 30-Nov-2015

 ----------------------------------------------------------------------
 #uhf/gen scf(tight,novaracc,noincfock,fulldiag, ) stable(crhf) guess=r
 ead geom=nocrowd test
 ----------------------------------------------------------------------

 hf stability analysis of h10 triangular lattice, y= 0.6417319999662348
 7 alpha= 35.500000000000000
 ----------------------------------------------------------------------
 Symbolic Z-matrix:
 Charge =  0 Multiplicity = 5

                         Standard orientation:
 ---------------------------------------------------------------------
 Center     Atomic      Atomic             Coordinates (Angstroms)
 Number     Number       Type             X           Y           Z
 ---------------------------------------------------------------------
      1          1           0        2.089776   -0.167020    0.000000
      2          1           0        2.089776   -1.272115    0.000000
      3          1           0        1.044888    0.192764   -0.000000
      4          1           0        1.044888   -0.912331    0.000000
      5          1           0        0.000000    0.552548   -0.000000
      6          1           0       -0.000000   -0.552548   -0.000000
      7          1           0       -1.044888    0.912331    0.000000
      8          1           0       -1.044888   -0.192764   -0.000000
      9          1           0       -2.089776    1.272115    0.000000
     10          1           0       -2.089776    0.167020   -0.000000
 ---------------------------------------------------------------------

 SCF Done:  E(UHF) =  -4.71199144753     A.U. after   11 cycles
 E2 =    -0.5662928672D-01 EUMP2 =    -0.47686207342429D+01

 The electronic state is 5-BU.
 Alpha  occ. eigenvalues --   -0.95491  -0.82819  -0.63753  -0.55526  -0.40491
 Alpha  occ. eigenvalues --   -0.37339  -0.16634
 Alpha virt. eigenvalues --    0.21209   0.36942   0.64570
  Beta  occ. eigenvalues --   -0.78832  -0.64699  -0.43480
  Beta virt. eigenvalues --   -0.03537   0.04852   0.11762   0.34665   0.36372
  Beta virt. eigenvalues --    0.64216   0.80860

 Mulliken charges and spin densities:
               1          2
     1  H   -0.088259   0.616064
     2  H   -0.015942   0.471138
     3  H    0.095370   0.448035
     4  H    0.030186   0.165387
     5  H   -0.021355   0.299376
     6  H   -0.021355   0.299376
     7  H    0.030186   0.165387
     8  H    0.095370   0.448035
     9  H   -0.015942   0.471138
    10  H   -0.088259   0.616064
 Sum of Mulliken charges =  -0.00000   4.00000

 Dipole moment (field-independent basis, Debye):
    X=             -0.0000    Y=             -0.0000    Z=             -0.0000  Tot=              0.0000
 Quadrupole moment (field-independent basis, Debye-Ang):
   XX=            -18.9159   YY=            -14.9194   ZZ=            -12.5620
   XY=              1.1147   XZ=             -0.0000   YZ=              0.0000

 Normal termination of Gaussian 09 at Thu Feb 23 12:46:17 2017.
