 Gaussian 09, Revision E.01,
 Gaussian 09:  ES64L-G09RevE.01 30-Nov-2015

 ----------------------------------------------------------------------
 #uhf/gen scf(tight,novaracc,noincfock,fulldiag, ) stable(crhf) guess=r
 ead geom=nocrowd test
 ----------------------------------------------------------------------

 hf stability analysis of h10 triangular lattice, y= 1.9092530122354845
  alpha= 81.000000000000000
 ----------------------------------------------------------------------
 Symbolic Z-matrix:
 Charge =  0 Multiplicity = 5

                         Standard orientation:
 ---------------------------------------------------------------------
 Center     Atomic      Atomic             Coordinates (Angstroms)
 Number     Number       Type             X           Y           Z
 ---------------------------------------------------------------------
      1          1           0        1.194692    4.643410    0.000000
      2          1           0        1.194692    2.710358    0.000000
      3          1           0        0.597346    2.804968    0.000000
      4          1           0        0.597346    0.871916    0.000000
      5          1           0        0.000000    0.966526    0.000000
      6          1           0       -0.000000   -0.966526    0.000000
      7          1           0       -0.597346   -0.871916    0.000000
      8          1           0       -0.597346   -2.804968    0.000000
      9          1           0       -1.194692   -2.710358    0.000000
     10          1           0       -1.194692   -4.643410    0.000000
 ---------------------------------------------------------------------

 SCF Done:  E(UHF) =  -4.51751763011     A.U. after    9 cycles
 E2 =    -0.5580830038D-01 EUMP2 =    -0.45733259304847D+01

 The electronic state is 5-BU.
 Alpha  occ. eigenvalues --   -0.82063  -0.75832  -0.68972  -0.66920  -0.48562
 Alpha  occ. eigenvalues --   -0.48455   0.00954
 Alpha virt. eigenvalues --    0.35820   0.52400   0.57811
  Beta  occ. eigenvalues --   -0.68689  -0.67935  -0.55391
  Beta virt. eigenvalues --   -0.21661   0.14481   0.14571   0.42086   0.47599
  Beta virt. eigenvalues --    0.59518   0.73633

 Mulliken charges and spin densities:
               1          2
     1  H    0.004681   1.004648
     2  H   -0.006342   0.018625
     3  H   -0.018622   0.017834
     4  H    0.019720   0.489965
     5  H    0.000562   0.468929
     6  H    0.000562   0.468929
     7  H    0.019720   0.489965
     8  H   -0.018622   0.017834
     9  H   -0.006342   0.018625
    10  H    0.004681   1.004648
 Sum of Mulliken charges =   0.00000   4.00000

 Dipole moment (field-independent basis, Debye):
    X=              0.0000    Y=              0.0000    Z=             -0.0000  Tot=              0.0000
 Quadrupole moment (field-independent basis, Debye-Ang):
   XX=            -13.8227   YY=            -15.4571   ZZ=            -13.1019
   XY=             -0.1510   XZ=              0.0000   YZ=              0.0000

 Normal termination of Gaussian 09 at Thu Feb 23 12:54:01 2017.
