 Gaussian 09, Revision E.01,
 Gaussian 09:  ES64L-G09RevE.01 30-Nov-2015

 ----------------------------------------------------------------------
 #uhf/gen scf(tight,novaracc,noincfock,fulldiag, ) stable(crhf) guess=r
 ead geom=nocrowd test
 ----------------------------------------------------------------------

 hf stability analysis of h10 triangular lattice, y= 0.9519760744589420
 6 alpha= 57.500000000000000
 ----------------------------------------------------------------------
 Symbolic Z-matrix:
 Charge =  0 Multiplicity = 5

                         Standard orientation:
 ---------------------------------------------------------------------
 Center     Atomic      Atomic             Coordinates (Angstroms)
 Number     Number       Type             X           Y           Z
 ---------------------------------------------------------------------
      1          1           0        2.045985    1.518432   -0.000000
      2          1           0        2.045985    0.389685   -0.000000
      3          1           0        1.022993    1.041403   -0.000000
      4          1           0        1.022993   -0.087344   -0.000000
      5          1           0        0.000000    0.564374   -0.000000
      6          1           0       -0.000000   -0.564374   -0.000000
      7          1           0       -1.022993    0.087344   -0.000000
      8          1           0       -1.022993   -1.041403   -0.000000
      9          1           0       -2.045985   -0.389685   -0.000000
     10          1           0       -2.045985   -1.518432   -0.000000
 ---------------------------------------------------------------------

 SCF Done:  E(UHF) =  -4.70806044911     A.U. after   10 cycles
 E2 =    -0.5593838456D-01 EUMP2 =    -0.47639988336709D+01

 The electronic state is 5-BU.
 Alpha  occ. eigenvalues --   -0.94501  -0.82035  -0.63996  -0.53304  -0.38753
 Alpha  occ. eigenvalues --   -0.38513  -0.15800
 Alpha virt. eigenvalues --    0.19062   0.37434   0.56539
  Beta  occ. eigenvalues --   -0.78231  -0.64771  -0.43887
  Beta virt. eigenvalues --   -0.01575   0.03849   0.13814   0.33114   0.36638
  Beta virt. eigenvalues --    0.65230   0.71190

 Mulliken charges and spin densities:
               1          2
     1  H    0.003606   0.499038
     2  H   -0.098423   0.654895
     3  H    0.024600   0.071604
     4  H    0.091992   0.467139
     5  H   -0.021774   0.307324
     6  H   -0.021774   0.307324
     7  H    0.091992   0.467139
     8  H    0.024600   0.071604
     9  H   -0.098423   0.654895
    10  H    0.003606   0.499038
 Sum of Mulliken charges =  -0.00000   4.00000

 Dipole moment (field-independent basis, Debye):
    X=              0.0000    Y=             -0.0000    Z=              0.0000  Tot=              0.0000
 Quadrupole moment (field-independent basis, Debye-Ang):
   XX=            -18.2021   YY=            -14.9423   ZZ=            -12.5852
   XY=             -0.9819   XZ=              0.0000   YZ=              0.0000

 Normal termination of Gaussian 09 at Thu Feb 23 12:50:02 2017.
