 Gaussian 09, Revision E.01,
 Gaussian 09:  ES64L-G09RevE.01 30-Nov-2015

 ----------------------------------------------------------------------
 #uhf/gen scf(tight,novaracc,noincfock,fulldiag, ) stable(crhf) guess=r
 ead geom=nocrowd test
 ----------------------------------------------------------------------

 hf stability analysis of h10 triangular lattice, y= 1.3742008147382716
  alpha= 73.000000000000000
 ----------------------------------------------------------------------
 Symbolic Z-matrix:
 Charge =  0 Multiplicity = 5

                         Standard orientation:
 ---------------------------------------------------------------------
 Center     Atomic      Atomic             Coordinates (Angstroms)
 Number     Number       Type             X           Y           Z
 ---------------------------------------------------------------------
      1          1           0        1.607110    3.101133    0.000000
      2          1           0        1.607110    1.664143    0.000000
      3          1           0        0.803555    1.909814    0.000000
      4          1           0        0.803555    0.472824    0.000000
      5          1           0        0.000000    0.718495    0.000000
      6          1           0       -0.000000   -0.718495   -0.000000
      7          1           0       -0.803555   -0.472824   -0.000000
      8          1           0       -0.803555   -1.909814   -0.000000
      9          1           0       -1.607110   -1.664143   -0.000000
     10          1           0       -1.607110   -3.101133   -0.000000
 ---------------------------------------------------------------------

 SCF Done:  E(UHF) =  -4.83787417423     A.U. after    9 cycles
 E2 =    -0.4945140605D-01 EUMP2 =    -0.48873255802785D+01

 The electronic state is 5-BU.
 Alpha  occ. eigenvalues --   -0.85727  -0.76187  -0.66024  -0.54781  -0.40005
 Alpha  occ. eigenvalues --   -0.34422  -0.22030
 Alpha virt. eigenvalues --    0.17383   0.37490   0.52518
  Beta  occ. eigenvalues --   -0.70697  -0.64859  -0.48971
  Beta virt. eigenvalues --   -0.02876   0.18530   0.20458   0.25066   0.29105
  Beta virt. eigenvalues --    0.48093   0.69977

 Mulliken charges and spin densities:
               1          2
     1  H   -0.024476   0.971951
     2  H   -0.000781   0.149484
     3  H    0.010717   0.000238
     4  H    0.040511   0.468449
     5  H   -0.025971   0.409879
     6  H   -0.025971   0.409879
     7  H    0.040511   0.468449
     8  H    0.010717   0.000238
     9  H   -0.000781   0.149484
    10  H   -0.024476   0.971951
 Sum of Mulliken charges =   0.00000   4.00000

 Dipole moment (field-independent basis, Debye):
    X=             -0.0000    Y=             -0.0000    Z=              0.0000  Tot=              0.0000
 Quadrupole moment (field-independent basis, Debye-Ang):
   XX=            -13.7033   YY=            -18.3665   ZZ=            -12.7485
   XY=             -2.2184   XZ=             -0.0000   YZ=             -0.0000

 Normal termination of Gaussian 09 at Thu Feb 23 12:52:38 2017.
