 Gaussian 09, Revision E.01,
 Gaussian 09:  ES64L-G09RevE.01 30-Nov-2015

 ----------------------------------------------------------------------
 #uhf/gen scf(tight,novaracc,noincfock,fulldiag, ) stable(crhf) guess=r
 ead geom=nocrowd test
 ----------------------------------------------------------------------

 hf stability analysis of h10 triangular lattice, y= 0.9080427759821990
 7 alpha= 55.000000000000000
 ----------------------------------------------------------------------
 Symbolic Z-matrix:
 Charge =  0 Multiplicity = 5

                         Standard orientation:
 ---------------------------------------------------------------------
 Center     Atomic      Atomic             Coordinates (Angstroms)
 Number     Number       Type             X           Y           Z
 ---------------------------------------------------------------------
      1          1           0        2.083328    1.312527    0.000000
      2          1           0        2.083328    0.204012    0.000000
      3          1           0        1.041664    0.933392    0.000000
      4          1           0        1.041664   -0.175123    0.000000
      5          1           0       -0.000000    0.554258    0.000000
      6          1           0       -0.000000   -0.554258    0.000000
      7          1           0       -1.041664    0.175123    0.000000
      8          1           0       -1.041664   -0.933392    0.000000
      9          1           0       -2.083328   -0.204012    0.000000
     10          1           0       -2.083328   -1.312527    0.000000
 ---------------------------------------------------------------------

 SCF Done:  E(UHF) =  -4.71160029509     A.U. after   11 cycles
 E2 =    -0.5657524917D-01 EUMP2 =    -0.47681755442556D+01

 The electronic state is 5-BU.
 Alpha  occ. eigenvalues --   -0.95347  -0.82705  -0.63788  -0.55200  -0.40229
 Alpha  occ. eigenvalues --   -0.37506  -0.16501
 Alpha virt. eigenvalues --    0.20887   0.36999   0.63283
  Beta  occ. eigenvalues --   -0.78738  -0.64701  -0.43544
  Beta virt. eigenvalues --   -0.03244   0.04678   0.12072   0.34969   0.35877
  Beta virt. eigenvalues --    0.64363   0.79337

 Mulliken charges and spin densities:
               1          2
     1  H   -0.012583   0.473807
     2  H   -0.089787   0.622359
     3  H    0.028615   0.151718
     4  H    0.095047   0.451379
     5  H   -0.021292   0.300737
     6  H   -0.021292   0.300737
     7  H    0.095047   0.451379
     8  H    0.028615   0.151718
     9  H   -0.089787   0.622359
    10  H   -0.012583   0.473807
 Sum of Mulliken charges =  -0.00000   4.00000

 Dipole moment (field-independent basis, Debye):
    X=             -0.0000    Y=             -0.0000    Z=             -0.0000  Tot=              0.0000
 Quadrupole moment (field-independent basis, Debye-Ang):
   XX=            -18.7923   YY=            -14.9356   ZZ=            -12.5657
   XY=             -1.1051   XZ=              0.0000   YZ=              0.0000

 Normal termination of Gaussian 09 at Thu Feb 23 12:49:36 2017.
