 Gaussian 09, Revision E.01,
 Gaussian 09:  ES64L-G09RevE.01 30-Nov-2015

 ----------------------------------------------------------------------
 #uhf/gen scf(tight,novaracc,noincfock,fulldiag, ) stable(crhf) guess=r
 ead geom=nocrowd test
 ----------------------------------------------------------------------

 hf stability analysis of h10 triangular lattice, y= 0.5540600992415728
 5 alpha= 28.000000000000000
 ----------------------------------------------------------------------
 Symbolic Z-matrix:
 Charge =  0 Multiplicity = 5

                         Standard orientation:
 ---------------------------------------------------------------------
 Center     Atomic      Atomic             Coordinates (Angstroms)
 Number     Number       Type             X           Y           Z
 ---------------------------------------------------------------------
      1          1           0        1.956824   -0.729805    0.000000
      2          1           0        1.956824   -1.909984    0.000000
      3          1           0        0.978412   -0.069858    0.000000
      4          1           0        0.978412   -1.250036    0.000000
      5          1           0        0.000000    0.590089    0.000000
      6          1           0       -0.000000   -0.590089   -0.000000
      7          1           0       -0.978412    1.250036    0.000000
      8          1           0       -0.978412    0.069858    0.000000
      9          1           0       -1.956824    1.909984    0.000000
     10          1           0       -1.956824    0.729805    0.000000
 ---------------------------------------------------------------------

 SCF Done:  E(UHF) =  -4.69745784826     A.U. after   10 cycles
 E2 =    -0.5088849829D-01 EUMP2 =    -0.47483463465555D+01

 The electronic state is 5-BU.
 Alpha  occ. eigenvalues --   -0.92438  -0.80399  -0.64644  -0.49162  -0.40694
 Alpha  occ. eigenvalues --   -0.35817  -0.15149
 Alpha virt. eigenvalues --    0.15501   0.39201   0.44712
  Beta  occ. eigenvalues --   -0.77318  -0.65514  -0.44718
  Beta virt. eigenvalues --    0.01809   0.03655   0.17508   0.27745   0.39940
  Beta virt. eigenvalues --    0.55349   0.67211

 Mulliken charges and spin densities:
               1          2
     1  H   -0.113760   0.714597
     2  H    0.015931   0.628070
     3  H    0.082253   0.493849
     4  H    0.044170  -0.155347
     5  H   -0.028594   0.318830
     6  H   -0.028594   0.318830
     7  H    0.044170  -0.155347
     8  H    0.082253   0.493849
     9  H    0.015931   0.628070
    10  H   -0.113760   0.714597
 Sum of Mulliken charges =  -0.00000   4.00000

 Dipole moment (field-independent basis, Debye):
    X=              0.0000    Y=             -0.0000    Z=             -0.0000  Tot=              0.0000
 Quadrupole moment (field-independent basis, Debye-Ang):
   XX=            -17.4945   YY=            -14.8791   ZZ=            -12.6051
   XY=              0.9882   XZ=              0.0000   YZ=             -0.0000

 Normal termination of Gaussian 09 at Thu Feb 23 12:45:01 2017.
