 Gaussian 09, Revision E.01,
 Gaussian 09:  ES64L-G09RevE.01 30-Nov-2015

 ----------------------------------------------------------------------
 #uhf/gen scf(tight,novaracc,noincfock,fulldiag, ) stable(crhf) guess=r
 ead geom=nocrowd test
 ----------------------------------------------------------------------

 hf stability analysis of h10 triangular lattice, y= 0.7598357022583297
 5 alpha= 45.000000000000000
 ----------------------------------------------------------------------
 Symbolic Z-matrix:
 Charge =  0 Multiplicity = 5

                         Standard orientation:
 ---------------------------------------------------------------------
 Center     Atomic      Atomic             Coordinates (Angstroms)
 Number     Number       Type             X           Y           Z
 ---------------------------------------------------------------------
      1          1           0        0.000000    2.149140    0.537285
      2          1           0        0.000000    2.149140   -0.537285
      3          1           0        0.000000    1.074570    0.537285
      4          1           0        0.000000    1.074570   -0.537285
      5          1           0        0.000000    0.000000    0.537285
      6          1           0        0.000000   -0.000000   -0.537285
      7          1           0       -0.000000   -1.074570    0.537285
      8          1           0       -0.000000   -1.074570   -0.537285
      9          1           0       -0.000000   -2.149140    0.537285
     10          1           0       -0.000000   -2.149140   -0.537285
 ---------------------------------------------------------------------

 SCF Done:  E(UHF) =  -4.71145457372     A.U. after    6 cycles
 E2 =    -0.5663404048D-01 EUMP2 =    -0.47680886141915D+01

 The electronic state is 5-B1U.
 Alpha  occ. eigenvalues --   -0.96788  -0.83862  -0.63399  -0.58494  -0.42969
 Alpha  occ. eigenvalues --   -0.35900  -0.17878
 Alpha virt. eigenvalues --    0.24019   0.36854   0.78429
  Beta  occ. eigenvalues --   -0.79762  -0.64748  -0.42781
  Beta virt. eigenvalues --   -0.06255   0.06887   0.08772   0.31556   0.41090
  Beta virt. eigenvalues --    0.63019   0.97008

 Mulliken charges and spin densities:
               1          2
     1  H   -0.064439   0.506040
     2  H   -0.064439   0.506040
     3  H    0.076610   0.352671
     4  H    0.076610   0.352671
     5  H   -0.024342   0.282579
     6  H   -0.024342   0.282579
     7  H    0.076610   0.352671
     8  H    0.076610   0.352671
     9  H   -0.064439   0.506040
    10  H   -0.064439   0.506040
 Sum of Mulliken charges =  -0.00000   4.00000

 Dipole moment (field-independent basis, Debye):
    X=              0.0000    Y=              0.0000    Z=             -0.0000  Tot=              0.0000
 Quadrupole moment (field-independent basis, Debye-Ang):
   XX=            -12.5248   YY=            -20.4164   ZZ=            -14.4406
   XY=             -0.0000   XZ=              0.0000   YZ=             -0.0000

 Normal termination of Gaussian 09 at Thu Feb 23 12:47:55 2017.
