 Gaussian 09, Revision E.01,
 Gaussian 09:  ES64L-G09RevE.01 30-Nov-2015

 ----------------------------------------------------------------------
 #uhf/gen scf(tight,novaracc,noincfock,fulldiag, ) stable(crhf) guess=r
 ead geom=nocrowd test
 ----------------------------------------------------------------------

 hf stability analysis of h10 triangular lattice, y= 0.4035215248364041
 9 alpha= 15.750000000000000
 ----------------------------------------------------------------------
 Symbolic Z-matrix:
 Charge =  0 Multiplicity = 5

                         Standard orientation:
 ---------------------------------------------------------------------
 Center     Atomic      Atomic             Coordinates (Angstroms)
 Number     Number       Type             X           Y           Z
 ---------------------------------------------------------------------
      1          1           0        1.553486   -1.791761   -0.000000
      2          1           0        1.553486   -3.278355   -0.000000
      3          1           0        0.776743   -0.524232   -0.000000
      4          1           0        0.776743   -2.010826   -0.000000
      5          1           0        0.000000    0.743297    0.000000
      6          1           0       -0.000000   -0.743297   -0.000000
      7          1           0       -0.776743    2.010826   -0.000000
      8          1           0       -0.776743    0.524232   -0.000000
      9          1           0       -1.553486    3.278355   -0.000000
     10          1           0       -1.553486    1.791761   -0.000000
 ---------------------------------------------------------------------

 SCF Done:  E(UHF) =  -4.84411370291     A.U. after    9 cycles
 E2 =    -0.4868699041D-01 EUMP2 =    -0.48928006933162D+01

 The electronic state is 5-BU.
 Alpha  occ. eigenvalues --   -0.85014  -0.75842  -0.66261  -0.56030  -0.41631
 Alpha  occ. eigenvalues --   -0.37504  -0.19323
 Alpha virt. eigenvalues --    0.19634   0.39166   0.53371
  Beta  occ. eigenvalues --   -0.70044  -0.64977  -0.49943
  Beta virt. eigenvalues --   -0.05051   0.19426   0.20385   0.23561   0.31134
  Beta virt. eigenvalues --    0.49341   0.70452

 Mulliken charges and spin densities:
               1          2
     1  H    0.001543   0.111148
     2  H   -0.017083   0.981083
     3  H    0.036963   0.468923
     4  H    0.000485   0.020137
     5  H   -0.021908   0.418709
     6  H   -0.021908   0.418709
     7  H    0.000485   0.020137
     8  H    0.036963   0.468923
     9  H   -0.017083   0.981083
    10  H    0.001543   0.111148
 Sum of Mulliken charges =  -0.00000   4.00000

 Dipole moment (field-independent basis, Debye):
    X=             -0.0000    Y=              0.0000    Z=             -0.0000  Tot=              0.0000
 Quadrupole moment (field-independent basis, Debye-Ang):
   XX=            -13.5119   YY=            -18.0235   ZZ=            -12.8015
   XY=              1.7515   XZ=              0.0000   YZ=             -0.0000

 Normal termination of Gaussian 09 at Thu Feb 23 12:43:01 2017.
