 Gaussian 09, Revision E.01,
 Gaussian 09:  ES64L-G09RevE.01 30-Nov-2015

 ----------------------------------------------------------------------
 #uhf/gen scf(tight,novaracc,noincfock,fulldiag, ) stable(crhf) guess=r
 ead geom=nocrowd test
 ----------------------------------------------------------------------

 hf stability analysis of h10 triangular lattice, y= 1.2680906370950717
  alpha= 70.250000000000000
 ----------------------------------------------------------------------
 Symbolic Z-matrix:
 Charge =  0 Multiplicity = 5

                         Standard orientation:
 ---------------------------------------------------------------------
 Center     Atomic      Atomic             Coordinates (Angstroms)
 Number     Number       Type             X           Y           Z
 ---------------------------------------------------------------------
      1          1           0        1.714036    2.752966   -0.000000
      2          1           0        1.714036    1.405619   -0.000000
      3          1           0        0.857018    1.713319   -0.000000
      4          1           0        0.857018    0.365973   -0.000000
      5          1           0        0.000000    0.673673   -0.000000
      6          1           0       -0.000000   -0.673673   -0.000000
      7          1           0       -0.857018   -0.365973   -0.000000
      8          1           0       -0.857018   -1.713319   -0.000000
      9          1           0       -1.714036   -1.405619   -0.000000
     10          1           0       -1.714036   -2.752966   -0.000000
 ---------------------------------------------------------------------

 SCF Done:  E(UHF) =  -4.79117252595     A.U. after   11 cycles
 E2 =    -0.5044242007D-01 EUMP2 =    -0.48416149460132D+01

 The electronic state is 5-BU.
 Alpha  occ. eigenvalues --   -0.87376  -0.77017  -0.65657  -0.52516  -0.36665
 Alpha  occ. eigenvalues --   -0.30367  -0.24579
 Alpha virt. eigenvalues --    0.13650   0.34867   0.49901
  Beta  occ. eigenvalues --   -0.72440  -0.65052  -0.47216
  Beta virt. eigenvalues --    0.00747   0.13534   0.22019   0.25814   0.30753
  Beta virt. eigenvalues --    0.45812   0.69124

 Mulliken charges and spin densities:
               1          2
     1  H   -0.038636   0.943111
     2  H   -0.021220   0.310568
     3  H    0.045036  -0.117101
     4  H    0.049397   0.475895
     5  H   -0.034577   0.387527
     6  H   -0.034577   0.387527
     7  H    0.049397   0.475895
     8  H    0.045036  -0.117101
     9  H   -0.021220   0.310568
    10  H   -0.038636   0.943111
 Sum of Mulliken charges =   0.00000   4.00000

 Dipole moment (field-independent basis, Debye):
    X=              0.0000    Y=              0.0000    Z=              0.0000  Tot=              0.0000
 Quadrupole moment (field-independent basis, Debye-Ang):
   XX=            -14.6215   YY=            -18.4895   ZZ=            -12.6491
   XY=             -3.1204   XZ=             -0.0000   YZ=             -0.0000

 Normal termination of Gaussian 09 at Thu Feb 23 12:52:11 2017.
