 Gaussian 09, Revision E.01,
 Gaussian 09:  ES64L-G09RevE.01 30-Nov-2015

 ----------------------------------------------------------------------
 #uhf/gen scf(tight,novaracc,noincfock,fulldiag, ) stable(crhf) guess=r
 ead geom=nocrowd test
 ----------------------------------------------------------------------

 hf stability analysis of h10 triangular lattice, y= 0.4615146431802063
 0 alpha= 20.250000000000000
 ----------------------------------------------------------------------
 Symbolic Z-matrix:
 Charge =  0 Multiplicity = 5

                         Standard orientation:
 ---------------------------------------------------------------------
 Center     Atomic      Atomic             Coordinates (Angstroms)
 Number     Number       Type             X           Y           Z
 ---------------------------------------------------------------------
      1          1           0        1.731956   -1.361157    0.000000
      2          1           0        1.731956   -2.694563    0.000000
      3          1           0        0.865978   -0.347227    0.000000
      4          1           0        0.865978   -1.680633    0.000000
      5          1           0        0.000000    0.666703    0.000000
      6          1           0       -0.000000   -0.666703   -0.000000
      7          1           0       -0.865978    1.680633    0.000000
      8          1           0       -0.865978    0.347227   -0.000000
      9          1           0       -1.731956    2.694563    0.000000
     10          1           0       -1.731956    1.361157    0.000000
 ---------------------------------------------------------------------

 SCF Done:  E(UHF) =  -4.78002986042     A.U. after   11 cycles
 E2 =    -0.5008486005D-01 EUMP2 =    -0.48301147204642D+01

 The electronic state is 5-BU.
 Alpha  occ. eigenvalues --   -0.87690  -0.77182  -0.65618  -0.52141  -0.36176
 Alpha  occ. eigenvalues --   -0.30928  -0.23802
 Alpha virt. eigenvalues --    0.13248   0.34656   0.49260
  Beta  occ. eigenvalues --   -0.72830  -0.65185  -0.46978
  Beta virt. eigenvalues --    0.01237   0.12695   0.22070   0.25467   0.31891
  Beta virt. eigenvalues --    0.45460   0.69027

 Mulliken charges and spin densities:
               1          2
     1  H   -0.028457   0.355918
     2  H   -0.039645   0.935325
     3  H    0.051242   0.479102
     4  H    0.052854  -0.152957
     5  H   -0.035995   0.382611
     6  H   -0.035995   0.382611
     7  H    0.052854  -0.152957
     8  H    0.051242   0.479102
     9  H   -0.039645   0.935325
    10  H   -0.028457   0.355918
 Sum of Mulliken charges =  -0.00000   4.00000

 Dipole moment (field-independent basis, Debye):
    X=             -0.0000    Y=              0.0000    Z=              0.0000  Tot=              0.0000
 Quadrupole moment (field-independent basis, Debye-Ang):
   XX=            -14.8755   YY=            -18.3622   ZZ=            -12.6349
   XY=              3.2065   XZ=              0.0000   YZ=             -0.0000

 Normal termination of Gaussian 09 at Thu Feb 23 12:43:44 2017.
