 Gaussian 09, Revision E.01,
 Gaussian 09:  ES64L-G09RevE.01 30-Nov-2015

 ----------------------------------------------------------------------
 #uhf/gen scf(tight,novaracc,noincfock,fulldiag, ) stable(crhf) guess=r
 ead geom=nocrowd test
 ----------------------------------------------------------------------

 hf stability analysis of h10 triangular lattice, y= 0.2303281107335596
 6 alpha= 5.2500000000000000
 ----------------------------------------------------------------------
 Symbolic Z-matrix:
 Charge =  0 Multiplicity = 5

                         Standard orientation:
 ---------------------------------------------------------------------
 Center     Atomic      Atomic             Coordinates (Angstroms)
 Number     Number       Type             X           Y           Z
 ---------------------------------------------------------------------
      1          1           0        0.917447   -3.691502   -0.000000
      2          1           0        0.917447   -6.208705   -0.000000
      3          1           0        0.458724   -1.216450   -0.000000
      4          1           0        0.458724   -3.733653   -0.000000
      5          1           0        0.000000    1.258601    0.000000
      6          1           0       -0.000000   -1.258601   -0.000000
      7          1           0       -0.458724    3.733653    0.000000
      8          1           0       -0.458724    1.216450    0.000000
      9          1           0       -0.917447    6.208705    0.000000
     10          1           0       -0.917447    3.691502    0.000000
 ---------------------------------------------------------------------

 SCF Done:  E(UHF) =  -3.68389098048     A.U. after    8 cycles
 E2 =    -0.8953348315D-01 EUMP2 =    -0.37734244636332D+01

 The electronic state is 5-BU.
 Alpha  occ. eigenvalues --   -0.82238  -0.80393  -0.73130  -0.73103  -0.49901
 Alpha  occ. eigenvalues --   -0.49900   0.20864
 Alpha virt. eigenvalues --    0.47801   0.65545   0.66359
  Beta  occ. eigenvalues --   -0.72770  -0.72754  -0.55579
  Beta virt. eigenvalues --   -0.32219   0.12939   0.12941   0.61998   0.63803
  Beta virt. eigenvalues --    0.71152   0.79295

 Mulliken charges and spin densities:
               1          2
     1  H   -0.004189   0.002876
     2  H    0.002259   1.002259
     3  H    0.006309   0.499799
     4  H   -0.008164   0.003839
     5  H    0.003784   0.491227
     6  H    0.003784   0.491227
     7  H   -0.008164   0.003839
     8  H    0.006309   0.499799
     9  H    0.002259   1.002259
    10  H   -0.004189   0.002876
 Sum of Mulliken charges =   0.00000   4.00000

 Dipole moment (field-independent basis, Debye):
    X=              0.0000    Y=             -0.0000    Z=             -0.0000  Tot=              0.0000
 Quadrupole moment (field-independent basis, Debye-Ang):
   XX=            -14.2673   YY=            -14.0031   ZZ=            -13.1975
   XY=             -0.0836   XZ=              0.0000   YZ=             -0.0000

 Normal termination of Gaussian 09 at Thu Feb 23 12:41:22 2017.
