 Gaussian 09, Revision E.01,
 Gaussian 09:  ES64L-G09RevE.01 30-Nov-2015

 ----------------------------------------------------------------------
 #uhf/gen scf(tight,novaracc,noincfock,fulldiag, ) stable(crhf) guess=r
 ead geom=nocrowd test
 ----------------------------------------------------------------------

 hf stability analysis of h10 triangular lattice, y= 1.1662555983306084
  alpha= 67.000000000000000
 ----------------------------------------------------------------------
 Symbolic Z-matrix:
 Charge =  0 Multiplicity = 5

                         Standard orientation:
 ---------------------------------------------------------------------
 Center     Atomic      Atomic             Coordinates (Angstroms)
 Number     Number       Type             X           Y           Z
 ---------------------------------------------------------------------
      1          1           0        1.822769    2.393715    0.000000
      2          1           0        1.822769    1.126741    0.000000
      3          1           0        0.911385    1.513601    0.000000
      4          1           0        0.911385    0.246627    0.000000
      5          1           0       -0.000000    0.633487    0.000000
      6          1           0       -0.000000   -0.633487    0.000000
      7          1           0       -0.911385   -0.246627    0.000000
      8          1           0       -0.911385   -1.513601    0.000000
      9          1           0       -1.822769   -1.126741    0.000000
     10          1           0       -1.822769   -2.393715    0.000000
 ---------------------------------------------------------------------

 SCF Done:  E(UHF) =  -4.72450545632     A.U. after   11 cycles
 E2 =    -0.4518125319D-01 EUMP2 =    -0.47696867095116D+01

 The electronic state is 5-BU.
 Alpha  occ. eigenvalues --   -0.89469  -0.78226  -0.65481  -0.50038  -0.36065
 Alpha  occ. eigenvalues --   -0.34698  -0.18828
 Alpha virt. eigenvalues --    0.12901   0.35787   0.45016
  Beta  occ. eigenvalues --   -0.75165  -0.66187  -0.46160
  Beta virt. eigenvalues --    0.02831   0.08661   0.20976   0.25086   0.38274
  Beta virt. eigenvalues --    0.44219   0.68748

 Mulliken charges and spin densities:
               1          2
     1  H   -0.026351   0.863104
     2  H   -0.079743   0.611974
     3  H    0.082994  -0.328105
     4  H    0.062894   0.500150
     5  H   -0.039794   0.352877
     6  H   -0.039794   0.352877
     7  H    0.062894   0.500150
     8  H    0.082994  -0.328105
     9  H   -0.079743   0.611974
    10  H   -0.026351   0.863104
 Sum of Mulliken charges =  -0.00000   4.00000

 Dipole moment (field-independent basis, Debye):
    X=              0.0000    Y=             -0.0000    Z=             -0.0000  Tot=              0.0000
 Quadrupole moment (field-independent basis, Debye-Ang):
   XX=            -16.4001   YY=            -16.8141   ZZ=            -12.5889
   XY=             -2.7916   XZ=              0.0000   YZ=             -0.0000

 Normal termination of Gaussian 09 at Thu Feb 23 12:51:38 2017.
