 Gaussian 09, Revision E.01,
 Gaussian 09:  ES64L-G09RevE.01 30-Nov-2015

 ----------------------------------------------------------------------
 #uhf/gen scf(tight,novaracc,noincfock,fulldiag, ) stable(crhf) guess=r
 ead geom=nocrowd test
 ----------------------------------------------------------------------

 hf stability analysis of h10 triangular lattice, y= 1.2948927059181552
  alpha= 71.000000000000000
 ----------------------------------------------------------------------
 Symbolic Z-matrix:
 Charge =  0 Multiplicity = 5

                         Standard orientation:
 ---------------------------------------------------------------------
 Center     Atomic      Atomic             Coordinates (Angstroms)
 Number     Number       Type             X           Y           Z
 ---------------------------------------------------------------------
      1          1           0        1.686303    2.843122   -0.000000
      2          1           0        1.686303    1.473617   -0.000000
      3          1           0        0.843152    1.763938   -0.000000
      4          1           0        0.843152    0.394432   -0.000000
      5          1           0        0.000000    0.684753    0.000000
      6          1           0       -0.000000   -0.684753    0.000000
      7          1           0       -0.843152   -0.394432   -0.000000
      8          1           0       -0.843152   -1.763938   -0.000000
      9          1           0       -1.686303   -1.473617   -0.000000
     10          1           0       -1.686303   -2.843122   -0.000000
 ---------------------------------------------------------------------

 SCF Done:  E(UHF) =  -4.80700198371     A.U. after   11 cycles
 E2 =    -0.5052475362D-01 EUMP2 =    -0.48575267373310D+01

 The electronic state is 5-BU.
 Alpha  occ. eigenvalues --   -0.86914  -0.76780  -0.65734  -0.53090  -0.37494
 Alpha  occ. eigenvalues --   -0.30389  -0.24963
 Alpha virt. eigenvalues --    0.14445   0.35378   0.50754
  Beta  occ. eigenvalues --   -0.71905  -0.64918  -0.47630
  Beta virt. eigenvalues --   -0.00088   0.14845   0.21769   0.26509   0.29087
  Beta virt. eigenvalues --    0.46378   0.69311

 Mulliken charges and spin densities:
               1          2
     1  H   -0.035755   0.952826
     2  H   -0.012677   0.252232
     3  H    0.033958  -0.071666
     4  H    0.046781   0.472282
     5  H   -0.032307   0.394325
     6  H   -0.032307   0.394325
     7  H    0.046781   0.472282
     8  H    0.033958  -0.071666
     9  H   -0.012677   0.252232
    10  H   -0.035755   0.952826
 Sum of Mulliken charges =  -0.00000   4.00000

 Dipole moment (field-independent basis, Debye):
    X=              0.0000    Y=              0.0000    Z=              0.0000  Tot=              0.0000
 Quadrupole moment (field-independent basis, Debye-Ang):
   XX=            -14.2912   YY=            -18.5770   ZZ=            -12.6731
   XY=             -2.9249   XZ=             -0.0000   YZ=             -0.0000

 Normal termination of Gaussian 09 at Thu Feb 23 12:52:18 2017.
