 Gaussian 09, Revision E.01,
 Gaussian 09:  ES64L-G09RevE.01 30-Nov-2015

 ----------------------------------------------------------------------
 #uhf/gen scf(tight,novaracc,noincfock,fulldiag, ) stable(crhf) guess=r
 ead geom=nocrowd test
 ----------------------------------------------------------------------

 hf stability analysis of h10 triangular lattice, y= 1.6306791826473761
  alpha= 77.750000000000000
 ----------------------------------------------------------------------
 Symbolic Z-matrix:
 Charge =  0 Multiplicity = 5

                         Standard orientation:
 ---------------------------------------------------------------------
 Center     Atomic      Atomic             Coordinates (Angstroms)
 Number     Number       Type             X           Y           Z
 ---------------------------------------------------------------------
      1          1           0        1.383975    3.871192   -0.000000
      2          1           0        1.383975    2.202519   -0.000000
      3          1           0        0.691987    2.352764   -0.000000
      4          1           0        0.691987    0.684091   -0.000000
      5          1           0        0.000000    0.834337    0.000000
      6          1           0       -0.000000   -0.834337    0.000000
      7          1           0       -0.691987   -0.684091    0.000000
      8          1           0       -0.691987   -2.352764    0.000000
      9          1           0       -1.383975   -2.202519    0.000000
     10          1           0       -1.383975   -3.871192    0.000000
 ---------------------------------------------------------------------

 SCF Done:  E(UHF) =  -4.77518425792     A.U. after    9 cycles
 E2 =    -0.4878644196D-01 EUMP2 =    -0.48239706998779D+01

 The electronic state is 5-BU.
 Alpha  occ. eigenvalues --   -0.83207  -0.75171  -0.67238  -0.60854  -0.45814
 Alpha  occ. eigenvalues --   -0.44756  -0.10231
 Alpha virt. eigenvalues --    0.27202   0.45012   0.55338
  Beta  occ. eigenvalues --   -0.68607  -0.65893  -0.53013
  Beta virt. eigenvalues --   -0.12880   0.16564   0.17171   0.30807   0.38328
  Beta virt. eigenvalues --    0.53729   0.71859

 Mulliken charges and spin densities:
               1          2
     1  H   -0.001048   0.998666
     2  H   -0.001139   0.049525
     3  H   -0.015908   0.030511
     4  H    0.028041   0.477282
     5  H   -0.009946   0.444017
     6  H   -0.009946   0.444017
     7  H    0.028041   0.477282
     8  H   -0.015908   0.030511
     9  H   -0.001139   0.049525
    10  H   -0.001048   0.998666
 Sum of Mulliken charges =  -0.00000   4.00000

 Dipole moment (field-independent basis, Debye):
    X=              0.0000    Y=              0.0000    Z=              0.0000  Tot=              0.0000
 Quadrupole moment (field-independent basis, Debye-Ang):
   XX=            -13.4715   YY=            -16.6770   ZZ=            -12.9606
   XY=             -0.6717   XZ=              0.0000   YZ=              0.0000

 Normal termination of Gaussian 09 at Thu Feb 23 12:53:25 2017.
