 Gaussian 09, Revision E.01,
 Gaussian 09:  ES64L-G09RevE.01 30-Nov-2015

 ----------------------------------------------------------------------
 #uhf/gen scf(tight,novaracc,noincfock,fulldiag, ) stable(crhf) guess=r
 ead geom=nocrowd test
 ----------------------------------------------------------------------

 hf stability analysis of h10 triangular lattice, y= 2.1684423371644423
  alpha= 83.000000000000000
 ----------------------------------------------------------------------
 Symbolic Z-matrix:
 Charge =  0 Multiplicity = 5

                         Standard orientation:
 ---------------------------------------------------------------------
 Center     Atomic      Atomic             Coordinates (Angstroms)
 Number     Number       Type             X           Y           Z
 ---------------------------------------------------------------------
      1          1           0        1.057067    5.332026    0.000000
      2          1           0        1.057067    3.147299    0.000000
      3          1           0        0.528533    3.212195    0.000000
      4          1           0        0.528533    1.027468    0.000000
      5          1           0        0.000000    1.092363    0.000000
      6          1           0       -0.000000   -1.092363    0.000000
      7          1           0       -0.528533   -1.027468    0.000000
      8          1           0       -0.528533   -3.212195    0.000000
      9          1           0       -1.057067   -3.147299    0.000000
     10          1           0       -1.057067   -5.332026    0.000000
 ---------------------------------------------------------------------

 SCF Done:  E(UHF) =  -4.18468508637     A.U. after    9 cycles
 E2 =    -0.6791019840D-01 EUMP2 =    -0.42525952847677D+01

 The electronic state is 5-BU.
 Alpha  occ. eigenvalues --   -0.81836  -0.77728  -0.70806  -0.70363  -0.49507
 Alpha  occ. eigenvalues --   -0.49496   0.10237
 Alpha virt. eigenvalues --    0.41879   0.58485   0.61026
  Beta  occ. eigenvalues --   -0.70271  -0.70107  -0.55808
  Beta virt. eigenvalues --   -0.27261   0.13543   0.13559   0.51506   0.55232
  Beta virt. eigenvalues --    0.64637   0.75736

 Mulliken charges and spin densities:
               1          2
     1  H    0.004111   1.004105
     2  H   -0.006666   0.007816
     3  H   -0.014508   0.009220
     4  H    0.013011   0.496474
     5  H    0.004052   0.482386
     6  H    0.004052   0.482386
     7  H    0.013011   0.496474
     8  H   -0.014508   0.009220
     9  H   -0.006666   0.007816
    10  H    0.004111   1.004105
 Sum of Mulliken charges =  -0.00000   4.00000

 Dipole moment (field-independent basis, Debye):
    X=              0.0000    Y=             -0.0000    Z=             -0.0000  Tot=              0.0000
 Quadrupole moment (field-independent basis, Debye-Ang):
   XX=            -14.0792   YY=            -14.7646   ZZ=            -13.1690
   XY=             -0.0052   XZ=              0.0000   YZ=              0.0000

 Normal termination of Gaussian 09 at Thu Feb 23 12:54:21 2017.
