 Gaussian 09, Revision E.01,
 Gaussian 09:  ES64L-G09RevE.01 30-Nov-2015

 ----------------------------------------------------------------------
 #uhf/gen scf(tight,novaracc,noincfock,fulldiag, ) stable(crhf) guess=r
 ead geom=nocrowd test
 ----------------------------------------------------------------------

 hf stability analysis of h10 triangular lattice, y= 0.2614075542186236
 6 alpha= 6.7500000000000000
 ----------------------------------------------------------------------
 Symbolic Z-matrix:
 Charge =  0 Multiplicity = 5

                         Standard orientation:
 ---------------------------------------------------------------------
 Center     Atomic      Atomic             Coordinates (Angstroms)
 Number     Number       Type             X           Y           Z
 ---------------------------------------------------------------------
      1          1           0        1.038382   -3.213155   -0.000000
      2          1           0        1.038382   -5.437192   -0.000000
      3          1           0        0.519191   -1.050568   -0.000000
      4          1           0        0.519191   -3.274606   -0.000000
      5          1           0        0.000000    1.112019    0.000000
      6          1           0       -0.000000   -1.112019    0.000000
      7          1           0       -0.519191    3.274606   -0.000000
      8          1           0       -0.519191    1.050568   -0.000000
      9          1           0       -1.038382    5.437192   -0.000000
     10          1           0       -1.038382    3.213155   -0.000000
 ---------------------------------------------------------------------

 SCF Done:  E(UHF) =  -4.12822175220     A.U. after    8 cycles
 E2 =    -0.7016928742D-01 EUMP2 =    -0.41983910396138D+01

 The electronic state is 5-BU.
 Alpha  occ. eigenvalues --   -0.81849  -0.78061  -0.71093  -0.70756  -0.49586
 Alpha  occ. eigenvalues --   -0.49578   0.11589
 Alpha virt. eigenvalues --    0.42680   0.59370   0.61607
  Beta  occ. eigenvalues --   -0.70567  -0.70440  -0.55798
  Beta virt. eigenvalues --   -0.27962   0.13444   0.13456   0.52863   0.56330
  Beta virt. eigenvalues --    0.65417   0.76114

 Mulliken charges and spin densities:
               1          2
     1  H   -0.006453   0.006881
     2  H    0.003890   1.003887
     3  H    0.012066   0.497091
     4  H   -0.013709   0.008304
     5  H    0.004206   0.483837
     6  H    0.004206   0.483837
     7  H   -0.013709   0.008304
     8  H    0.012066   0.497091
     9  H    0.003890   1.003887
    10  H   -0.006453   0.006881
 Sum of Mulliken charges =  -0.00000   4.00000

 Dipole moment (field-independent basis, Debye):
    X=              0.0000    Y=              0.0000    Z=              0.0000  Tot=              0.0000
 Quadrupole moment (field-independent basis, Debye-Ang):
   XX=            -14.1090   YY=            -14.6686   ZZ=            -13.1754
   XY=             -0.0090   XZ=              0.0000   YZ=             -0.0000

 Normal termination of Gaussian 09 at Thu Feb 23 12:41:35 2017.
