 Gaussian 09, Revision E.01,
 Gaussian 09:  ES64L-G09RevE.01 30-Nov-2015

 ----------------------------------------------------------------------
 #uhf/gen scf(tight,novaracc,noincfock,fulldiag, ) stable(crhf) guess=r
 ead geom=nocrowd test
 ----------------------------------------------------------------------

 hf stability analysis of h10 triangular lattice, y= 0.8258291078557595
 8 alpha= 49.750000000000000
 ----------------------------------------------------------------------
 Symbolic Z-matrix:
 Charge =  0 Multiplicity = 5

                         Standard orientation:
 ---------------------------------------------------------------------
 Center     Atomic      Atomic             Coordinates (Angstroms)
 Number     Number       Type             X           Y           Z
 ---------------------------------------------------------------------
      1          1           0        2.134352    0.898176    0.000000
      2          1           0        2.134352   -0.183840    0.000000
      3          1           0        1.067176    0.719592    0.000000
      4          1           0        1.067176   -0.362424    0.000000
      5          1           0        0.000000    0.541008    0.000000
      6          1           0       -0.000000   -0.541008   -0.000000
      7          1           0       -1.067176    0.362424    0.000000
      8          1           0       -1.067176   -0.719592   -0.000000
      9          1           0       -2.134352    0.183840    0.000000
     10          1           0       -2.134352   -0.898176   -0.000000
 ---------------------------------------------------------------------

 SCF Done:  E(UHF) =  -4.71236542160     A.U. after   11 cycles
 E2 =    -0.5669850834D-01 EUMP2 =    -0.47690639299397D+01

 The electronic state is 5-BU.
 Alpha  occ. eigenvalues --   -0.96471  -0.83604  -0.63496  -0.57760  -0.42341
 Alpha  occ. eigenvalues --   -0.36238  -0.17576
 Alpha virt. eigenvalues --    0.23373   0.36778   0.74600
  Beta  occ. eigenvalues --   -0.79522  -0.64729  -0.42976
  Beta virt. eigenvalues --   -0.05577   0.06305   0.09543   0.32391   0.39897
  Beta virt. eigenvalues --    0.63280   0.92572

 Mulliken charges and spin densities:
               1          2
     1  H   -0.044968   0.472025
     2  H   -0.076335   0.558089
     3  H    0.052164   0.272629
     4  H    0.092271   0.409641
     5  H   -0.023133   0.287616
     6  H   -0.023133   0.287616
     7  H    0.092271   0.409641
     8  H    0.052164   0.272629
     9  H   -0.076335   0.558089
    10  H   -0.044968   0.472025
 Sum of Mulliken charges =  -0.00000   4.00000

 Dipole moment (field-independent basis, Debye):
    X=              0.0000    Y=             -0.0000    Z=              0.0000  Tot=              0.0000
 Quadrupole moment (field-independent basis, Debye-Ang):
   XX=            -19.9739   YY=            -14.6266   ZZ=            -12.5344
   XY=             -0.8350   XZ=             -0.0000   YZ=             -0.0000

 Normal termination of Gaussian 09 at Thu Feb 23 12:48:44 2017.
