 Gaussian 09, Revision E.01,
 Gaussian 09:  ES64L-G09RevE.01 30-Nov-2015

 ----------------------------------------------------------------------
 #uhf/gen scf(tight,novaracc,noincfock,fulldiag, ) stable(crhf) guess=r
 ead geom=nocrowd test
 ----------------------------------------------------------------------

 hf stability analysis of h10 triangular lattice, y= 0.7210052279144877
 3 alpha= 42.000000000000000
 ----------------------------------------------------------------------
 Symbolic Z-matrix:
 Charge =  0 Multiplicity = 5

                         Standard orientation:
 ---------------------------------------------------------------------
 Center     Atomic      Atomic             Coordinates (Angstroms)
 Number     Number       Type             X           Y           Z
 ---------------------------------------------------------------------
      1          1           0        2.143245    0.313499   -0.000000
      2          1           0        2.143245   -0.764027   -0.000000
      3          1           0        1.071623    0.426131   -0.000000
      4          1           0        1.071623   -0.651395   -0.000000
      5          1           0       -0.000000    0.538763   -0.000000
      6          1           0       -0.000000   -0.538763   -0.000000
      7          1           0       -1.071623    0.651395    0.000000
      8          1           0       -1.071623   -0.426131    0.000000
      9          1           0       -2.143245    0.764027    0.000000
     10          1           0       -2.143245   -0.313499    0.000000
 ---------------------------------------------------------------------

 SCF Done:  E(UHF) =  -4.71188574097     A.U. after   11 cycles
 E2 =    -0.5666376358D-01 EUMP2 =    -0.47685495045525D+01

 The electronic state is 5-BU.
 Alpha  occ. eigenvalues --   -0.96662  -0.83760  -0.63439  -0.58202  -0.42718
 Alpha  occ. eigenvalues --   -0.36033  -0.17760
 Alpha virt. eigenvalues --    0.23769   0.36813   0.76869
  Beta  occ. eigenvalues --   -0.79666  -0.64740  -0.42861
  Beta virt. eigenvalues --   -0.05985   0.06648   0.09081   0.31894   0.40614
  Beta virt. eigenvalues --    0.63119   0.95202

 Mulliken charges and spin densities:
               1          2
     1  H   -0.072378   0.537743
     2  H   -0.053353   0.481520
     3  H    0.087951   0.391203
     4  H    0.061596   0.304865
     5  H   -0.023816   0.284669
     6  H   -0.023816   0.284669
     7  H    0.061596   0.304865
     8  H    0.087951   0.391203
     9  H   -0.053353   0.481520
    10  H   -0.072378   0.537743
 Sum of Mulliken charges =  -0.00000   4.00000

 Dipole moment (field-independent basis, Debye):
    X=             -0.0000    Y=             -0.0000    Z=             -0.0000  Tot=              0.0000
 Quadrupole moment (field-independent basis, Debye-Ang):
   XX=            -20.2337   YY=            -14.5211   ZZ=            -12.5286
   XY=              0.5703   XZ=              0.0000   YZ=             -0.0000

 Normal termination of Gaussian 09 at Thu Feb 23 12:47:25 2017.
