 Gaussian 09, Revision E.01,
 Gaussian 09:  ES64L-G09RevE.01 30-Nov-2015

 ----------------------------------------------------------------------
 #uhf/gen scf(tight,novaracc,noincfock,fulldiag, ) stable(crhf) guess=r
 ead geom=nocrowd test
 ----------------------------------------------------------------------

 hf stability analysis of h10 triangular lattice, y= 0.8833142989544126
 0 alpha= 53.500000000000000
 ----------------------------------------------------------------------
 Symbolic Z-matrix:
 Charge =  0 Multiplicity = 5

                         Standard orientation:
 ---------------------------------------------------------------------
 Center     Atomic      Atomic             Coordinates (Angstroms)
 Number     Number       Type             X           Y           Z
 ---------------------------------------------------------------------
      1          1           0        2.101662    1.191965   -0.000000
      2          1           0        2.101662    0.093120   -0.000000
      3          1           0        1.050831    0.870694   -0.000000
      4          1           0        1.050831   -0.228151   -0.000000
      5          1           0       -0.000000    0.549423    0.000000
      6          1           0       -0.000000   -0.549423    0.000000
      7          1           0       -1.050831    0.228151   -0.000000
      8          1           0       -1.050831   -0.870694   -0.000000
      9          1           0       -2.101662   -0.093120   -0.000000
     10          1           0       -2.101662   -1.191965   -0.000000
 ---------------------------------------------------------------------

 SCF Done:  E(UHF) =  -4.71250688434     A.U. after   11 cycles
 E2 =    -0.5669542880D-01 EUMP2 =    -0.47692023131455D+01

 The electronic state is 5-BU.
 Alpha  occ. eigenvalues --   -0.95756  -0.83030  -0.63688  -0.56125  -0.40978
 Alpha  occ. eigenvalues --   -0.37035  -0.16883
 Alpha virt. eigenvalues --    0.21802   0.36856   0.67043
  Beta  occ. eigenvalues --   -0.79010  -0.64700  -0.43356
  Beta virt. eigenvalues --   -0.04078   0.05198   0.11184   0.34088   0.37296
  Beta virt. eigenvalues --    0.63952   0.83771

 Mulliken charges and spin densities:
               1          2
     1  H   -0.022590   0.467652
     2  H   -0.085397   0.603611
     3  H    0.033898   0.191026
     4  H    0.095680   0.441045
     5  H   -0.021591   0.296666
     6  H   -0.021591   0.296666
     7  H    0.095680   0.441045
     8  H    0.033898   0.191026
     9  H   -0.085397   0.603611
    10  H   -0.022590   0.467652
 Sum of Mulliken charges =  -0.00000   4.00000

 Dipole moment (field-independent basis, Debye):
    X=              0.0000    Y=             -0.0000    Z=              0.0000  Tot=              0.0000
 Quadrupole moment (field-independent basis, Debye-Ang):
   XX=            -19.1620   YY=            -14.8744   ZZ=            -12.5549
   XY=             -1.1130   XZ=             -0.0000   YZ=             -0.0000

 Normal termination of Gaussian 09 at Thu Feb 23 12:49:21 2017.
