 Gaussian 09, Revision E.01,
 Gaussian 09:  ES64L-G09RevE.01 30-Nov-2015

 ----------------------------------------------------------------------
 #uhf/gen scf(tight,novaracc,noincfock,fulldiag, ) stable(crhf) guess=r
 ead geom=nocrowd test
 ----------------------------------------------------------------------

 hf stability analysis of h10 triangular lattice, y= 0.8481530305026630
 0 alpha= 51.250000000000000
 ----------------------------------------------------------------------
 Symbolic Z-matrix:
 Charge =  0 Multiplicity = 5

                         Standard orientation:
 ---------------------------------------------------------------------
 Center     Atomic      Atomic             Coordinates (Angstroms)
 Number     Number       Type             X           Y           Z
 ---------------------------------------------------------------------
      1          1           0        2.123516    1.014540   -0.000000
      2          1           0        2.123516   -0.072996   -0.000000
      3          1           0        1.061758    0.779154   -0.000000
      4          1           0        1.061758   -0.308382   -0.000000
      5          1           0        0.000000    0.543768   -0.000000
      6          1           0       -0.000000   -0.543768   -0.000000
      7          1           0       -1.061758    0.308382   -0.000000
      8          1           0       -1.061758   -0.779154   -0.000000
      9          1           0       -2.123516    0.072996   -0.000000
     10          1           0       -2.123516   -1.014540   -0.000000
 ---------------------------------------------------------------------

 SCF Done:  E(UHF) =  -4.71268436804     A.U. after   11 cycles
 E2 =    -0.5672233621D-01 EUMP2 =    -0.47694067042462D+01

 The electronic state is 5-BU.
 Alpha  occ. eigenvalues --   -0.96236  -0.83415  -0.63563  -0.57220  -0.41886
 Alpha  occ. eigenvalues --   -0.36495  -0.17348
 Alpha virt. eigenvalues --    0.22868   0.36772   0.71964
  Beta  occ. eigenvalues --   -0.79349  -0.64716  -0.43110
  Beta virt. eigenvalues --   -0.05079   0.05912   0.10096   0.32974   0.39027
  Beta virt. eigenvalues --    0.63491   0.89512

 Mulliken charges and spin densities:
               1          2
     1  H   -0.036655   0.467376
     2  H   -0.079739   0.576076
     3  H    0.044296   0.242273
     4  H    0.094561   0.423371
     5  H   -0.022464   0.290904
     6  H   -0.022464   0.290904
     7  H    0.094561   0.423371
     8  H    0.044296   0.242273
     9  H   -0.079739   0.576076
    10  H   -0.036655   0.467376
 Sum of Mulliken charges =  -0.00000   4.00000

 Dipole moment (field-independent basis, Debye):
    X=              0.0000    Y=             -0.0000    Z=              0.0000  Tot=              0.0000
 Quadrupole moment (field-independent basis, Debye-Ang):
   XX=            -19.6811   YY=            -14.7314   ZZ=            -12.5413
   XY=             -0.9977   XZ=              0.0000   YZ=              0.0000

 Normal termination of Gaussian 09 at Thu Feb 23 12:48:59 2017.
