 Gaussian 09, Revision E.01,
 Gaussian 09:  ES64L-G09RevE.01 30-Nov-2015

 ----------------------------------------------------------------------
 #uhf/gen scf(tight,novaracc,noincfock,fulldiag, ) stable(crhf) guess=r
 ead geom=nocrowd test
 ----------------------------------------------------------------------

 hf stability analysis of h10 triangular lattice, y= 1.7438440595774944
  alpha= 79.250000000000000
 ----------------------------------------------------------------------
 Symbolic Z-matrix:
 Charge =  0 Multiplicity = 5

                         Standard orientation:
 ---------------------------------------------------------------------
 Center     Atomic      Atomic             Coordinates (Angstroms)
 Number     Number       Type             X           Y           Z
 ---------------------------------------------------------------------
      1          1           0        1.301075    4.190469   -0.000000
      2          1           0        1.301075    2.415475   -0.000000
      3          1           0        0.650538    2.538983   -0.000000
      4          1           0        0.650538    0.763989   -0.000000
      5          1           0       -0.000000    0.887497    0.000000
      6          1           0       -0.000000   -0.887497    0.000000
      7          1           0       -0.650538   -0.763989   -0.000000
      8          1           0       -0.650538   -2.538983   -0.000000
      9          1           0       -1.301075   -2.415475   -0.000000
     10          1           0       -1.301075   -4.190469   -0.000000
 ---------------------------------------------------------------------

 SCF Done:  E(UHF) =  -4.68783444428     A.U. after    9 cycles
 E2 =    -0.5076427344D-01 EUMP2 =    -0.47385987177128D+01

 The electronic state is 5-BU.
 Alpha  occ. eigenvalues --   -0.82590  -0.75212  -0.67895  -0.63580  -0.47258
 Alpha  occ. eigenvalues --   -0.46829  -0.05510
 Alpha virt. eigenvalues --    0.30990   0.48126   0.56264
  Beta  occ. eigenvalues --   -0.68359  -0.66648  -0.54285
  Beta virt. eigenvalues --   -0.16833   0.15516   0.15795   0.35523   0.42222
  Beta virt. eigenvalues --    0.56127   0.72555

 Mulliken charges and spin densities:
               1          2
     1  H    0.002752   1.002636
     2  H   -0.003820   0.033139
     3  H   -0.018578   0.025671
     4  H    0.024403   0.482984
     5  H   -0.004757   0.455570
     6  H   -0.004757   0.455570
     7  H    0.024403   0.482984
     8  H   -0.018578   0.025671
     9  H   -0.003820   0.033139
    10  H    0.002752   1.002636
 Sum of Mulliken charges =  -0.00000   4.00000

 Dipole moment (field-independent basis, Debye):
    X=              0.0000    Y=              0.0000    Z=             -0.0000  Tot=              0.0000
 Quadrupole moment (field-independent basis, Debye-Ang):
   XX=            -13.6075   YY=            -16.0821   ZZ=            -13.0285
   XY=             -0.3730   XZ=             -0.0000   YZ=             -0.0000

 Normal termination of Gaussian 09 at Thu Feb 23 12:53:41 2017.
