 Gaussian 09, Revision E.01,
 Gaussian 09:  ES64L-G09RevE.01 30-Nov-2015

 ----------------------------------------------------------------------
 #uhf/gen scf(tight,novaracc,noincfock,fulldiag, ) stable(crhf) guess=r
 ead geom=nocrowd test
 ----------------------------------------------------------------------

 hf stability analysis of h10 triangular lattice, y= 0.3271170287955045
 3 alpha= 10.500000000000000
 ----------------------------------------------------------------------
 Symbolic Z-matrix:
 Charge =  0 Multiplicity = 5

                         Standard orientation:
 ---------------------------------------------------------------------
 Center     Atomic      Atomic             Coordinates (Angstroms)
 Number     Number       Type             X           Y           Z
 ---------------------------------------------------------------------
      1          1           0        1.286558   -2.454086    0.000000
      2          1           0        1.286558   -4.249109    0.000000
      3          1           0        0.643279   -0.778287    0.000000
      4          1           0        0.643279   -2.573310    0.000000
      5          1           0        0.000000    0.897512    0.000000
      6          1           0       -0.000000   -0.897512    0.000000
      7          1           0       -0.643279    2.573310    0.000000
      8          1           0       -0.643279    0.778287    0.000000
      9          1           0       -1.286558    4.249109    0.000000
     10          1           0       -1.286558    2.454086    0.000000
 ---------------------------------------------------------------------

 SCF Done:  E(UHF) =  -4.66859377535     A.U. after    9 cycles
 E2 =    -0.5127284115D-01 EUMP2 =    -0.47198666165059D+01

 The electronic state is 5-BU.
 Alpha  occ. eigenvalues --   -0.82500  -0.75255  -0.68026  -0.64057  -0.47471
 Alpha  occ. eigenvalues --   -0.47111  -0.04658
 Alpha virt. eigenvalues --    0.31653   0.48690   0.56443
  Beta  occ. eigenvalues --   -0.68358  -0.66802  -0.54476
  Beta virt. eigenvalues --   -0.17513   0.15356   0.15597   0.36383   0.42930
  Beta virt. eigenvalues --    0.56567   0.72685

 Mulliken charges and spin densities:
               1          2
     1  H   -0.004251   0.030775
     2  H    0.003189   1.003090
     3  H    0.023777   0.483991
     4  H   -0.018789   0.024635
     5  H   -0.003926   0.457509
     6  H   -0.003926   0.457509
     7  H   -0.018789   0.024635
     8  H    0.023777   0.483991
     9  H    0.003189   1.003090
    10  H   -0.004251   0.030775
 Sum of Mulliken charges =   0.00000   4.00000

 Dipole moment (field-independent basis, Debye):
    X=             -0.0000    Y=              0.0000    Z=              0.0000  Tot=              0.0000
 Quadrupole moment (field-independent basis, Debye-Ang):
   XX=            -13.6356   YY=            -15.9880   ZZ=            -13.0395
   XY=              0.3336   XZ=              0.0000   YZ=             -0.0000

 Normal termination of Gaussian 09 at Thu Feb 23 12:42:11 2017.
