 Gaussian 09, Revision E.01,
 Gaussian 09:  ES64L-G09RevE.01 30-Nov-2015

 ----------------------------------------------------------------------
 #uhf/gen scf(tight,novaracc,noincfock,fulldiag, ) stable(crhf) guess=r
 ead geom=nocrowd test
 ----------------------------------------------------------------------

 hf stability analysis of h10 triangular lattice, y= 0.4738346202814235
 9 alpha= 21.250000000000000
 ----------------------------------------------------------------------
 Symbolic Z-matrix:
 Charge =  0 Multiplicity = 5

                         Standard orientation:
 ---------------------------------------------------------------------
 Center     Atomic      Atomic             Coordinates (Angstroms)
 Number     Number       Type             X           Y           Z
 ---------------------------------------------------------------------
      1          1           0        1.766470   -1.274087    0.000000
      2          1           0        1.766470   -2.581441    0.000000
      3          1           0        0.883235   -0.310205    0.000000
      4          1           0        0.883235   -1.617559    0.000000
      5          1           0        0.000000    0.653677   -0.000000
      6          1           0       -0.000000   -0.653677   -0.000000
      7          1           0       -0.883235    1.617559    0.000000
      8          1           0       -0.883235    0.310205    0.000000
      9          1           0       -1.766470    2.581441    0.000000
     10          1           0       -1.766470    1.274087    0.000000
 ---------------------------------------------------------------------

 SCF Done:  E(UHF) =  -4.75771834442     A.U. after   11 cycles
 E2 =    -0.4856200384D-01 EUMP2 =    -0.48062803482598D+01

 The electronic state is 5-BU.
 Alpha  occ. eigenvalues --   -0.88332  -0.77535  -0.65565  -0.51393  -0.35400
 Alpha  occ. eigenvalues --   -0.32650  -0.21868
 Alpha virt. eigenvalues --    0.12790   0.34613   0.47815
  Beta  occ. eigenvalues --   -0.73678  -0.65545  -0.46601
  Beta virt. eigenvalues --    0.02043   0.11115   0.21877   0.25081   0.34210
  Beta virt. eigenvalues --    0.44837   0.68900

 Mulliken charges and spin densities:
               1          2
     1  H   -0.046163   0.455932
     2  H   -0.038572   0.915426
     3  H    0.055192   0.487022
     4  H    0.067898  -0.230377
     5  H   -0.038355   0.371996
     6  H   -0.038355   0.371996
     7  H    0.067898  -0.230377
     8  H    0.055192   0.487022
     9  H   -0.038572   0.915426
    10  H   -0.046163   0.455932
 Sum of Mulliken charges =  -0.00000   4.00000

 Dipole moment (field-independent basis, Debye):
    X=              0.0000    Y=              0.0000    Z=             -0.0000  Tot=              0.0000
 Quadrupole moment (field-independent basis, Debye-Ang):
   XX=            -15.4407   YY=            -17.9319   ZZ=            -12.6115
   XY=              3.2321   XZ=              0.0000   YZ=             -0.0000

 Normal termination of Gaussian 09 at Thu Feb 23 12:43:54 2017.
