 Gaussian 09, Revision E.01,
 Gaussian 09:  ES64L-G09RevE.01 30-Nov-2015

 ----------------------------------------------------------------------
 #uhf/gen scf(tight,novaracc,noincfock,fulldiag, ) stable(crhf) guess=r
 ead geom=nocrowd test
 ----------------------------------------------------------------------

 hf stability analysis of h10 triangular lattice, y= 0.7022134528066417
 1 alpha= 40.500000000000000
 ----------------------------------------------------------------------
 Symbolic Z-matrix:
 Charge =  0 Multiplicity = 5

                         Standard orientation:
 ---------------------------------------------------------------------
 Center     Atomic      Atomic             Coordinates (Angstroms)
 Number     Number       Type             X           Y           Z
 ---------------------------------------------------------------------
      1          1           0        2.135869    0.202335   -0.000000
      2          1           0        2.135869   -0.878912    0.000000
      3          1           0        1.067935    0.371479   -0.000000
      4          1           0        1.067935   -0.709767    0.000000
      5          1           0       -0.000000    0.540623   -0.000000
      6          1           0       -0.000000   -0.540623   -0.000000
      7          1           0       -1.067935    0.709767    0.000000
      8          1           0       -1.067935   -0.371479   -0.000000
      9          1           0       -2.135869    0.878912    0.000000
     10          1           0       -2.135869   -0.202335    0.000000
 ---------------------------------------------------------------------

 SCF Done:  E(UHF) =  -4.71229778144     A.U. after   11 cycles
 E2 =    -0.5669349452D-01 EUMP2 =    -0.47689912759567D+01

 The electronic state is 5-BU.
 Alpha  occ. eigenvalues --   -0.96504  -0.83631  -0.63487  -0.57835  -0.42405
 Alpha  occ. eigenvalues --   -0.36202  -0.17608
 Alpha virt. eigenvalues --    0.23442   0.36782   0.74980
  Beta  occ. eigenvalues --   -0.79546  -0.64730  -0.42957
  Beta virt. eigenvalues --   -0.05646   0.06362   0.09464   0.32307   0.40019
  Beta virt. eigenvalues --    0.63252   0.93013

 Mulliken charges and spin densities:
               1          2
     1  H   -0.075777   0.555131
     2  H   -0.046255   0.473127
     3  H    0.091764   0.407175
     4  H    0.053509   0.277437
     5  H   -0.023240   0.287130
     6  H   -0.023240   0.287130
     7  H    0.053509   0.277437
     8  H    0.091764   0.407175
     9  H   -0.046255   0.473127
    10  H   -0.075777   0.555131
 Sum of Mulliken charges =  -0.00000   4.00000

 Dipole moment (field-independent basis, Debye):
    X=              0.0000    Y=             -0.0000    Z=             -0.0000  Tot=              0.0000
 Quadrupole moment (field-independent basis, Debye-Ang):
   XX=            -20.0169   YY=            -14.6099   ZZ=            -12.5334
   XY=              0.8017   XZ=             -0.0000   YZ=              0.0000

 Normal termination of Gaussian 09 at Thu Feb 23 12:47:09 2017.
