 Gaussian 09, Revision E.01,
 Gaussian 09:  ES64L-G09RevE.01 30-Nov-2015

 ----------------------------------------------------------------------
 #uhf/gen scf(tight,novaracc,noincfock,fulldiag, ) stable(crhf) guess=r
 ead geom=nocrowd test
 ----------------------------------------------------------------------

 hf stability analysis of h10 triangular lattice, y= 0.3687111964088696
 8 alpha= 13.250000000000000
 ----------------------------------------------------------------------
 Symbolic Z-matrix:
 Charge =  0 Multiplicity = 5

                         Standard orientation:
 ---------------------------------------------------------------------
 Center     Atomic      Atomic             Coordinates (Angstroms)
 Number     Number       Type             X           Y           Z
 ---------------------------------------------------------------------
      1          1           0        1.435583   -2.074992   -0.000000
      2          1           0        1.435583   -3.683677   -0.000000
      3          1           0        0.717792   -0.635325   -0.000000
      4          1           0        0.717792   -2.244010   -0.000000
      5          1           0        0.000000    0.804342    0.000000
      6          1           0       -0.000000   -0.804342    0.000000
      7          1           0       -0.717792    2.244010    0.000000
      8          1           0       -0.717792    0.635325    0.000000
      9          1           0       -1.435583    3.683677    0.000000
     10          1           0       -1.435583    2.074992    0.000000
 ---------------------------------------------------------------------

 SCF Done:  E(UHF) =  -4.81114949749     A.U. after    9 cycles
 E2 =    -0.4825836056D-01 EUMP2 =    -0.48594078580534D+01

 The electronic state is 5-BU.
 Alpha  occ. eigenvalues --   -0.83682  -0.75289  -0.66895  -0.59241  -0.44713
 Alpha  occ. eigenvalues --   -0.42999  -0.13068
 Alpha virt. eigenvalues --    0.24858   0.43159   0.54794
  Beta  occ. eigenvalues --   -0.68934  -0.65529  -0.52111
  Beta virt. eigenvalues --   -0.10410   0.17337   0.18272   0.28045   0.36028
  Beta virt. eigenvalues --    0.52323   0.71442

 Mulliken charges and spin densities:
               1          2
     1  H    0.000427   0.062944
     2  H   -0.004683   0.994820
     3  H    0.030473   0.474040
     4  H   -0.012772   0.031660
     5  H   -0.013445   0.436535
     6  H   -0.013445   0.436535
     7  H   -0.012772   0.031660
     8  H    0.030473   0.474040
     9  H   -0.004683   0.994820
    10  H    0.000427   0.062944
 Sum of Mulliken charges =  -0.00000   4.00000

 Dipole moment (field-independent basis, Debye):
    X=             -0.0000    Y=             -0.0000    Z=              0.0000  Tot=              0.0000
 Quadrupole moment (field-independent basis, Debye-Ang):
   XX=            -13.4228   YY=            -17.0872   ZZ=            -12.9145
   XY=              0.9304   XZ=              0.0000   YZ=             -0.0000

 Normal termination of Gaussian 09 at Thu Feb 23 12:42:37 2017.
