 Gaussian 09, Revision E.01,
 Gaussian 09:  ES64L-G09RevE.01 30-Nov-2015

 ----------------------------------------------------------------------
 #uhf/gen scf(tight,novaracc,noincfock,fulldiag, ) stable(crhf) guess=r
 ead geom=nocrowd test
 ----------------------------------------------------------------------

 hf stability analysis of h10 triangular lattice, y= 0.9165423628436679
 7 alpha= 55.500000000000000
 ----------------------------------------------------------------------
 Symbolic Z-matrix:
 Charge =  0 Multiplicity = 5

                         Standard orientation:
 ---------------------------------------------------------------------
 Center     Atomic      Atomic             Coordinates (Angstroms)
 Number     Number       Type             X           Y           Z
 ---------------------------------------------------------------------
      1          1           0        2.076541    1.353179    0.000000
      2          1           0        2.076541    0.241040    0.000000
      3          1           0        1.038271    0.954624    0.000000
      4          1           0        1.038271   -0.157514    0.000000
      5          1           0       -0.000000    0.556069   -0.000000
      6          1           0       -0.000000   -0.556069    0.000000
      7          1           0       -1.038271    0.157514    0.000000
      8          1           0       -1.038271   -0.954624    0.000000
      9          1           0       -2.076541   -0.241040    0.000000
     10          1           0       -2.076541   -1.353179    0.000000
 ---------------------------------------------------------------------

 SCF Done:  E(UHF) =  -4.71111001445     A.U. after   11 cycles
 E2 =    -0.5650293894D-01 EUMP2 =    -0.47676129533847D+01

 The electronic state is 5-BU.
 Alpha  occ. eigenvalues --   -0.95195  -0.82584  -0.63825  -0.54856  -0.39956
 Alpha  occ. eigenvalues --   -0.37685  -0.16365
 Alpha virt. eigenvalues --    0.20550   0.37066   0.61970
  Beta  occ. eigenvalues --   -0.78641  -0.64706  -0.43610
  Beta virt. eigenvalues --   -0.02937   0.04503   0.12395   0.35285   0.35361
  Beta virt. eigenvalues --    0.64518   0.77774

 Mulliken charges and spin densities:
               1          2
     1  H   -0.009229   0.477168
     2  H   -0.091383   0.628711
     3  H    0.027264   0.137387
     4  H    0.094620   0.454643
     5  H   -0.021273   0.302091
     6  H   -0.021273   0.302091
     7  H    0.094620   0.454643
     8  H    0.027264   0.137387
     9  H   -0.091383   0.628711
    10  H   -0.009229   0.477168
 Sum of Mulliken charges =   0.00000   4.00000

 Dipole moment (field-independent basis, Debye):
    X=              0.0000    Y=              0.0000    Z=             -0.0000  Tot=              0.0000
 Quadrupole moment (field-independent basis, Debye-Ang):
   XX=            -18.6694   YY=            -14.9470   ZZ=            -12.5695
   XY=             -1.0893   XZ=              0.0000   YZ=              0.0000

 Normal termination of Gaussian 09 at Thu Feb 23 12:49:42 2017.
