 Gaussian 09, Revision E.01,
 Gaussian 09:  ES64L-G09RevE.01 30-Nov-2015

 ----------------------------------------------------------------------
 #uhf/gen scf(tight,novaracc,noincfock,fulldiag, ) stable(crhf) guess=r
 ead geom=nocrowd test
 ----------------------------------------------------------------------

 hf stability analysis of h10 triangular lattice, y= 0.7241740692380285
 2 alpha= 42.250000000000000
 ----------------------------------------------------------------------
 Symbolic Z-matrix:
 Charge =  0 Multiplicity = 5

                         Standard orientation:
 ---------------------------------------------------------------------
 Center     Atomic      Atomic             Coordinates (Angstroms)
 Number     Number       Type             X           Y           Z
 ---------------------------------------------------------------------
      1          1           0        2.144187    0.332064   -0.000000
      2          1           0        2.144187   -0.744988   -0.000000
      3          1           0        1.072094    0.435295   -0.000000
      4          1           0        1.072094   -0.641757   -0.000000
      5          1           0        0.000000    0.538526   -0.000000
      6          1           0       -0.000000   -0.538526   -0.000000
      7          1           0       -1.072094    0.641757   -0.000000
      8          1           0       -1.072094   -0.435295   -0.000000
      9          1           0       -2.144187    0.744988   -0.000000
     10          1           0       -2.144187   -0.332064   -0.000000
 ---------------------------------------------------------------------

 SCF Done:  E(UHF) =  -4.71182300952     A.U. after   11 cycles
 E2 =    -0.5665935594D-01 EUMP2 =    -0.47684823654665D+01

 The electronic state is 5-BU.
 Alpha  occ. eigenvalues --   -0.96683  -0.83776  -0.63432  -0.58249  -0.42758
 Alpha  occ. eigenvalues --   -0.36011  -0.17779
 Alpha virt. eigenvalues --    0.23809   0.36819   0.77115
  Beta  occ. eigenvalues --   -0.79681  -0.64742  -0.42848
  Beta virt. eigenvalues --   -0.06028   0.06686   0.09032   0.31841   0.40690
  Beta virt. eigenvalues --    0.63102   0.95487

 Mulliken charges and spin densities:
               1          2
     1  H   -0.071790   0.534920
     2  H   -0.054432   0.483196
     3  H    0.087189   0.388336
     4  H    0.062929   0.309205
     5  H   -0.023896   0.284342
     6  H   -0.023896   0.284342
     7  H    0.062929   0.309205
     8  H    0.087189   0.388336
     9  H   -0.054432   0.483196
    10  H   -0.071790   0.534920
 Sum of Mulliken charges =  -0.00000   4.00000

 Dipole moment (field-independent basis, Debye):
    X=             -0.0000    Y=             -0.0000    Z=              0.0000  Tot=              0.0000
 Quadrupole moment (field-independent basis, Debye-Ang):
   XX=            -20.2623   YY=            -14.5088   ZZ=            -12.5280
   XY=              0.5271   XZ=             -0.0000   YZ=              0.0000

 Normal termination of Gaussian 09 at Thu Feb 23 12:47:27 2017.
