 Gaussian 09, Revision E.01,
 Gaussian 09:  ES64L-G09RevE.01 30-Nov-2015

 ----------------------------------------------------------------------
 #uhf/gen scf(tight,novaracc,noincfock,fulldiag, ) stable(crhf) guess=r
 ead geom=nocrowd test
 ----------------------------------------------------------------------

 hf stability analysis of h10 triangular lattice, y= 0.4860043606964989
 9 alpha= 22.250000000000000
 ----------------------------------------------------------------------
 Symbolic Z-matrix:
 Charge =  0 Multiplicity = 5

                         Standard orientation:
 ---------------------------------------------------------------------
 Center     Atomic      Atomic             Coordinates (Angstroms)
 Number     Number       Type             X           Y           Z
 ---------------------------------------------------------------------
      1          1           0        1.799267   -1.189186   -0.000000
      2          1           0        1.799267   -2.472709   -0.000000
      3          1           0        0.899633   -0.273712   -0.000000
      4          1           0        0.899633   -1.557235   -0.000000
      5          1           0        0.000000    0.641762    0.000000
      6          1           0       -0.000000   -0.641762    0.000000
      7          1           0       -0.899633    1.557235    0.000000
      8          1           0       -0.899633    0.273712    0.000000
      9          1           0       -1.799267    2.472709    0.000000
     10          1           0       -1.799267    1.189186    0.000000
 ---------------------------------------------------------------------

 SCF Done:  E(UHF) =  -4.73736997890     A.U. after   10 cycles
 E2 =    -0.4647542302D-01 EUMP2 =    -0.47838454019258D+01

 The electronic state is 5-BU.
 Alpha  occ. eigenvalues --   -0.88983  -0.77920  -0.65525  -0.50625  -0.34906
 Alpha  occ. eigenvalues --   -0.34611  -0.20020
 Alpha virt. eigenvalues --    0.12746   0.35105   0.46226
  Beta  occ. eigenvalues --   -0.74552  -0.65945  -0.46333
  Beta virt. eigenvalues --    0.02591   0.09669   0.21404   0.25018   0.36554
  Beta virt. eigenvalues --    0.44384   0.68820

 Mulliken charges and spin densities:
               1          2
     1  H   -0.065824   0.552200
     2  H   -0.032968   0.888420
     3  H    0.059483   0.495223
     4  H    0.078976  -0.296782
     5  H   -0.039667   0.360939
     6  H   -0.039667   0.360939
     7  H    0.078976  -0.296782
     8  H    0.059483   0.495223
     9  H   -0.032968   0.888420
    10  H   -0.065824   0.552200
 Sum of Mulliken charges =  -0.00000   4.00000

 Dipole moment (field-independent basis, Debye):
    X=             -0.0000    Y=              0.0000    Z=              0.0000  Tot=              0.0000
 Quadrupole moment (field-independent basis, Debye-Ang):
   XX=            -16.0146   YY=            -17.3197   ZZ=            -12.5955
   XY=              3.0453   XZ=              0.0000   YZ=             -0.0000

 Normal termination of Gaussian 09 at Thu Feb 23 12:44:04 2017.
