 Gaussian 09, Revision E.01,
 Gaussian 09:  ES64L-G09RevE.01 30-Nov-2015

 ----------------------------------------------------------------------
 #uhf/gen scf(tight,novaracc,noincfock,fulldiag, ) stable(crhf) guess=r
 ead geom=nocrowd test
 ----------------------------------------------------------------------

 hf stability analysis of h10 triangular lattice, y= 0.2893299282551661
 8 alpha= 8.2500000000000000
 ----------------------------------------------------------------------
 Symbolic Z-matrix:
 Charge =  0 Multiplicity = 5

                         Standard orientation:
 ---------------------------------------------------------------------
 Center     Atomic      Atomic             Coordinates (Angstroms)
 Number     Number       Type             X           Y           Z
 ---------------------------------------------------------------------
      1          1           0        1.145343   -2.858443   -0.000000
      2          1           0        1.145343   -4.874783   -0.000000
      3          1           0        0.572672   -0.925137   -0.000000
      4          1           0        0.572672   -2.941477   -0.000000
      5          1           0        0.000000    1.008170   -0.000000
      6          1           0       -0.000000   -1.008170   -0.000000
      7          1           0       -0.572672    2.941477    0.000000
      8          1           0       -0.572672    0.925137   -0.000000
      9          1           0       -1.145343    4.874783    0.000000
     10          1           0       -1.145343    2.858443   -0.000000
 ---------------------------------------------------------------------

 SCF Done:  E(UHF) =  -4.41394581073     A.U. after    9 cycles
 E2 =    -0.5932027272D-01 EUMP2 =    -0.44732660834491D+01

 The electronic state is 5-BU.
 Alpha  occ. eigenvalues --   -0.81921  -0.76377  -0.69572  -0.68281  -0.48984
 Alpha  occ. eigenvalues --   -0.48933   0.04151
 Alpha virt. eigenvalues --    0.38024   0.54502   0.58770
  Beta  occ. eigenvalues --   -0.69118  -0.68652  -0.55661
  Beta virt. eigenvalues --   -0.23758   0.14099   0.14150   0.45342   0.50245
  Beta virt. eigenvalues --    0.61242   0.74268

 Mulliken charges and spin densities:
               1          2
     1  H   -0.006869   0.013853
     2  H    0.004761   1.004743
     3  H    0.017401   0.492694
     4  H   -0.017591   0.014401
     5  H    0.002297   0.474309
     6  H    0.002297   0.474309
     7  H   -0.017591   0.014401
     8  H    0.017401   0.492694
     9  H    0.004761   1.004743
    10  H   -0.006869   0.013853
 Sum of Mulliken charges =  -0.00000   4.00000

 Dipole moment (field-independent basis, Debye):
    X=             -0.0000    Y=             -0.0000    Z=             -0.0000  Tot=              0.0000
 Quadrupole moment (field-independent basis, Debye-Ang):
   XX=            -13.9211   YY=            -15.2049   ZZ=            -13.1299
   XY=              0.0874   XZ=             -0.0000   YZ=             -0.0000

 Normal termination of Gaussian 09 at Thu Feb 23 12:41:50 2017.
