 Gaussian 09, Revision E.01,
 Gaussian 09:  ES64L-G09RevE.01 30-Nov-2015

 ----------------------------------------------------------------------
 #uhf/gen scf(tight,novaracc,noincfock,fulldiag, ) stable(crhf) guess=r
 ead geom=nocrowd test
 ----------------------------------------------------------------------

 hf stability analysis of h10 triangular lattice, y= 0.6240414150047446
 4 alpha= 34.000000000000000
 ----------------------------------------------------------------------
 Symbolic Z-matrix:
 Charge =  0 Multiplicity = 5

                         Standard orientation:
 ---------------------------------------------------------------------
 Center     Atomic      Atomic             Coordinates (Angstroms)
 Number     Number       Type             X           Y           Z
 ---------------------------------------------------------------------
      1          1           0        2.069415   -0.278114   -0.000000
      2          1           0        2.069415   -1.394082   -0.000000
      3          1           0        1.034708    0.139935   -0.000000
      4          1           0        1.034708   -0.976033   -0.000000
      5          1           0        0.000000    0.557984   -0.000000
      6          1           0       -0.000000   -0.557984   -0.000000
      7          1           0       -1.034708    0.976033   -0.000000
      8          1           0       -1.034708   -0.139935   -0.000000
      9          1           0       -2.069415    1.394082   -0.000000
     10          1           0       -2.069415    0.278114   -0.000000
 ---------------------------------------------------------------------

 SCF Done:  E(UHF) =  -4.71051437077     A.U. after   10 cycles
 E2 =    -0.5640834770D-01 EUMP2 =    -0.47669227184759D+01

 The electronic state is 5-BU.
 Alpha  occ. eigenvalues --   -0.95034  -0.82456  -0.63864  -0.54495  -0.39671
 Alpha  occ. eigenvalues --   -0.37875  -0.16225
 Alpha virt. eigenvalues --    0.20197   0.37142   0.60634
  Beta  occ. eigenvalues --   -0.78541  -0.64715  -0.43677
  Beta virt. eigenvalues --   -0.02616   0.04331   0.12731   0.34825   0.35610
  Beta virt. eigenvalues --    0.64683   0.76174

 Mulliken charges and spin densities:
               1          2
     1  H   -0.093047   0.635131
     2  H   -0.005903   0.481287
     3  H    0.094095   0.457837
     4  H    0.026159   0.122313
     5  H   -0.021304   0.303433
     6  H   -0.021304   0.303433
     7  H    0.026159   0.122313
     8  H    0.094095   0.457837
     9  H   -0.005903   0.481287
    10  H   -0.093047   0.635131
 Sum of Mulliken charges =  -0.00000   4.00000

 Dipole moment (field-independent basis, Debye):
    X=             -0.0000    Y=             -0.0000    Z=              0.0000  Tot=              0.0000
 Quadrupole moment (field-independent basis, Debye-Ang):
   XX=            -18.5481   YY=            -14.9535   ZZ=            -12.5734
   XY=              1.0681   XZ=             -0.0000   YZ=              0.0000

 Normal termination of Gaussian 09 at Thu Feb 23 12:46:01 2017.
