 Gaussian 09, Revision E.01,
 Gaussian 09:  ES64L-G09RevE.01 30-Nov-2015

 ----------------------------------------------------------------------
 #uhf/gen scf(tight,novaracc,noincfock,fulldiag, ) stable(crhf) guess=r
 ead geom=nocrowd test
 ----------------------------------------------------------------------

 hf stability analysis of h10 triangular lattice, y= 0.4829747999860826
 7 alpha= 22.000000000000000
 ----------------------------------------------------------------------
 Symbolic Z-matrix:
 Charge =  0 Multiplicity = 5

                         Standard orientation:
 ---------------------------------------------------------------------
 Center     Atomic      Atomic             Coordinates (Angstroms)
 Number     Number       Type             X           Y           Z
 ---------------------------------------------------------------------
      1          1           0        1.791226   -1.210226   -0.000000
      2          1           0        1.791226   -2.499511   -0.000000
      3          1           0        0.895613   -0.282792   -0.000000
      4          1           0        0.895613   -1.572077   -0.000000
      5          1           0        0.000000    0.644643    0.000000
      6          1           0       -0.000000   -0.644643    0.000000
      7          1           0       -0.895613    1.572077   -0.000000
      8          1           0       -0.895613    0.282792   -0.000000
      9          1           0       -1.791226    2.499511   -0.000000
     10          1           0       -1.791226    1.210226   -0.000000
 ---------------------------------------------------------------------

 SCF Done:  E(UHF) =  -4.74215941991     A.U. after   10 cycles
 E2 =    -0.4699231502D-01 EUMP2 =    -0.47891517349300D+01

 The electronic state is 5-BU.
 Alpha  occ. eigenvalues --   -0.88820  -0.77821  -0.65535  -0.50819  -0.35005
 Alpha  occ. eigenvalues --   -0.34117  -0.20458
 Alpha virt. eigenvalues --    0.12725   0.34934   0.46630
  Beta  occ. eigenvalues --   -0.74337  -0.65849  -0.46393
  Beta virt. eigenvalues --    0.02479   0.10019   0.21538   0.25013   0.35969
  Beta virt. eigenvalues --    0.44476   0.68840

 Mulliken charges and spin densities:
               1          2
     1  H   -0.060923   0.529533
     2  H   -0.034762   0.895890
     3  H    0.058380   0.493283
     4  H    0.076764  -0.282403
     5  H   -0.039458   0.363697
     6  H   -0.039458   0.363697
     7  H    0.076764  -0.282403
     8  H    0.058380   0.493283
     9  H   -0.034762   0.895890
    10  H   -0.060923   0.529533
 Sum of Mulliken charges =   0.00000   4.00000

 Dipole moment (field-independent basis, Debye):
    X=             -0.0000    Y=             -0.0000    Z=              0.0000  Tot=              0.0000
 Quadrupole moment (field-independent basis, Debye-Ang):
   XX=            -15.8752   YY=            -17.4836   ZZ=            -12.5987
   XY=              3.1104   XZ=             -0.0000   YZ=              0.0000

 Normal termination of Gaussian 09 at Thu Feb 23 12:44:02 2017.
