 Gaussian 09, Revision E.01,
 Gaussian 09:  ES64L-G09RevE.01 30-Nov-2015

 ----------------------------------------------------------------------
 #uhf/gen scf(tight,novaracc,noincfock,fulldiag, ) stable(crhf) guess=r
 ead geom=nocrowd test
 ----------------------------------------------------------------------

 hf stability analysis of h10 triangular lattice, y= 0.3933198989211816
 9 alpha= 15.000000000000000
 ----------------------------------------------------------------------
 Symbolic Z-matrix:
 Charge =  0 Multiplicity = 5

                         Standard orientation:
 ---------------------------------------------------------------------
 Center     Atomic      Atomic             Coordinates (Angstroms)
 Number     Number       Type             X           Y           Z
 ---------------------------------------------------------------------
      1          1           0        1.519671   -1.872312    0.000000
      2          1           0        1.519671   -3.391984    0.000000
      3          1           0        0.759836   -0.556238    0.000000
      4          1           0        0.759836   -2.075910    0.000000
      5          1           0       -0.000000    0.759836    0.000000
      6          1           0       -0.000000   -0.759836   -0.000000
      7          1           0       -0.759836    2.075910    0.000000
      8          1           0       -0.759836    0.556238    0.000000
      9          1           0       -1.519671    3.391984    0.000000
     10          1           0       -1.519671    1.872312    0.000000
 ---------------------------------------------------------------------

 SCF Done:  E(UHF) =  -4.84139902351     A.U. after    9 cycles
 E2 =    -0.4836031570D-01 EUMP2 =    -0.48897593392180D+01

 The electronic state is 5-BU.
 Alpha  occ. eigenvalues --   -0.84599  -0.75651  -0.66425  -0.56880  -0.42591
 Alpha  occ. eigenvalues --   -0.39284  -0.17561
 Alpha virt. eigenvalues --    0.21104   0.40275   0.53826
  Beta  occ. eigenvalues --   -0.69680  -0.65096  -0.50567
  Beta virt. eigenvalues --   -0.06522   0.18788   0.20275   0.24132   0.32483
  Beta virt. eigenvalues --    0.50164   0.70745

 Mulliken charges and spin densities:
               1          2
     1  H    0.001820   0.093690
     2  H   -0.012941   0.985817
     3  H    0.034938   0.469941
     4  H   -0.004397   0.026586
     5  H   -0.019421   0.423965
     6  H   -0.019421   0.423965
     7  H   -0.004397   0.026586
     8  H    0.034938   0.469941
     9  H   -0.012941   0.985817
    10  H    0.001820   0.093690
 Sum of Mulliken charges =  -0.00000   4.00000

 Dipole moment (field-independent basis, Debye):
    X=             -0.0000    Y=              0.0000    Z=             -0.0000  Tot=              0.0000
 Quadrupole moment (field-independent basis, Debye-Ang):
   XX=            -13.4484   YY=            -17.7683   ZZ=            -12.8347
   XY=              1.4840   XZ=              0.0000   YZ=             -0.0000

 Normal termination of Gaussian 09 at Thu Feb 23 12:42:54 2017.
