 Gaussian 09, Revision E.01,
 Gaussian 09:  ES64L-G09RevE.01 30-Nov-2015

 ----------------------------------------------------------------------
 #uhf/gen scf(tight,novaracc,noincfock,fulldiag, ) stable(crhf) guess=r
 ead geom=nocrowd test
 ----------------------------------------------------------------------

 hf stability analysis of h10 triangular lattice, y= 0.7147002101552084
 6 alpha= 41.500000000000000
 ----------------------------------------------------------------------
 Symbolic Z-matrix:
 Charge =  0 Multiplicity = 5

                         Standard orientation:
 ---------------------------------------------------------------------
 Center     Atomic      Atomic             Coordinates (Angstroms)
 Number     Number       Type             X           Y           Z
 ---------------------------------------------------------------------
      1          1           0        2.141115    0.276403    0.000000
      2          1           0        2.141115   -0.802195    0.000000
      3          1           0        1.070558    0.407851    0.000000
      4          1           0        1.070558   -0.670747    0.000000
      5          1           0       -0.000000    0.539299    0.000000
      6          1           0       -0.000000   -0.539299    0.000000
      7          1           0       -1.070558    0.670747    0.000000
      8          1           0       -1.070558   -0.407851    0.000000
      9          1           0       -2.141115    0.802195    0.000000
     10          1           0       -2.141115   -0.276403    0.000000
 ---------------------------------------------------------------------

 SCF Done:  E(UHF) =  -4.71201907755     A.U. after   11 cycles
 E2 =    -0.5667323324D-01 EUMP2 =    -0.47686923107961D+01

 The electronic state is 5-BU.
 Alpha  occ. eigenvalues --   -0.96617  -0.83723  -0.63453  -0.58096  -0.42627
 Alpha  occ. eigenvalues --   -0.36081  -0.17716
 Alpha virt. eigenvalues --    0.23676   0.36802   0.76317
  Beta  occ. eigenvalues --   -0.79631  -0.64737  -0.42889
  Beta virt. eigenvalues --   -0.05887   0.06564   0.09192   0.32015   0.40442
  Beta virt. eigenvalues --    0.63156   0.94561

 Mulliken charges and spin densities:
               1          2
     1  H   -0.073529   0.543461
     2  H   -0.051107   0.478398
     3  H    0.089367   0.396758
     4  H    0.058910   0.295987
     5  H   -0.023641   0.285396
     6  H   -0.023641   0.285396
     7  H    0.058910   0.295987
     8  H    0.089367   0.396758
     9  H   -0.051107   0.478398
    10  H   -0.073529   0.543461
 Sum of Mulliken charges =   0.00000   4.00000

 Dipole moment (field-independent basis, Debye):
    X=             -0.0000    Y=             -0.0000    Z=              0.0000  Tot=              0.0000
 Quadrupole moment (field-independent basis, Debye-Ang):
   XX=            -20.1698   YY=            -14.5481   ZZ=            -12.5300
   XY=              0.6530   XZ=              0.0000   YZ=              0.0000

 Normal termination of Gaussian 09 at Thu Feb 23 12:47:19 2017.
