 Gaussian 09, Revision E.01,
 Gaussian 09:  ES64L-G09RevE.01 30-Nov-2015

 ----------------------------------------------------------------------
 #uhf/gen scf(tight,novaracc,noincfock,fulldiag, ) stable(crhf) guess=r
 ead geom=nocrowd test
 ----------------------------------------------------------------------

 hf stability analysis of h10 triangular lattice, y= 0.5918992783615676
 4 alpha= 31.250000000000000
 ----------------------------------------------------------------------
 Symbolic Z-matrix:
 Charge =  0 Multiplicity = 5

                         Standard orientation:
 ---------------------------------------------------------------------
 Center     Atomic      Atomic             Coordinates (Angstroms)
 Number     Number       Type             X           Y           Z
 ---------------------------------------------------------------------
      1          1           0        2.024087   -0.483193    0.000000
      2          1           0        2.024087   -1.624153    0.000000
      3          1           0        1.012043    0.043643    0.000000
      4          1           0        1.012043   -1.097316    0.000000
      5          1           0        0.000000    0.570480    0.000000
      6          1           0       -0.000000   -0.570480    0.000000
      7          1           0       -1.012043    1.097316    0.000000
      8          1           0       -1.012043   -0.043643    0.000000
      9          1           0       -2.024087    1.624153    0.000000
     10          1           0       -2.024087    0.483193    0.000000
 ---------------------------------------------------------------------

 SCF Done:  E(UHF) =  -4.70528114041     A.U. after   10 cycles
 E2 =    -0.5522601325D-01 EUMP2 =    -0.47605071536532D+01

 The electronic state is 5-BU.
 Alpha  occ. eigenvalues --   -0.93999  -0.81636  -0.64130  -0.52195  -0.39120
 Alpha  occ. eigenvalues --   -0.37932  -0.15472
 Alpha virt. eigenvalues --    0.18057   0.37761   0.53103
  Beta  occ. eigenvalues --   -0.77970  -0.64870  -0.44077
  Beta virt. eigenvalues --   -0.00629   0.03525   0.14792   0.31599   0.37545
  Beta virt. eigenvalues --    0.65743   0.66869

 Mulliken charges and spin densities:
               1          2
     1  H   -0.103225   0.672019
     2  H    0.010391   0.521631
     3  H    0.089729   0.474728
     4  H    0.025825   0.021241
     5  H   -0.022721   0.310382
     6  H   -0.022721   0.310382
     7  H    0.025825   0.021241
     8  H    0.089729   0.474728
     9  H    0.010391   0.521631
    10  H   -0.103225   0.672019
 Sum of Mulliken charges =   0.00000   4.00000

 Dipole moment (field-independent basis, Debye):
    X=             -0.0000    Y=              0.0000    Z=             -0.0000  Tot=              0.0000
 Quadrupole moment (field-independent basis, Debye-Ang):
   XX=            -17.9471   YY=            -14.9039   ZZ=            -12.5943
   XY=              0.9064   XZ=             -0.0000   YZ=             -0.0000

 Normal termination of Gaussian 09 at Thu Feb 23 12:45:34 2017.
