 Gaussian 09, Revision E.01,
 Gaussian 09:  ES64L-G09RevE.01 30-Nov-2015

 ----------------------------------------------------------------------
 #uhf/gen scf(tight,novaracc,noincfock,fulldiag, ) stable(crhf) guess=r
 ead geom=nocrowd test
 ----------------------------------------------------------------------

 hf stability analysis of h10 triangular lattice, y= 0.5394520384962004
 9 alpha= 26.750000000000000
 ----------------------------------------------------------------------
 Symbolic Z-matrix:
 Charge =  0 Multiplicity = 5

                         Standard orientation:
 ---------------------------------------------------------------------
 Center     Atomic      Atomic             Coordinates (Angstroms)
 Number     Number       Type             X           Y           Z
 ---------------------------------------------------------------------
      1          1           0        1.926877   -0.826554    0.000000
      2          1           0        1.926877   -2.025074    0.000000
      3          1           0        0.963439   -0.113647    0.000000
      4          1           0        0.963439   -1.312167    0.000000
      5          1           0       -0.000000    0.599260   -0.000000
      6          1           0       -0.000000   -0.599260    0.000000
      7          1           0       -0.963439    1.312167   -0.000000
      8          1           0       -0.963439    0.113647   -0.000000
      9          1           0       -1.926877    2.025074   -0.000000
     10          1           0       -1.926877    0.826554   -0.000000
 ---------------------------------------------------------------------

 SCF Done:  E(UHF) =  -4.69678559749     A.U. after   10 cycles
 E2 =    -0.4821798793D-01 EUMP2 =    -0.47450035854261D+01

 The electronic state is 5-BU.
 Alpha  occ. eigenvalues --   -0.91750  -0.79861  -0.64902  -0.48447  -0.40743
 Alpha  occ. eigenvalues --   -0.35188  -0.15458
 Alpha virt. eigenvalues --    0.14670   0.40160   0.41924
  Beta  occ. eigenvalues --   -0.77030  -0.65897  -0.45070
  Beta virt. eigenvalues --    0.02401   0.04475   0.18509   0.26600   0.40715
  Beta virt. eigenvalues --    0.51095   0.67749

 Mulliken charges and spin densities:
               1          2
     1  H   -0.114063   0.722184
     2  H    0.010388   0.687851
     3  H    0.078586   0.499952
     4  H    0.057203  -0.233818
     5  H   -0.032114   0.323831
     6  H   -0.032114   0.323831
     7  H    0.057203  -0.233818
     8  H    0.078586   0.499952
     9  H    0.010388   0.687851
    10  H   -0.114063   0.722184
 Sum of Mulliken charges =  -0.00000   4.00000

 Dipole moment (field-independent basis, Debye):
    X=              0.0000    Y=              0.0000    Z=             -0.0000  Tot=              0.0000
 Quadrupole moment (field-independent basis, Debye-Ang):
   XX=            -17.3723   YY=            -15.0517   ZZ=            -12.6008
   XY=              1.2633   XZ=             -0.0000   YZ=              0.0000

 Normal termination of Gaussian 09 at Thu Feb 23 12:44:49 2017.
