 Gaussian 09, Revision E.01,
 Gaussian 09:  ES64L-G09RevE.01 30-Nov-2015

 ----------------------------------------------------------------------
 #uhf/gen scf(tight,novaracc,noincfock,fulldiag, ) stable(crhf) guess=r
 ead geom=nocrowd test
 ----------------------------------------------------------------------

 hf stability analysis of h10 triangular lattice, y= 1.7234297938777567
  alpha= 79.000000000000000
 ----------------------------------------------------------------------
 Symbolic Z-matrix:
 Charge =  0 Multiplicity = 5

                         Standard orientation:
 ---------------------------------------------------------------------
 Center     Atomic      Atomic             Coordinates (Angstroms)
 Number     Number       Type             X           Y           Z
 ---------------------------------------------------------------------
      1          1           0        1.315384    4.133532   -0.000000
      2          1           0        1.315384    2.377845   -0.000000
      3          1           0        0.657692    2.505688   -0.000000
      4          1           0        0.657692    0.750001   -0.000000
      5          1           0        0.000000    0.877843   -0.000000
      6          1           0       -0.000000   -0.877843   -0.000000
      7          1           0       -0.657692   -0.750001   -0.000000
      8          1           0       -0.657692   -2.505688   -0.000000
      9          1           0       -1.315384   -2.377845   -0.000000
     10          1           0       -1.315384   -4.133532   -0.000000
 ---------------------------------------------------------------------

 SCF Done:  E(UHF) =  -4.70561914746     A.U. after    9 cycles
 E2 =    -0.5031309384D-01 EUMP2 =    -0.47559322413048D+01

 The electronic state is 5-BU.
 Alpha  occ. eigenvalues --   -0.82683  -0.75181  -0.67771  -0.63107  -0.47037
 Alpha  occ. eigenvalues --   -0.46530  -0.06342
 Alpha virt. eigenvalues --    0.30336   0.47576   0.56093
  Beta  occ. eigenvalues --   -0.68374  -0.66502  -0.54087
  Beta virt. eigenvalues --   -0.16158   0.15681   0.16002   0.34685   0.41532
  Beta virt. eigenvalues --    0.55700   0.72429

 Mulliken charges and spin densities:
               1          2
     1  H    0.002259   1.002123
     2  H   -0.003377   0.035602
     3  H   -0.018299   0.026658
     4  H    0.025019   0.481988
     5  H   -0.005602   0.453630
     6  H   -0.005602   0.453630
     7  H    0.025019   0.481988
     8  H   -0.018299   0.026658
     9  H   -0.003377   0.035602
    10  H    0.002259   1.002123
 Sum of Mulliken charges =  -0.00000   4.00000

 Dipole moment (field-independent basis, Debye):
    X=             -0.0000    Y=             -0.0000    Z=              0.0000  Tot=              0.0000
 Quadrupole moment (field-independent basis, Debye-Ang):
   XX=            -13.5807   YY=            -16.1779   ZZ=            -13.0174
   XY=             -0.4153   XZ=             -0.0000   YZ=              0.0000

 Normal termination of Gaussian 09 at Thu Feb 23 12:53:38 2017.
