 Gaussian 09, Revision E.01,
 Gaussian 09:  ES64L-G09RevE.01 30-Nov-2015

 ----------------------------------------------------------------------
 #uhf/gen scf(tight,novaracc,noincfock,fulldiag, ) stable(crhf) guess=r
 ead geom=nocrowd test
 ----------------------------------------------------------------------

 hf stability analysis of h10 triangular lattice, y= 0.5335894054604231
 1 alpha= 26.250000000000000
 ----------------------------------------------------------------------
 Symbolic Z-matrix:
 Charge =  0 Multiplicity = 5

                         Standard orientation:
 ---------------------------------------------------------------------
 Center     Atomic      Atomic             Coordinates (Angstroms)
 Number     Number       Type             X           Y           Z
 ---------------------------------------------------------------------
      1          1           0        1.914247   -0.865640    0.000000
      2          1           0        1.914247   -2.072067    0.000000
      3          1           0        0.957124   -0.131213    0.000000
      4          1           0        0.957124   -1.337641    0.000000
      5          1           0       -0.000000    0.603214    0.000000
      6          1           0       -0.000000   -0.603214    0.000000
      7          1           0       -0.957124    1.337641   -0.000000
      8          1           0       -0.957124    0.131213   -0.000000
      9          1           0       -1.914247    2.072067   -0.000000
     10          1           0       -1.914247    0.865640   -0.000000
 ---------------------------------------------------------------------

 SCF Done:  E(UHF) =  -4.69746739624     A.U. after   10 cycles
 E2 =    -0.4714942276D-01 EUMP2 =    -0.47446168189970D+01

 The electronic state is 5-BU.
 Alpha  occ. eigenvalues --   -0.91464  -0.79640  -0.65006  -0.48358  -0.40531
 Alpha  occ. eigenvalues --   -0.34992  -0.15681
 Alpha virt. eigenvalues --    0.14371   0.40636   0.40900
  Beta  occ. eigenvalues --   -0.76887  -0.66044  -0.45226
  Beta virt. eigenvalues --    0.02569   0.04923   0.18883   0.26238   0.40953
  Beta virt. eigenvalues --    0.49498   0.67944

 Mulliken charges and spin densities:
               1          2
     1  H   -0.112943   0.721452
     2  H    0.006816   0.713265
     3  H    0.076897   0.501883
     4  H    0.062802  -0.263005
     5  H   -0.033572   0.326405
     6  H   -0.033572   0.326405
     7  H    0.062802  -0.263005
     8  H    0.076897   0.501883
     9  H    0.006816   0.713265
    10  H   -0.112943   0.721452
 Sum of Mulliken charges =  -0.00000   4.00000

 Dipole moment (field-independent basis, Debye):
    X=              0.0000    Y=              0.0000    Z=              0.0000  Tot=              0.0000
 Quadrupole moment (field-independent basis, Debye-Ang):
   XX=            -17.3142   YY=            -15.1745   ZZ=            -12.5979
   XY=              1.4215   XZ=             -0.0000   YZ=              0.0000

 Normal termination of Gaussian 09 at Thu Feb 23 12:44:44 2017.
