 Gaussian 09, Revision E.01,
 Gaussian 09:  ES64L-G09RevE.01 30-Nov-2015

 ----------------------------------------------------------------------
 #uhf/gen scf(tight,novaracc,noincfock,fulldiag, ) stable(crhf) guess=r
 ead geom=nocrowd test
 ----------------------------------------------------------------------

 hf stability analysis of h10 triangular lattice, y= 0.3231128888021356
 2 alpha= 10.250000000000000
 ----------------------------------------------------------------------
 Symbolic Z-matrix:
 Charge =  0 Multiplicity = 5

                         Standard orientation:
 ---------------------------------------------------------------------
 Center     Atomic      Atomic             Coordinates (Angstroms)
 Number     Number       Type             X           Y           Z
 ---------------------------------------------------------------------
      1          1           0        1.271825   -2.493742    0.000000
      2          1           0        1.271825   -4.309559    0.000000
      3          1           0        0.635912   -0.792917    0.000000
      4          1           0        0.635912   -2.608734    0.000000
      5          1           0        0.000000    0.907908    0.000000
      6          1           0       -0.000000   -0.907908    0.000000
      7          1           0       -0.635912    2.608734   -0.000000
      8          1           0       -0.635912    0.792917   -0.000000
      9          1           0       -1.271825    4.309559   -0.000000
     10          1           0       -1.271825    2.493742   -0.000000
 ---------------------------------------------------------------------

 SCF Done:  E(UHF) =  -4.64781591789     A.U. after    9 cycles
 E2 =    -0.5184324213D-01 EUMP2 =    -0.46996591600265D+01

 The electronic state is 5-BU.
 Alpha  occ. eigenvalues --   -0.82415  -0.75311  -0.68164  -0.64537  -0.47675
 Alpha  occ. eigenvalues --   -0.47375  -0.03785
 Alpha virt. eigenvalues --    0.32325   0.49269   0.56634
  Beta  occ. eigenvalues --   -0.68371  -0.66965  -0.54657
  Beta virt. eigenvalues --   -0.18196   0.15200   0.15407   0.37268   0.43657
  Beta virt. eigenvalues --    0.57021   0.72822

 Mulliken charges and spin densities:
               1          2
     1  H   -0.004667   0.028509
     2  H    0.003571   1.003487
     3  H    0.023141   0.485002
     4  H   -0.018933   0.023557
     5  H   -0.003112   0.459445
     6  H   -0.003112   0.459445
     7  H   -0.018933   0.023557
     8  H    0.023141   0.485002
     9  H    0.003571   1.003487
    10  H   -0.004667   0.028509
 Sum of Mulliken charges =   0.00000   4.00000

 Dipole moment (field-independent basis, Debye):
    X=             -0.0000    Y=             -0.0000    Z=             -0.0000  Tot=              0.0000
 Quadrupole moment (field-independent basis, Debye-Ang):
   XX=            -13.6649   YY=            -15.8956   ZZ=            -13.0503
   XY=              0.2969   XZ=             -0.0000   YZ=              0.0000

 Normal termination of Gaussian 09 at Thu Feb 23 12:42:09 2017.
