 Gaussian 09, Revision E.01,
 Gaussian 09:  ES64L-G09RevE.01 30-Nov-2015

 ----------------------------------------------------------------------
 #uhf/gen scf(tight,novaracc,noincfock,fulldiag, ) stable(crhf) guess=r
 ead geom=nocrowd test
 ----------------------------------------------------------------------

 hf stability analysis of h10 triangular lattice, y= 0.5802591979462536
 9 alpha= 30.250000000000000
 ----------------------------------------------------------------------
 Symbolic Z-matrix:
 Charge =  0 Multiplicity = 5

                         Standard orientation:
 ---------------------------------------------------------------------
 Center     Atomic      Atomic             Coordinates (Angstroms)
 Number     Number       Type             X           Y           Z
 ---------------------------------------------------------------------
      1          1           0        2.004994   -0.558459   -0.000000
      2          1           0        2.004994   -1.710283   -0.000000
      3          1           0        1.002497    0.008727   -0.000000
      4          1           0        1.002497   -1.143098   -0.000000
      5          1           0        0.000000    0.575912    0.000000
      6          1           0       -0.000000   -0.575912    0.000000
      7          1           0       -1.002497    1.143098   -0.000000
      8          1           0       -1.002497   -0.008727   -0.000000
      9          1           0       -2.004994    1.710283   -0.000000
     10          1           0       -2.004994    0.558459   -0.000000
 ---------------------------------------------------------------------

 SCF Done:  E(UHF) =  -4.70271376330     A.U. after   10 cycles
 E2 =    -0.5433797792D-01 EUMP2 =    -0.47570517412199D+01

 The electronic state is 5-BU.
 Alpha  occ. eigenvalues --   -0.93557  -0.81286  -0.64260  -0.51247  -0.39645
 Alpha  occ. eigenvalues --   -0.37257  -0.15260
 Alpha virt. eigenvalues --    0.17240   0.38093   0.50399
  Beta  occ. eigenvalues --   -0.77765  -0.65000  -0.44243
  Beta virt. eigenvalues --    0.00161   0.03363   0.15614   0.30362   0.38291
  Beta virt. eigenvalues --    0.63339   0.66182

 Mulliken charges and spin densities:
               1          2
     1  H   -0.107072   0.686010
     2  H    0.014459   0.546301
     3  H    0.087657   0.480763
     4  H    0.028908  -0.025826
     5  H   -0.023952   0.312752
     6  H   -0.023952   0.312752
     7  H    0.028908  -0.025826
     8  H    0.087657   0.480763
     9  H    0.014459   0.546301
    10  H   -0.107072   0.686010
 Sum of Mulliken charges =   0.00000   4.00000

 Dipole moment (field-independent basis, Debye):
    X=              0.0000    Y=             -0.0000    Z=              0.0000  Tot=              0.0000
 Quadrupole moment (field-independent basis, Debye-Ang):
   XX=            -17.7738   YY=            -14.8668   ZZ=            -12.6003
   XY=              0.8676   XZ=              0.0000   YZ=              0.0000

 Normal termination of Gaussian 09 at Thu Feb 23 12:45:24 2017.
