 Gaussian 09, Revision E.01,
 Gaussian 09:  ES64L-G09RevE.01 30-Nov-2015

 ----------------------------------------------------------------------
 #uhf/gen scf(tight,novaracc,noincfock,fulldiag, ) stable(crhf) guess=r
 ead geom=nocrowd test
 ----------------------------------------------------------------------

 hf stability analysis of h10 triangular lattice, y= 0.4298968291512300
 1 alpha= 17.750000000000000
 ----------------------------------------------------------------------
 Symbolic Z-matrix:
 Charge =  0 Multiplicity = 5

                         Standard orientation:
 ---------------------------------------------------------------------
 Center     Atomic      Atomic             Coordinates (Angstroms)
 Number     Number       Type             X           Y           Z
 ---------------------------------------------------------------------
      1          1           0        1.637728   -1.590947    0.000000
      2          1           0        1.637728   -3.001072    0.000000
      3          1           0        0.818864   -0.442942    0.000000
      4          1           0        0.818864   -1.853067    0.000000
      5          1           0        0.000000    0.705063    0.000000
      6          1           0       -0.000000   -0.705063   -0.000000
      7          1           0       -0.818864    1.853067    0.000000
      8          1           0       -0.818864    0.442942    0.000000
      9          1           0       -1.637728    3.001072    0.000000
     10          1           0       -1.637728    1.590947    0.000000
 ---------------------------------------------------------------------

 SCF Done:  E(UHF) =  -4.82879974220     A.U. after   10 cycles
 E2 =    -0.4994903399D-01 EUMP2 =    -0.48787487761809D+01

 The electronic state is 5-BU.
 Alpha  occ. eigenvalues --   -0.86166  -0.76404  -0.65902  -0.54111  -0.39036
 Alpha  occ. eigenvalues --   -0.32618  -0.23462
 Alpha virt. eigenvalues --    0.16169   0.36600   0.51927
  Beta  occ. eigenvalues --   -0.71121  -0.64840  -0.48434
  Beta virt. eigenvalues --   -0.01733   0.17135   0.21023   0.26472   0.28027
  Beta virt. eigenvalues --    0.47413   0.69708

 Mulliken charges and spin densities:
               1          2
     1  H   -0.003757   0.180496
     2  H   -0.028975   0.965592
     3  H    0.042763   0.469082
     4  H    0.018340  -0.019532
     5  H   -0.028372   0.404362
     6  H   -0.028372   0.404362
     7  H    0.018340  -0.019532
     8  H    0.042763   0.469082
     9  H   -0.028975   0.965592
    10  H   -0.003757   0.180496
 Sum of Mulliken charges =   0.00000   4.00000

 Dipole moment (field-independent basis, Debye):
    X=             -0.0000    Y=              0.0000    Z=             -0.0000  Tot=              0.0000
 Quadrupole moment (field-independent basis, Debye-Ang):
   XX=            -13.8782   YY=            -18.5053   ZZ=            -12.7186
   XY=              2.4987   XZ=              0.0000   YZ=             -0.0000

 Normal termination of Gaussian 09 at Thu Feb 23 12:43:20 2017.
