 Gaussian 09, Revision E.01,
 Gaussian 09:  ES64L-G09RevE.01 30-Nov-2015

 ----------------------------------------------------------------------
 #uhf/gen scf(tight,novaracc,noincfock,fulldiag, ) stable(crhf) guess=r
 ead geom=nocrowd test
 ----------------------------------------------------------------------

 hf stability analysis of h10 triangular lattice, y= 1.0050639437111659
  alpha= 60.250000000000000
 ----------------------------------------------------------------------
 Symbolic Z-matrix:
 Charge =  0 Multiplicity = 5

                         Standard orientation:
 ---------------------------------------------------------------------
 Center     Atomic      Atomic             Coordinates (Angstroms)
 Number     Number       Type             X           Y           Z
 ---------------------------------------------------------------------
      1          1           0        1.994917    1.753917   -0.000000
      2          1           0        1.994917    0.596275   -0.000000
      3          1           0        0.997459    1.166369   -0.000000
      4          1           0        0.997459    0.008727   -0.000000
      5          1           0       -0.000000    0.578821    0.000000
      6          1           0       -0.000000   -0.578821    0.000000
      7          1           0       -0.997459   -0.008727   -0.000000
      8          1           0       -0.997459   -1.166369    0.000000
      9          1           0       -1.994917   -0.596275   -0.000000
     10          1           0       -1.994917   -1.753917    0.000000
 ---------------------------------------------------------------------

 SCF Done:  E(UHF) =  -4.70139126354     A.U. after   10 cycles
 E2 =    -0.5375727536D-01 EUMP2 =    -0.47551485388989D+01

 The electronic state is 5-BU.
 Alpha  occ. eigenvalues --   -0.93323  -0.81101  -0.64334  -0.50762  -0.39911
 Alpha  occ. eigenvalues --   -0.36920  -0.15182
 Alpha virt. eigenvalues --    0.16836   0.38289   0.49078
  Beta  occ. eigenvalues --   -0.77665  -0.65087  -0.44334
  Beta virt. eigenvalues --    0.00557   0.03331   0.16034   0.29748   0.38666
  Beta virt. eigenvalues --    0.61559   0.66409

 Mulliken charges and spin densities:
               1          2
     1  H    0.015845   0.561211
     2  H   -0.108903   0.692961
     3  H    0.031263  -0.051889
     4  H    0.086546   0.483762
     5  H   -0.024752   0.313955
     6  H   -0.024752   0.313955
     7  H    0.086546   0.483762
     8  H    0.031263  -0.051889
     9  H   -0.108903   0.692961
    10  H    0.015845   0.561211
 Sum of Mulliken charges =   0.00000   4.00000

 Dipole moment (field-independent basis, Debye):
    X=              0.0000    Y=              0.0000    Z=              0.0000  Tot=              0.0000
 Quadrupole moment (field-independent basis, Debye-Ang):
   XX=            -17.6989   YY=            -14.8520   ZZ=            -12.6026
   XY=             -0.8634   XZ=              0.0000   YZ=              0.0000

 Normal termination of Gaussian 09 at Thu Feb 23 12:50:30 2017.
