 Gaussian 09, Revision E.01,
 Gaussian 09:  ES64L-G09RevE.01 30-Nov-2015

 ----------------------------------------------------------------------
 #uhf/gen scf(tight,novaracc,noincfock,fulldiag, ) stable(crhf) guess=r
 ead geom=nocrowd test
 ----------------------------------------------------------------------

 hf stability analysis of h10 triangular lattice, y= 0.4427008172522774
 5 alpha= 18.750000000000000
 ----------------------------------------------------------------------
 Symbolic Z-matrix:
 Charge =  0 Multiplicity = 5

                         Standard orientation:
 ---------------------------------------------------------------------
 Center     Atomic      Atomic             Coordinates (Angstroms)
 Number     Number       Type             X           Y           Z
 ---------------------------------------------------------------------
      1          1           0        1.676827   -1.496661    0.000000
      2          1           0        1.676827   -2.873906    0.000000
      3          1           0        0.838413   -0.404019    0.000000
      4          1           0        0.838413   -1.781264    0.000000
      5          1           0       -0.000000    0.688622    0.000000
      6          1           0       -0.000000   -0.688622    0.000000
      7          1           0       -0.838413    1.781264   -0.000000
      8          1           0       -0.838413    0.404019   -0.000000
      9          1           0       -1.676827    2.873906   -0.000000
     10          1           0       -1.676827    1.496661   -0.000000
 ---------------------------------------------------------------------

 SCF Done:  E(UHF) =  -4.81190198679     A.U. after   10 cycles
 E2 =    -0.5046097631D-01 EUMP2 =    -0.48623629630948D+01

 The electronic state is 5-BU.
 Alpha  occ. eigenvalues --   -0.86762  -0.76703  -0.65763  -0.53286  -0.37790
 Alpha  occ. eigenvalues --   -0.30671  -0.24828
 Alpha virt. eigenvalues --    0.14754   0.35590   0.51011
  Beta  occ. eigenvalues --   -0.71738  -0.64889  -0.47780
  Beta virt. eigenvalues --   -0.00391   0.15294   0.21647   0.26780   0.28546
  Beta virt. eigenvalues --    0.46576   0.69383

 Mulliken charges and spin densities:
               1          2
     1  H   -0.010409   0.235485
     2  H   -0.034540   0.955662
     3  H    0.045947   0.471384
     4  H    0.030532  -0.058978
     5  H   -0.031530   0.396447
     6  H   -0.031530   0.396447
     7  H    0.030532  -0.058978
     8  H    0.045947   0.471384
     9  H   -0.034540   0.955662
    10  H   -0.010409   0.235485
 Sum of Mulliken charges =   0.00000   4.00000

 Dipole moment (field-independent basis, Debye):
    X=              0.0000    Y=              0.0000    Z=              0.0000  Tot=              0.0000
 Quadrupole moment (field-independent basis, Debye-Ang):
   XX=            -14.1952   YY=            -18.5821   ZZ=            -12.6816
   XY=              2.8470   XZ=             -0.0000   YZ=              0.0000

 Normal termination of Gaussian 09 at Thu Feb 23 12:43:30 2017.
