 Gaussian 09, Revision E.01,
 Gaussian 09:  ES64L-G09RevE.01 30-Nov-2015

 ----------------------------------------------------------------------
 #uhf/gen scf(tight,novaracc,noincfock,fulldiag, ) stable(crhf) guess=r
 ead geom=nocrowd test
 ----------------------------------------------------------------------

 hf stability analysis of h10 triangular lattice, y= 1.7036831833639368
  alpha= 78.750000000000000
 ----------------------------------------------------------------------
 Symbolic Z-matrix:
 Charge =  0 Multiplicity = 5

                         Standard orientation:
 ---------------------------------------------------------------------
 Center     Atomic      Atomic             Coordinates (Angstroms)
 Number     Number       Type             X           Y           Z
 ---------------------------------------------------------------------
      1          1           0        1.329488    4.078199   -0.000000
      2          1           0        1.329488    2.341139   -0.000000
      3          1           0        0.664744    2.473365   -0.000000
      4          1           0        0.664744    0.736304   -0.000000
      5          1           0        0.000000    0.868530   -0.000000
      6          1           0       -0.000000   -0.868530   -0.000000
      7          1           0       -0.664744   -0.736304   -0.000000
      8          1           0       -0.664744   -2.473365   -0.000000
      9          1           0       -1.329488   -2.341139   -0.000000
     10          1           0       -1.329488   -4.078199   -0.000000
 ---------------------------------------------------------------------

 SCF Done:  E(UHF) =  -4.72202382008     A.U. after    9 cycles
 E2 =    -0.4991524049D-01 EUMP2 =    -0.47719390605755D+01

 The electronic state is 5-BU.
 Alpha  occ. eigenvalues --   -0.82781  -0.75161  -0.67653  -0.62640  -0.46808
 Alpha  occ. eigenvalues --   -0.46213  -0.07155
 Alpha virt. eigenvalues --    0.29691   0.47039   0.55931
  Beta  occ. eigenvalues --   -0.68400  -0.66365  -0.53881
  Beta virt. eigenvalues --   -0.15489   0.15850   0.16217   0.33869   0.40859
  Beta virt. eigenvalues --    0.55284   0.72308

 Mulliken charges and spin densities:
               1          2
     1  H    0.001710   1.001551
     2  H   -0.002926   0.038167
     3  H   -0.017955   0.027585
     4  H    0.025630   0.481004
     5  H   -0.006459   0.451692
     6  H   -0.006459   0.451692
     7  H    0.025630   0.481004
     8  H   -0.017955   0.027585
     9  H   -0.002926   0.038167
    10  H    0.001710   1.001551
 Sum of Mulliken charges =   0.00000   4.00000

 Dipole moment (field-independent basis, Debye):
    X=             -0.0000    Y=              0.0000    Z=              0.0000  Tot=              0.0000
 Quadrupole moment (field-independent basis, Debye-Ang):
   XX=            -13.5553   YY=            -16.2752   ZZ=            -13.0062
   XY=             -0.4606   XZ=              0.0000   YZ=              0.0000

 Normal termination of Gaussian 09 at Thu Feb 23 12:53:36 2017.
