 Gaussian 09, Revision E.01,
 Gaussian 09:  ES64L-G09RevE.01 30-Nov-2015

 ----------------------------------------------------------------------
 #uhf/gen scf(tight,novaracc,noincfock,fulldiag, ) stable(crhf) guess=r
 ead geom=nocrowd test
 ----------------------------------------------------------------------

 hf stability analysis of h10 triangular lattice, y= 0.6035568768658181
 6 alpha= 32.250000000000000
 ----------------------------------------------------------------------
 Symbolic Z-matrix:
 Charge =  0 Multiplicity = 5

                         Standard orientation:
 ---------------------------------------------------------------------
 Center     Atomic      Atomic             Coordinates (Angstroms)
 Number     Number       Type             X           Y           Z
 ---------------------------------------------------------------------
      1          1           0        2.041779   -0.408342    0.000000
      2          1           0        2.041779   -1.539415    0.000000
      3          1           0        1.020890    0.078597    0.000000
      4          1           0        1.020890   -1.052476    0.000000
      5          1           0        0.000000    0.565536   -0.000000
      6          1           0       -0.000000   -0.565536   -0.000000
      7          1           0       -1.020890    1.052476    0.000000
      8          1           0       -1.020890   -0.078597    0.000000
      9          1           0       -2.041779    1.539415    0.000000
     10          1           0       -2.041779    0.408342    0.000000
 ---------------------------------------------------------------------

 SCF Done:  E(UHF) =  -4.70755425790     A.U. after   10 cycles
 E2 =    -0.5582420328D-01 EUMP2 =    -0.47633784611856D+01

 The electronic state is 5-BU.
 Alpha  occ. eigenvalues --   -0.94405  -0.81958  -0.64021  -0.53090  -0.38629
 Alpha  occ. eigenvalues --   -0.38592  -0.15731
 Alpha virt. eigenvalues --    0.18864   0.37492   0.55851
  Beta  occ. eigenvalues --   -0.78179  -0.64786  -0.43924
  Beta virt. eigenvalues --   -0.01391   0.03777   0.14005   0.32816   0.36816
  Beta virt. eigenvalues --    0.65329   0.70336

 Mulliken charges and spin densities:
               1          2
     1  H   -0.099367   0.658272
     2  H    0.005073   0.502917
     3  H    0.091572   0.468663
     4  H    0.024639   0.062199
     5  H   -0.021918   0.307949
     6  H   -0.021918   0.307949
     7  H    0.024639   0.062199
     8  H    0.091572   0.468663
     9  H    0.005073   0.502917
    10  H   -0.099367   0.658272
 Sum of Mulliken charges =   0.00000   4.00000

 Dipole moment (field-independent basis, Debye):
    X=              0.0000    Y=              0.0000    Z=             -0.0000  Tot=              0.0000
 Quadrupole moment (field-independent basis, Debye-Ang):
   XX=            -18.1482   YY=            -14.9363   ZZ=            -12.5871
   XY=              0.9660   XZ=              0.0000   YZ=             -0.0000

 Normal termination of Gaussian 09 at Thu Feb 23 12:45:44 2017.
