 Gaussian 09, Revision E.01,
 Gaussian 09:  ES64L-G09RevE.01 30-Nov-2015

 ----------------------------------------------------------------------
 #uhf/gen scf(tight,novaracc,noincfock,fulldiag, ) stable(crhf) guess=r
 ead geom=nocrowd test
 ----------------------------------------------------------------------

 hf stability analysis of h10 triangular lattice, y= 1.0644781770328475
  alpha= 63.000000000000000
 ----------------------------------------------------------------------
 Symbolic Z-matrix:
 Charge =  0 Multiplicity = 5

                         Standard orientation:
 ---------------------------------------------------------------------
 Center     Atomic      Atomic             Coordinates (Angstroms)
 Number     Number       Type             X           Y           Z
 ---------------------------------------------------------------------
      1          1           0        1.933052    2.001790    0.000000
      2          1           0        1.933052    0.807099    0.000000
      3          1           0        0.966526    1.299568    0.000000
      4          1           0        0.966526    0.104876    0.000000
      5          1           0        0.000000    0.597346    0.000000
      6          1           0       -0.000000   -0.597346   -0.000000
      7          1           0       -0.966526   -0.104876   -0.000000
      8          1           0       -0.966526   -1.299568   -0.000000
      9          1           0       -1.933052   -0.807099   -0.000000
     10          1           0       -1.933052   -2.001790   -0.000000
 ---------------------------------------------------------------------

 SCF Done:  E(UHF) =  -4.69667966879     A.U. after   11 cycles
 E2 =    -0.4876592078D-01 EUMP2 =    -0.47454455895676D+01

 The electronic state is 5-BU.
 Alpha  occ. eigenvalues --   -0.91891  -0.79970  -0.64849  -0.48538  -0.40794
 Alpha  occ. eigenvalues --   -0.35299  -0.15369
 Alpha virt. eigenvalues --    0.14826   0.39943   0.42456
  Beta  occ. eigenvalues --   -0.77094  -0.65820  -0.44995
  Beta virt. eigenvalues --    0.02304   0.04273   0.18315   0.26803   0.40577
  Beta virt. eigenvalues --    0.51921   0.67646

 Mulliken charges and spin densities:
               1          2
     1  H    0.011893   0.675353
     2  H   -0.114323   0.721597
     3  H    0.054437  -0.218487
     4  H    0.079378   0.498858
     5  H   -0.031384   0.322678
     6  H   -0.031384   0.322678
     7  H    0.079378   0.498858
     8  H    0.054437  -0.218487
     9  H   -0.114323   0.721597
    10  H    0.011893   0.675353
 Sum of Mulliken charges =  -0.00000   4.00000

 Dipole moment (field-independent basis, Debye):
    X=             -0.0000    Y=              0.0000    Z=              0.0000  Tot=              0.0000
 Quadrupole moment (field-independent basis, Debye-Ang):
   XX=            -17.3982   YY=            -15.0028   ZZ=            -12.6020
   XY=             -1.1943   XZ=             -0.0000   YZ=             -0.0000

 Normal termination of Gaussian 09 at Thu Feb 23 12:50:58 2017.
