 Gaussian 09, Revision E.01,
 Gaussian 09:  ES64L-G09RevE.01 30-Nov-2015

 ----------------------------------------------------------------------
 #uhf/gen scf(tight,novaracc,noincfock,fulldiag, ) stable(crhf) guess=r
 ead geom=nocrowd test
 ----------------------------------------------------------------------

 hf stability analysis of h10 triangular lattice, y= 1.3531893207273342
  alpha= 72.500000000000000
 ----------------------------------------------------------------------
 Symbolic Z-matrix:
 Charge =  0 Multiplicity = 5

                         Standard orientation:
 ---------------------------------------------------------------------
 Center     Atomic      Atomic             Coordinates (Angstroms)
 Number     Number       Type             X           Y           Z
 ---------------------------------------------------------------------
      1          1           0        1.627647    3.033951    0.000000
      2          1           0        1.627647    1.615092    0.000000
      3          1           0        0.813824    1.871690    0.000000
      4          1           0        0.813824    0.452832    0.000000
      5          1           0        0.000000    0.709429    0.000000
      6          1           0       -0.000000   -0.709429   -0.000000
      7          1           0       -0.813824   -0.452832   -0.000000
      8          1           0       -0.813824   -1.871690   -0.000000
      9          1           0       -1.627647   -1.615092   -0.000000
     10          1           0       -1.627647   -3.033951   -0.000000
 ---------------------------------------------------------------------

 SCF Done:  E(UHF) =  -4.83221049478     A.U. after   10 cycles
 E2 =    -0.4978655924D-01 EUMP2 =    -0.48819970540205D+01

 The electronic state is 5-BU.
 Alpha  occ. eigenvalues --   -0.86019  -0.76331  -0.65941  -0.54329  -0.39357
 Alpha  occ. eigenvalues --   -0.33205  -0.23008
 Alpha virt. eigenvalues --    0.16561   0.36886   0.52132
  Beta  occ. eigenvalues --   -0.70977  -0.64842  -0.48609
  Beta virt. eigenvalues --   -0.02100   0.17602   0.20842   0.25985   0.28374
  Beta virt. eigenvalues --    0.47634   0.69796

 Mulliken charges and spin densities:
               1          2
     1  H   -0.027487   0.967797
     2  H   -0.002602   0.169326
     3  H    0.015662  -0.012136
     4  H    0.042001   0.468781
     5  H   -0.027574   0.406231
     6  H   -0.027574   0.406231
     7  H    0.042001   0.468781
     8  H    0.015662  -0.012136
     9  H   -0.002602   0.169326
    10  H   -0.027487   0.967797
 Sum of Mulliken charges =   0.00000   4.00000

 Dipole moment (field-independent basis, Debye):
    X=              0.0000    Y=             -0.0000    Z=              0.0000  Tot=              0.0000
 Quadrupole moment (field-independent basis, Debye-Ang):
   XX=            -13.8143   YY=            -18.4657   ZZ=            -12.7284
   XY=             -2.4061   XZ=             -0.0000   YZ=             -0.0000

 Normal termination of Gaussian 09 at Thu Feb 23 12:52:33 2017.
