 Gaussian 09, Revision E.01,
 Gaussian 09:  ES64L-G09RevE.01 30-Nov-2015

 ----------------------------------------------------------------------
 #uhf/gen scf(tight,novaracc,noincfock,fulldiag, ) stable(crhf) guess=r
 ead geom=nocrowd test
 ----------------------------------------------------------------------

 hf stability analysis of h10 triangular lattice, y= 0.6006400760937612
 4 alpha= 32.000000000000000
 ----------------------------------------------------------------------
 Symbolic Z-matrix:
 Charge =  0 Multiplicity = 5

                         Standard orientation:
 ---------------------------------------------------------------------
 Center     Atomic      Atomic             Coordinates (Angstroms)
 Number     Number       Type             X           Y           Z
 ---------------------------------------------------------------------
      1          1           0        2.037487   -0.427021   -0.000000
      2          1           0        2.037487   -1.560477   -0.000000
      3          1           0        1.018743    0.069854   -0.000000
      4          1           0        1.018743   -1.063602   -0.000000
      5          1           0        0.000000    0.566728    0.000000
      6          1           0       -0.000000   -0.566728    0.000000
      7          1           0       -1.018743    1.063602    0.000000
      8          1           0       -1.018743   -0.069854    0.000000
      9          1           0       -2.037487    1.560477    0.000000
     10          1           0       -2.037487    0.427021    0.000000
 ---------------------------------------------------------------------

 SCF Done:  E(UHF) =  -4.70702184495     A.U. after   10 cycles
 E2 =    -0.5569709179D-01 EUMP2 =    -0.47627189367385D+01

 The electronic state is 5-BU.
 Alpha  occ. eigenvalues --   -0.94307  -0.81881  -0.64046  -0.52872  -0.38748
 Alpha  occ. eigenvalues --   -0.38430  -0.15663
 Alpha virt. eigenvalues --    0.18664   0.37554   0.55162
  Beta  occ. eigenvalues --   -0.78127  -0.64803  -0.43961
  Beta virt. eigenvalues --   -0.01204   0.03708   0.14198   0.32515   0.36996
  Beta virt. eigenvalues --    0.65430   0.69477

 Mulliken charges and spin densities:
               1          2
     1  H   -0.100321   0.661674
     2  H    0.006492   0.507099
     3  H    0.091136   0.470183
     4  H    0.024777   0.052476
     5  H   -0.022083   0.308567
     6  H   -0.022083   0.308567
     7  H    0.024777   0.052476
     8  H    0.091136   0.470183
     9  H    0.006492   0.507099
    10  H   -0.100321   0.661674
 Sum of Mulliken charges =   0.00000   4.00000

 Dipole moment (field-independent basis, Debye):
    X=             -0.0000    Y=              0.0000    Z=             -0.0000  Tot=              0.0000
 Quadrupole moment (field-independent basis, Debye-Ang):
   XX=            -18.0956   YY=            -14.9293   ZZ=            -12.5890
   XY=              0.9503   XZ=              0.0000   YZ=             -0.0000

 Normal termination of Gaussian 09 at Thu Feb 23 12:45:42 2017.
