 Gaussian 09, Revision E.01,
 Gaussian 09:  ES64L-G09RevE.01 30-Nov-2015

 ----------------------------------------------------------------------
 #uhf/gen scf(tight,novaracc,noincfock,fulldiag, ) stable(crhf) guess=r
 ead geom=nocrowd test
 ----------------------------------------------------------------------

 hf stability analysis of h10 triangular lattice, y= 0.6387729204659229
 3 alpha= 35.250000000000000
 ----------------------------------------------------------------------
 Symbolic Z-matrix:
 Charge =  0 Multiplicity = 5

                         Standard orientation:
 ---------------------------------------------------------------------
 Center     Atomic      Atomic             Coordinates (Angstroms)
 Number     Number       Type             X           Y           Z
 ---------------------------------------------------------------------
      1          1           0        2.086594   -0.185512    0.000000
      2          1           0        2.086594   -1.292292    0.000000
      3          1           0        1.043297    0.183939    0.000000
      4          1           0        1.043297   -0.922841    0.000000
      5          1           0        0.000000    0.553390   -0.000000
      6          1           0       -0.000000   -0.553390   -0.000000
      7          1           0       -1.043297    0.922841    0.000000
      8          1           0       -1.043297   -0.183939    0.000000
      9          1           0       -2.086594    1.292292    0.000000
     10          1           0       -2.086594    0.185512    0.000000
 ---------------------------------------------------------------------

 SCF Done:  E(UHF) =  -4.71180780841     A.U. after   11 cycles
 E2 =    -0.5660432792D-01 EUMP2 =    -0.47684121363303D+01

 The electronic state is 5-BU.
 Alpha  occ. eigenvalues --   -0.95420  -0.82763  -0.63770  -0.55365  -0.40362
 Alpha  occ. eigenvalues --   -0.37421  -0.16568
 Alpha virt. eigenvalues --    0.21050   0.36970   0.63930
  Beta  occ. eigenvalues --   -0.78786  -0.64700  -0.43512
  Beta virt. eigenvalues --   -0.03392   0.04765   0.11915   0.34816   0.36127
  Beta virt. eigenvalues --    0.64288   0.80104

 Mulliken charges and spin densities:
               1          2
     1  H   -0.089015   0.619205
     2  H   -0.014264   0.472390
     3  H    0.095222   0.449718
     4  H    0.029375   0.158630
     5  H   -0.021318   0.300057
     6  H   -0.021318   0.300057
     7  H    0.029375   0.158630
     8  H    0.095222   0.449718
     9  H   -0.014264   0.472390
    10  H   -0.089015   0.619205
 Sum of Mulliken charges =   0.00000   4.00000

 Dipole moment (field-independent basis, Debye):
    X=             -0.0000    Y=              0.0000    Z=             -0.0000  Tot=              0.0000
 Quadrupole moment (field-independent basis, Debye-Ang):
   XX=            -18.8541   YY=            -14.9281   ZZ=            -12.5638
   XY=              1.1107   XZ=             -0.0000   YZ=              0.0000

 Normal termination of Gaussian 09 at Thu Feb 23 12:46:14 2017.
