 Gaussian 09, Revision E.01,
 Gaussian 09:  ES64L-G09RevE.01 30-Nov-2015

 ----------------------------------------------------------------------
 #uhf/gen scf(tight,novaracc,noincfock,fulldiag, ) stable(crhf) guess=r
 ead geom=nocrowd test
 ----------------------------------------------------------------------

 hf stability analysis of h10 triangular lattice, y= 0.7868496627299574
 9 alpha= 47.000000000000000
 ----------------------------------------------------------------------
 Symbolic Z-matrix:
 Charge =  0 Multiplicity = 5

                         Standard orientation:
 ---------------------------------------------------------------------
 Center     Atomic      Atomic             Coordinates (Angstroms)
 Number     Number       Type             X           Y           Z
 ---------------------------------------------------------------------
      1          1           0        2.146521    0.688040    0.000000
      2          1           0        2.146521   -0.387841    0.000000
      3          1           0        1.073260    0.612990    0.000000
      4          1           0        1.073260   -0.462891    0.000000
      5          1           0        0.000000    0.537941    0.000000
      6          1           0       -0.000000   -0.537941    0.000000
      7          1           0       -1.073260    0.462891    0.000000
      8          1           0       -1.073260   -0.612990    0.000000
      9          1           0       -2.146521    0.387841    0.000000
     10          1           0       -2.146521   -0.688040    0.000000
 ---------------------------------------------------------------------

 SCF Done:  E(UHF) =  -4.71165753706     A.U. after   11 cycles
 E2 =    -0.5664786877D-01 EUMP2 =    -0.47683054058368D+01

 The electronic state is 5-BU.
 Alpha  occ. eigenvalues --   -0.96733  -0.83817  -0.63417  -0.58364  -0.42857
 Alpha  occ. eigenvalues --   -0.35959  -0.17826
 Alpha virt. eigenvalues --    0.23909   0.36834   0.77730
  Beta  occ. eigenvalues --   -0.79719  -0.64745  -0.42816
  Beta virt. eigenvalues --   -0.06135   0.06780   0.08910   0.31707   0.40878
  Beta virt. eigenvalues --    0.63062   0.96199

 Mulliken charges and spin densities:
               1          2
     1  H   -0.057490   0.488659
     2  H   -0.069968   0.526614
     3  H    0.066866   0.321838
     4  H    0.084693   0.379368
     5  H   -0.024101   0.283521
     6  H   -0.024101   0.283521
     7  H    0.084693   0.379368
     8  H    0.066866   0.321838
     9  H   -0.069968   0.526614
    10  H   -0.057490   0.488659
 Sum of Mulliken charges =   0.00000   4.00000

 Dipole moment (field-independent basis, Debye):
    X=              0.0000    Y=             -0.0000    Z=             -0.0000  Tot=              0.0000
 Quadrupole moment (field-independent basis, Debye-Ang):
   XX=            -20.3341   YY=            -14.4775   ZZ=            -12.5265
   XY=             -0.3912   XZ=              0.0000   YZ=              0.0000

 Normal termination of Gaussian 09 at Thu Feb 23 12:48:16 2017.
