 Gaussian 09, Revision E.01,
 Gaussian 09:  ES64L-G09RevE.01 30-Nov-2015

 ----------------------------------------------------------------------
 #uhf/gen scf(tight,novaracc,noincfock,fulldiag, ) stable(crhf) guess=r
 ead geom=nocrowd test
 ----------------------------------------------------------------------

 hf stability analysis of h10 triangular lattice, y= 0.7732164846609803
 6 alpha= 46.000000000000000
 ----------------------------------------------------------------------
 Symbolic Z-matrix:
 Charge =  0 Multiplicity = 5

                         Standard orientation:
 ---------------------------------------------------------------------
 Center     Atomic      Atomic             Coordinates (Angstroms)
 Number     Number       Type             X           Y           Z
 ---------------------------------------------------------------------
      1          1           0        2.148485    0.612475    0.000000
      2          1           0        2.148485   -0.462422   -0.000000
      3          1           0        1.074243    0.574962    0.000000
      4          1           0        1.074243   -0.499935   -0.000000
      5          1           0       -0.000000    0.537449    0.000000
      6          1           0       -0.000000   -0.537449    0.000000
      7          1           0       -1.074243    0.499935   -0.000000
      8          1           0       -1.074243   -0.574962    0.000000
      9          1           0       -2.148485    0.462422   -0.000000
     10          1           0       -2.148485   -0.612475    0.000000
 ---------------------------------------------------------------------

 SCF Done:  E(UHF) =  -4.71150702847     A.U. after   10 cycles
 E2 =    -0.5663758789D-01 EUMP2 =    -0.47681446163546D+01

 The electronic state is 5-BU.
 Alpha  occ. eigenvalues --   -0.96774  -0.83851  -0.63403  -0.58462  -0.42941
 Alpha  occ. eigenvalues --   -0.35915  -0.17865
 Alpha virt. eigenvalues --    0.23992   0.36849   0.78254
  Beta  occ. eigenvalues --   -0.79751  -0.64747  -0.42790
  Beta virt. eigenvalues --   -0.06225   0.06860   0.08806   0.31594   0.41037
  Beta virt. eigenvalues --    0.63030   0.96805

 Mulliken charges and spin densities:
               1          2
     1  H   -0.061172   0.496879
     2  H   -0.067348   0.515999
     3  H    0.071904   0.337773
     4  H    0.080896   0.366532
     5  H   -0.024281   0.282816
     6  H   -0.024281   0.282816
     7  H    0.080896   0.366532
     8  H    0.071904   0.337773
     9  H   -0.067348   0.515999
    10  H   -0.061172   0.496879
 Sum of Mulliken charges =  -0.00000   4.00000

 Dipole moment (field-independent basis, Debye):
    X=             -0.0000    Y=              0.0000    Z=             -0.0000  Tot=              0.0000
 Quadrupole moment (field-independent basis, Debye-Ang):
   XX=            -20.3956   YY=            -14.4500   ZZ=            -12.5252
   XY=             -0.1990   XZ=             -0.0000   YZ=             -0.0000

 Normal termination of Gaussian 09 at Thu Feb 23 12:48:05 2017.
