 Gaussian 09, Revision E.01,
 Gaussian 09:  ES64L-G09RevE.01 30-Nov-2015

 ----------------------------------------------------------------------
 #uhf/gen scf(tight,novaracc,noincfock,fulldiag, ) stable(crhf) guess=r
 ead geom=nocrowd test
 ----------------------------------------------------------------------

 hf stability analysis of h10 triangular lattice, y= 0.2411143230343760
 2 alpha= 5.7500000000000000
 ----------------------------------------------------------------------
 Symbolic Z-matrix:
 Charge =  0 Multiplicity = 5

                         Standard orientation:
 ---------------------------------------------------------------------
 Center     Atomic      Atomic             Coordinates (Angstroms)
 Number     Number       Type             X           Y           Z
 ---------------------------------------------------------------------
      1          1           0        0.959605   -3.513299    0.000000
      2          1           0        0.959605   -5.919916    0.000000
      3          1           0        0.479802   -1.154995   -0.000000
      4          1           0        0.479802   -3.561612    0.000000
      5          1           0        0.000000    1.203309   -0.000000
      6          1           0       -0.000000   -1.203309   -0.000000
      7          1           0       -0.479802    3.561612   -0.000000
      8          1           0       -0.479802    1.154995   -0.000000
      9          1           0       -0.959605    5.919916   -0.000000
     10          1           0       -0.959605    3.513299   -0.000000
 ---------------------------------------------------------------------

 SCF Done:  E(UHF) =  -3.85551368184     A.U. after    8 cycles
 E2 =    -0.8174803956D-01 EUMP2 =    -0.39372617213979D+01

 The electronic state is 5-BU.
 Alpha  occ. eigenvalues --   -0.82038  -0.79562  -0.72388  -0.72308  -0.49824
 Alpha  occ. eigenvalues --   -0.49823   0.17529
 Alpha virt. eigenvalues --    0.46020   0.63296   0.64501
  Beta  occ. eigenvalues --   -0.71958  -0.71921  -0.55669
  Beta virt. eigenvalues --   -0.30786   0.13089   0.13093   0.58758   0.61125
  Beta virt. eigenvalues --    0.69001   0.78029

 Mulliken charges and spin densities:
               1          2
     1  H   -0.005095   0.003938
     2  H    0.002835   1.002834
     3  H    0.008196   0.499081
     4  H   -0.010098   0.005127
     5  H    0.004162   0.489021
     6  H    0.004162   0.489021
     7  H   -0.010098   0.005127
     8  H    0.008196   0.499081
     9  H    0.002835   1.002834
    10  H   -0.005095   0.003938
 Sum of Mulliken charges =   0.00000   4.00000

 Dipole moment (field-independent basis, Debye):
    X=              0.0000    Y=              0.0000    Z=             -0.0000  Tot=              0.0000
 Quadrupole moment (field-independent basis, Debye-Ang):
   XX=            -14.2188   YY=            -14.2424   ZZ=            -13.1937
   XY=             -0.0611   XZ=             -0.0000   YZ=              0.0000

 Normal termination of Gaussian 09 at Thu Feb 23 12:41:26 2017.
