 Gaussian 09, Revision E.01,
 Gaussian 09:  ES64L-G09RevE.01 30-Nov-2015

 ----------------------------------------------------------------------
 #uhf/gen scf(tight,novaracc,noincfock,fulldiag, ) stable(crhf) guess=r
 ead geom=nocrowd test
 ----------------------------------------------------------------------

 hf stability analysis of h10 triangular lattice, y= 0.3758679504228169
 5 alpha= 13.750000000000000
 ----------------------------------------------------------------------
 Symbolic Z-matrix:
 Charge =  0 Multiplicity = 5

                         Standard orientation:
 ---------------------------------------------------------------------
 Center     Atomic      Atomic             Coordinates (Angstroms)
 Number     Number       Type             X           Y           Z
 ---------------------------------------------------------------------
      1          1           0        1.460385   -2.014692    0.000000
      2          1           0        1.460385   -3.596056    0.000000
      3          1           0        0.730193   -0.612005    0.000000
      4          1           0        0.730193   -2.193369    0.000000
      5          1           0        0.000000    0.790682    0.000000
      6          1           0       -0.000000   -0.790682    0.000000
      7          1           0       -0.730193    2.193369   -0.000000
      8          1           0       -0.730193    0.612005    0.000000
      9          1           0       -1.460385    3.596056   -0.000000
     10          1           0       -1.460385    2.014692    0.000000
 ---------------------------------------------------------------------

 SCF Done:  E(UHF) =  -4.82364727942     A.U. after    9 cycles
 E2 =    -0.4817247690D-01 EUMP2 =    -0.48718197563190D+01

 The electronic state is 5-BU.
 Alpha  occ. eigenvalues --   -0.83935  -0.75376  -0.66746  -0.58507  -0.44128
 Alpha  occ. eigenvalues --   -0.42014  -0.14409
 Alpha virt. eigenvalues --    0.23740   0.42291   0.54524
  Beta  occ. eigenvalues --   -0.69129  -0.65381  -0.51661
  Beta virt. eigenvalues --   -0.09238   0.17741   0.18868   0.26778   0.34956
  Beta virt. eigenvalues --    0.51670   0.71240

 Mulliken charges and spin densities:
               1          2
     1  H    0.001045   0.070625
     2  H   -0.006812   0.992541
     3  H    0.031716   0.472646
     4  H   -0.010773   0.031308
     5  H   -0.015176   0.432881
     6  H   -0.015176   0.432881
     7  H   -0.010773   0.031308
     8  H    0.031716   0.472646
     9  H   -0.006812   0.992541
    10  H    0.001045   0.070625
 Sum of Mulliken charges =   0.00000   4.00000

 Dipole moment (field-independent basis, Debye):
    X=              0.0000    Y=              0.0000    Z=              0.0000  Tot=              0.0000
 Quadrupole moment (field-independent basis, Debye-Ang):
   XX=            -13.4144   YY=            -17.2897   ZZ=            -12.8915
   XY=              1.0765   XZ=             -0.0000   YZ=              0.0000

 Normal termination of Gaussian 09 at Thu Feb 23 12:42:42 2017.
