 Gaussian 09, Revision E.01,
 Gaussian 09:  ES64L-G09RevE.01 30-Nov-2015

 ----------------------------------------------------------------------
 #uhf/gen scf(tight,novaracc,noincfock,fulldiag, ) stable(crhf) guess=r
 ead geom=nocrowd test
 ----------------------------------------------------------------------

 hf stability analysis of h10 triangular lattice, y= 0.6566033129082584
 6 alpha= 36.750000000000000
 ----------------------------------------------------------------------
 Symbolic Z-matrix:
 Charge =  0 Multiplicity = 5

                         Standard orientation:
 ---------------------------------------------------------------------
 Center     Atomic      Atomic             Coordinates (Angstroms)
 Number     Number       Type             X           Y           Z
 ---------------------------------------------------------------------
      1          1           0        2.104424   -0.074657    0.000000
      2          1           0        2.104424   -1.172060    0.000000
      3          1           0        1.052212    0.237022    0.000000
      4          1           0        1.052212   -0.860381    0.000000
      5          1           0        0.000000    0.548702    0.000000
      6          1           0       -0.000000   -0.548702    0.000000
      7          1           0       -1.052212    0.860381    0.000000
      8          1           0       -1.052212   -0.237022    0.000000
      9          1           0       -2.104424    1.172060    0.000000
     10          1           0       -2.104424    0.074657    0.000000
 ---------------------------------------------------------------------

 SCF Done:  E(UHF) =  -4.71258624077     A.U. after   11 cycles
 E2 =    -0.5670515148D-01 EUMP2 =    -0.47692913922520D+01

 The electronic state is 5-BU.
 Alpha  occ. eigenvalues --   -0.95817  -0.83079  -0.63673  -0.56264  -0.41092
 Alpha  occ. eigenvalues --   -0.36965  -0.16942
 Alpha virt. eigenvalues --    0.21939   0.36839   0.67638
  Beta  occ. eigenvalues --   -0.79052  -0.64701  -0.43327
  Beta virt. eigenvalues --   -0.04204   0.05282   0.11048   0.33952   0.37513
  Beta virt. eigenvalues --    0.63892   0.84467

 Mulliken charges and spin densities:
               1          2
     1  H   -0.084719   0.600522
     2  H   -0.024225   0.467133
     3  H    0.095684   0.439226
     4  H    0.034929   0.197124
     5  H   -0.021669   0.295996
     6  H   -0.021669   0.295996
     7  H    0.034929   0.197124
     8  H    0.095684   0.439226
     9  H   -0.024225   0.467133
    10  H   -0.084719   0.600522
 Sum of Mulliken charges =   0.00000   4.00000

 Dipole moment (field-independent basis, Debye):
    X=              0.0000    Y=              0.0000    Z=             -0.0000  Tot=              0.0000
 Quadrupole moment (field-independent basis, Debye-Ang):
   XX=            -19.2226   YY=            -14.8608   ZZ=            -12.5532
   XY=              1.1080   XZ=             -0.0000   YZ=              0.0000

 Normal termination of Gaussian 09 at Thu Feb 23 12:46:30 2017.
