 Gaussian 09, Revision E.01,
 Gaussian 09:  ES64L-G09RevE.01 30-Nov-2015

 ----------------------------------------------------------------------
 #uhf/gen scf(tight,novaracc,noincfock,fulldiag, ) stable(crhf) guess=r
 ead geom=nocrowd test
 ----------------------------------------------------------------------

 hf stability analysis of h10 triangular lattice, y= 0.6269799200977310
 7 alpha= 34.250000000000000
 ----------------------------------------------------------------------
 Symbolic Z-matrix:
 Charge =  0 Multiplicity = 5

                         Standard orientation:
 ---------------------------------------------------------------------
 Center     Atomic      Atomic             Coordinates (Angstroms)
 Number     Number       Type             X           Y           Z
 ---------------------------------------------------------------------
      1          1           0        2.073021   -0.259571   -0.000000
      2          1           0        2.073021   -1.373598   -0.000000
      3          1           0        1.036510    0.148721    0.000000
      4          1           0        1.036510   -0.965306   -0.000000
      5          1           0        0.000000    0.557014    0.000000
      6          1           0       -0.000000   -0.557014    0.000000
      7          1           0       -1.036510    0.965306   -0.000000
      8          1           0       -1.036510   -0.148721    0.000000
      9          1           0       -2.073021    1.373598   -0.000000
     10          1           0       -2.073021    0.259571   -0.000000
 ---------------------------------------------------------------------

 SCF Done:  E(UHF) =  -4.71082568025     A.U. after   10 cycles
 E2 =    -0.5645870732D-01 EUMP2 =    -0.47672843875672D+01

 The electronic state is 5-BU.
 Alpha  occ. eigenvalues --   -0.95115  -0.82521  -0.63844  -0.54678  -0.39815
 Alpha  occ. eigenvalues --   -0.37779  -0.16295
 Alpha virt. eigenvalues --    0.20375   0.37102   0.61304
  Beta  occ. eigenvalues --   -0.78592  -0.64710  -0.43643
  Beta virt. eigenvalues --   -0.02778   0.04417   0.12562   0.35095   0.35446
  Beta virt. eigenvalues --    0.64599   0.76979

 Mulliken charges and spin densities:
               1          2
     1  H   -0.092206   0.631912
     2  H   -0.007561   0.479128
     3  H    0.094370   0.456248
     4  H    0.026679   0.129949
     5  H   -0.021282   0.302764
     6  H   -0.021282   0.302764
     7  H    0.026679   0.129949
     8  H    0.094370   0.456248
     9  H   -0.007561   0.479128
    10  H   -0.092206   0.631912
 Sum of Mulliken charges =  -0.00000   4.00000

 Dipole moment (field-independent basis, Debye):
    X=             -0.0000    Y=             -0.0000    Z=              0.0000  Tot=              0.0000
 Quadrupole moment (field-independent basis, Debye-Ang):
   XX=            -18.6085   YY=            -14.9509   ZZ=            -12.5715
   XY=              1.0794   XZ=              0.0000   YZ=             -0.0000

 Normal termination of Gaussian 09 at Thu Feb 23 12:46:04 2017.
