 Gaussian 09, Revision E.01,
 Gaussian 09:  ES64L-G09RevE.01 30-Nov-2015

 ----------------------------------------------------------------------
 #uhf/gen scf(tight,novaracc,noincfock,fulldiag, ) stable(crhf) guess=r
 ead geom=nocrowd test
 ----------------------------------------------------------------------

 hf stability analysis of h10 triangular lattice, y= 0.6837609579800398
 9 alpha= 39.000000000000000
 ----------------------------------------------------------------------
 Symbolic Z-matrix:
 Charge =  0 Multiplicity = 5

                         Standard orientation:
 ---------------------------------------------------------------------
 Center     Atomic      Atomic             Coordinates (Angstroms)
 Number     Number       Type             X           Y           Z
 ---------------------------------------------------------------------
      1          1           0        2.125528    0.091458    0.000000
      2          1           0        2.125528   -0.995048    0.000000
      3          1           0        1.062764    0.317356    0.000000
      4          1           0        1.062764   -0.769151    0.000000
      5          1           0       -0.000000    0.543253    0.000000
      6          1           0       -0.000000   -0.543253    0.000000
      7          1           0       -1.062764    0.769151    0.000000
      8          1           0       -1.062764   -0.317356    0.000000
      9          1           0       -2.125528    0.995048    0.000000
     10          1           0       -2.125528   -0.091458    0.000000
 ---------------------------------------------------------------------

 SCF Done:  E(UHF) =  -4.71264647263     A.U. after   11 cycles
 E2 =    -0.5671957591D-01 EUMP2 =    -0.47693660485387D+01

 The electronic state is 5-BU.
 Alpha  occ. eigenvalues --   -0.96280  -0.83450  -0.63551  -0.57320  -0.41970
 Alpha  occ. eigenvalues --   -0.36447  -0.17391
 Alpha virt. eigenvalues --    0.22964   0.36770   0.72444
  Beta  occ. eigenvalues --   -0.79381  -0.64718  -0.43085
  Beta virt. eigenvalues --   -0.05171   0.05983   0.09994   0.32867   0.39189
  Beta virt. eigenvalues --    0.63451   0.90069

 Mulliken charges and spin densities:
               1          2
     1  H   -0.079159   0.573054
     2  H   -0.038107   0.467906
     3  H    0.094268   0.421203
     4  H    0.045573   0.247521
     5  H   -0.022575   0.290317
     6  H   -0.022575   0.290317
     7  H    0.045573   0.247521
     8  H    0.094268   0.421203
     9  H   -0.038107   0.467906
    10  H   -0.079159   0.573054
 Sum of Mulliken charges =  -0.00000   4.00000

 Dipole moment (field-independent basis, Debye):
    X=              0.0000    Y=             -0.0000    Z=              0.0000  Tot=              0.0000
 Quadrupole moment (field-independent basis, Debye-Ang):
   XX=            -19.7336   YY=            -14.7138   ZZ=            -12.5400
   XY=              0.9752   XZ=              0.0000   YZ=              0.0000

 Normal termination of Gaussian 09 at Thu Feb 23 12:46:53 2017.
