 Gaussian 09, Revision E.01,
 Gaussian 09:  ES64L-G09RevE.01 30-Nov-2015

 ----------------------------------------------------------------------
 #uhf/gen scf(tight,novaracc,noincfock,fulldiag, ) stable(crhf) guess=r
 ead geom=nocrowd test
 ----------------------------------------------------------------------

 hf stability analysis of h10 triangular lattice, y= 0.6093965744756328
 9 alpha= 32.750000000000000
 ----------------------------------------------------------------------
 Symbolic Z-matrix:
 Charge =  0 Multiplicity = 5

                         Standard orientation:
 ---------------------------------------------------------------------
 Center     Atomic      Atomic             Coordinates (Angstroms)
 Number     Number       Type             X           Y           Z
 ---------------------------------------------------------------------
      1          1           0        2.050105   -0.371047    0.000000
      2          1           0        2.050105   -1.497526    0.000000
      3          1           0        1.025053    0.096096   -0.000000
      4          1           0        1.025053   -1.030383    0.000000
      5          1           0        0.000000    0.563240   -0.000000
      6          1           0       -0.000000   -0.563240    0.000000
      7          1           0       -1.025053    1.030383   -0.000000
      8          1           0       -1.025053   -0.096096   -0.000000
      9          1           0       -2.050105    1.497526   -0.000000
     10          1           0       -2.050105    0.371047   -0.000000
 ---------------------------------------------------------------------

 SCF Done:  E(UHF) =  -4.70853943513     A.U. after   10 cycles
 E2 =    -0.5604073631D-01 EUMP2 =    -0.47645801714326D+01

 The electronic state is 5-BU.
 Alpha  occ. eigenvalues --   -0.94596  -0.82109  -0.63972  -0.53514  -0.38912
 Alpha  occ. eigenvalues --   -0.38399  -0.15870
 Alpha virt. eigenvalues --    0.19258   0.37378   0.57227
  Beta  occ. eigenvalues --   -0.78284  -0.64757  -0.43851
  Beta virt. eigenvalues --   -0.01756   0.03924   0.13626   0.33409   0.36461
  Beta virt. eigenvalues --    0.65134   0.72038

 Mulliken charges and spin densities:
               1          2
     1  H   -0.097491   0.651542
     2  H    0.002096   0.495445
     3  H    0.092393   0.465609
     4  H    0.024653   0.080711
     5  H   -0.021651   0.306692
     6  H   -0.021651   0.306692
     7  H    0.024653   0.080711
     8  H    0.092393   0.465609
     9  H    0.002096   0.495445
    10  H   -0.097491   0.651542
 Sum of Mulliken charges =   0.00000   4.00000

 Dipole moment (field-independent basis, Debye):
    X=             -0.0000    Y=             -0.0000    Z=              0.0000  Tot=              0.0000
 Quadrupole moment (field-independent basis, Debye-Ang):
   XX=            -18.2573   YY=            -14.9472   ZZ=            -12.5833
   XY=              0.9977   XZ=             -0.0000   YZ=              0.0000

 Normal termination of Gaussian 09 at Thu Feb 23 12:45:49 2017.
