 Gaussian 09, Revision E.01,
 Gaussian 09:  ES64L-G09RevE.01 30-Nov-2015

 ----------------------------------------------------------------------
 #uhf/gen scf(tight,novaracc,noincfock,fulldiag, ) stable(crhf) guess=r
 ead geom=nocrowd test
 ----------------------------------------------------------------------

 hf stability analysis of h10 triangular lattice, y= 0.3864103211392155
 8 alpha= 14.500000000000000
 ----------------------------------------------------------------------
 Symbolic Z-matrix:
 Charge =  0 Multiplicity = 5

                         Standard orientation:
 ---------------------------------------------------------------------
 Center     Atomic      Atomic             Coordinates (Angstroms)
 Number     Number       Type             X           Y           Z
 ---------------------------------------------------------------------
      1          1           0        1.496409   -1.927945    0.000000
      2          1           0        1.496409   -3.471241    0.000000
      3          1           0        0.748204   -0.578149    0.000000
      4          1           0        0.748204   -2.121444    0.000000
      5          1           0        0.000000    0.771648    0.000000
      6          1           0       -0.000000   -0.771648   -0.000000
      7          1           0       -0.748204    2.121444   -0.000000
      8          1           0       -0.748204    0.578149   -0.000000
      9          1           0       -1.496409    3.471241   -0.000000
     10          1           0       -1.496409    1.927945   -0.000000
 ---------------------------------------------------------------------

 SCF Done:  E(UHF) =  -4.83643770732     A.U. after    9 cycles
 E2 =    -0.4822420541D-01 EUMP2 =    -0.48846619127252D+01

 The electronic state is 5-BU.
 Alpha  occ. eigenvalues --   -0.84328  -0.75533  -0.66546  -0.57497  -0.43217
 Alpha  occ. eigenvalues --   -0.40417  -0.16333
 Alpha virt. eigenvalues --    0.22131   0.41056   0.54112
  Beta  occ. eigenvalues --   -0.69450  -0.65196  -0.50998
  Beta virt. eigenvalues --   -0.07570   0.18365   0.19768   0.25062   0.33437
  Beta virt. eigenvalues --    0.50745   0.70942

 Mulliken charges and spin densities:
               1          2
     1  H    0.001666   0.083698
     2  H   -0.010361   0.988681
     3  H    0.033628   0.470881
     4  H   -0.007196   0.029241
     5  H   -0.017738   0.427499
     6  H   -0.017738   0.427499
     7  H   -0.007196   0.029241
     8  H    0.033628   0.470881
     9  H   -0.010361   0.988681
    10  H    0.001666   0.083698
 Sum of Mulliken charges =  -0.00000   4.00000

 Dipole moment (field-independent basis, Debye):
    X=              0.0000    Y=              0.0000    Z=             -0.0000  Tot=              0.0000
 Quadrupole moment (field-independent basis, Debye-Ang):
   XX=            -13.4247   YY=            -17.5832   ZZ=            -12.8572
   XY=              1.3145   XZ=             -0.0000   YZ=              0.0000

 Normal termination of Gaussian 09 at Thu Feb 23 12:42:49 2017.
