 Gaussian 09, Revision E.01,
 Gaussian 09:  ES64L-G09RevE.01 30-Nov-2015

 ----------------------------------------------------------------------
 #uhf/gen scf(tight,novaracc,noincfock,fulldiag, ) stable(crhf) guess=r
 ead geom=nocrowd test
 ----------------------------------------------------------------------

 hf stability analysis of h10 triangular lattice, y= 0.3503135618487248
 1 alpha= 12.000000000000000
 ----------------------------------------------------------------------
 Symbolic Z-matrix:
 Charge =  0 Multiplicity = 5

                         Standard orientation:
 ---------------------------------------------------------------------
 Center     Atomic      Atomic             Coordinates (Angstroms)
 Number     Number       Type             X           Y           Z
 ---------------------------------------------------------------------
      1          1           0        1.370633   -2.236036    0.000000
      2          1           0        1.370633   -3.920951    0.000000
      3          1           0        0.685317   -0.696789    0.000000
      4          1           0        0.685317   -2.381704    0.000000
      5          1           0        0.000000    0.842458    0.000000
      6          1           0       -0.000000   -0.842458    0.000000
      7          1           0       -0.685317    2.381704    0.000000
      8          1           0       -0.685317    0.696789    0.000000
      9          1           0       -1.370633    3.920951    0.000000
     10          1           0       -1.370633    2.236036    0.000000
 ---------------------------------------------------------------------

 SCF Done:  E(UHF) =  -4.76363953908     A.U. after    9 cycles
 E2 =    -0.4900562337D-01 EUMP2 =    -0.48126451624408D+01

 The electronic state is 5-BU.
 Alpha  occ. eigenvalues --   -0.83096  -0.75156  -0.67334  -0.61286  -0.46074
 Alpha  occ. eigenvalues --   -0.45149  -0.09486
 Alpha virt. eigenvalues --    0.27810   0.45502   0.55480
  Beta  occ. eigenvalues --   -0.68542  -0.66000  -0.53235
  Beta virt. eigenvalues --   -0.13521   0.16380   0.16919   0.31543   0.38938
  Beta virt. eigenvalues --    0.54103   0.71967

 Mulliken charges and spin densities:
               1          2
     1  H   -0.001575   0.046511
     2  H   -0.000274   0.999477
     3  H    0.027440   0.478174
     4  H   -0.016520   0.029917
     5  H   -0.009069   0.445921
     6  H   -0.009069   0.445921
     7  H   -0.016520   0.029917
     8  H    0.027440   0.478174
     9  H   -0.000274   0.999477
    10  H   -0.001575   0.046511
 Sum of Mulliken charges =  -0.00000   4.00000

 Dipole moment (field-independent basis, Debye):
    X=             -0.0000    Y=              0.0000    Z=              0.0000  Tot=              0.0000
 Quadrupole moment (field-independent basis, Debye-Ang):
   XX=            -13.4895   YY=            -16.5751   ZZ=            -12.9721
   XY=              0.6144   XZ=              0.0000   YZ=             -0.0000

 Normal termination of Gaussian 09 at Thu Feb 23 12:42:25 2017.
