 Gaussian 09, Revision E.01,
 Gaussian 09:  ES64L-G09RevE.01 30-Nov-2015

 ----------------------------------------------------------------------
 #uhf/gen scf(tight,novaracc,noincfock,fulldiag, ) stable(crhf) guess=r
 ead geom=nocrowd test
 ----------------------------------------------------------------------

 hf stability analysis of h10 triangular lattice, y= 1.6660489144325314
  alpha= 78.250000000000000
 ----------------------------------------------------------------------
 Symbolic Z-matrix:
 Charge =  0 Multiplicity = 5

                         Standard orientation:
 ---------------------------------------------------------------------
 Center     Atomic      Atomic             Coordinates (Angstroms)
 Number     Number       Type             X           Y           Z
 ---------------------------------------------------------------------
      1          1           0        1.357108    3.971989   -0.000000
      2          1           0        1.357108    2.270282   -0.000000
      3          1           0        0.678554    2.411422   -0.000000
      4          1           0        0.678554    0.709714   -0.000000
      5          1           0       -0.000000    0.850854    0.000000
      6          1           0       -0.000000   -0.850854   -0.000000
      7          1           0       -0.678554   -0.709714   -0.000000
      8          1           0       -0.678554   -2.411422   -0.000000
      9          1           0       -1.357108   -2.270282   -0.000000
     10          1           0       -1.357108   -3.971989   -0.000000
 ---------------------------------------------------------------------

 SCF Done:  E(UHF) =  -4.75097044356     A.U. after    9 cycles
 E2 =    -0.4926482505D-01 EUMP2 =    -0.48002352686143D+01

 The electronic state is 5-BU.
 Alpha  occ. eigenvalues --   -0.82987  -0.75149  -0.67435  -0.61728  -0.46326
 Alpha  occ. eigenvalues --   -0.45522  -0.08726
 Alpha virt. eigenvalues --    0.28428   0.46002   0.55625
  Beta  occ. eigenvalues --   -0.68485  -0.66115  -0.53454
  Beta virt. eigenvalues --   -0.14170   0.16199   0.16676   0.32298   0.39563
  Beta virt. eigenvalues --    0.54486   0.72078

 Mulliken charges and spin densities:
               1          2
     1  H    0.000443   1.000228
     2  H   -0.002021   0.043617
     3  H   -0.017065   0.029224
     4  H    0.026838   0.479094
     5  H   -0.008195   0.447836
     6  H   -0.008195   0.447836
     7  H    0.026838   0.479094
     8  H   -0.017065   0.029224
     9  H   -0.002021   0.043617
    10  H    0.000443   1.000228
 Sum of Mulliken charges =   0.00000   4.00000

 Dipole moment (field-independent basis, Debye):
    X=              0.0000    Y=              0.0000    Z=             -0.0000  Tot=              0.0000
 Quadrupole moment (field-independent basis, Debye-Ang):
   XX=            -13.5096   YY=            -16.4741   ZZ=            -12.9835
   XY=             -0.5601   XZ=              0.0000   YZ=              0.0000

 Normal termination of Gaussian 09 at Thu Feb 23 12:53:30 2017.
