 Gaussian 09, Revision E.01,
 Gaussian 09:  ES64L-G09RevE.01 30-Nov-2015

 ----------------------------------------------------------------------
 #uhf/gen scf(tight,novaracc,noincfock,fulldiag, ) stable(crhf) guess=r
 ead geom=nocrowd test
 ----------------------------------------------------------------------

 hf stability analysis of h10 triangular lattice, y= 0.8406196945607729
 0 alpha= 50.750000000000000
 ----------------------------------------------------------------------
 Symbolic Z-matrix:
 Charge =  0 Multiplicity = 5

                         Standard orientation:
 ---------------------------------------------------------------------
 Center     Atomic      Atomic             Coordinates (Angstroms)
 Number     Number       Type             X           Y           Z
 ---------------------------------------------------------------------
      1          1           0        2.127458    0.975597   -0.000000
      2          1           0        2.127458   -0.109924   -0.000000
      3          1           0        1.063729    0.759179   -0.000000
      4          1           0        1.063729   -0.326342   -0.000000
      5          1           0        0.000000    0.542761    0.000000
      6          1           0       -0.000000   -0.542761    0.000000
      7          1           0       -1.063729    0.326342   -0.000000
      8          1           0       -1.063729   -0.759179   -0.000000
      9          1           0       -2.127458    0.109924   -0.000000
     10          1           0       -2.127458   -0.975597   -0.000000
 ---------------------------------------------------------------------

 SCF Done:  E(UHF) =  -4.71260112871     A.U. after   11 cycles
 E2 =    -0.5671619370D-01 EUMP2 =    -0.47693173224091D+01

 The electronic state is 5-BU.
 Alpha  occ. eigenvalues --   -0.96322  -0.83484  -0.63539  -0.57416  -0.42051
 Alpha  occ. eigenvalues --   -0.36400  -0.17432
 Alpha virt. eigenvalues --    0.23054   0.36770   0.72908
  Beta  occ. eigenvalues --   -0.79411  -0.64720  -0.43062
  Beta virt. eigenvalues --   -0.05260   0.06052   0.09896   0.32764   0.39343
  Beta virt. eigenvalues --    0.63413   0.90608

 Mulliken charges and spin densities:
               1          2
     1  H   -0.039534   0.468536
     2  H   -0.078586   0.570040
     3  H    0.046867   0.252691
     4  H    0.093941   0.418989
     5  H   -0.022688   0.289744
     6  H   -0.022688   0.289744
     7  H    0.093941   0.418989
     8  H    0.046867   0.252691
     9  H   -0.078586   0.570040
    10  H   -0.039534   0.468536
 Sum of Mulliken charges =  -0.00000   4.00000

 Dipole moment (field-independent basis, Debye):
    X=             -0.0000    Y=              0.0000    Z=              0.0000  Tot=              0.0000
 Quadrupole moment (field-independent basis, Debye-Ang):
   XX=            -19.7847   YY=            -14.6961   ZZ=            -12.5388
   XY=             -0.9508   XZ=             -0.0000   YZ=             -0.0000

 Normal termination of Gaussian 09 at Thu Feb 23 12:48:54 2017.
