 Gaussian 09, Revision E.01,
 Gaussian 09:  ES64L-G09RevE.01 30-Nov-2015

 ----------------------------------------------------------------------
 #uhf/gen scf(tight,novaracc,noincfock,fulldiag, ) stable(crhf) guess=r
 ead geom=nocrowd test
 ----------------------------------------------------------------------

 hf stability analysis of h10 triangular lattice, y= 0.7902999627936464
 5 alpha= 47.250000000000000
 ----------------------------------------------------------------------
 Symbolic Z-matrix:
 Charge =  0 Multiplicity = 5

                         Standard orientation:
 ---------------------------------------------------------------------
 Center     Atomic      Atomic             Coordinates (Angstroms)
 Number     Number       Type             X           Y           Z
 ---------------------------------------------------------------------
      1          1           0        2.145825    0.706995    0.000000
      2          1           0        2.145825   -0.369235    0.000000
      3          1           0        1.072912    0.622555    0.000000
      4          1           0        1.072912   -0.453675    0.000000
      5          1           0        0.000000    0.538115    0.000000
      6          1           0       -0.000000   -0.538115    0.000000
      7          1           0       -1.072912    0.453675    0.000000
      8          1           0       -1.072912   -0.622555    0.000000
      9          1           0       -2.145825    0.369235    0.000000
     10          1           0       -2.145825   -0.706995    0.000000
 ---------------------------------------------------------------------

 SCF Done:  E(UHF) =  -4.71170838962     A.U. after   11 cycles
 E2 =    -0.5665137787D-01 EUMP2 =    -0.47683597674857D+01

 The electronic state is 5-BU.
 Alpha  occ. eigenvalues --   -0.96718  -0.83805  -0.63421  -0.58330  -0.42827
 Alpha  occ. eigenvalues --   -0.35974  -0.17812
 Alpha virt. eigenvalues --    0.23880   0.36829   0.77546
  Beta  occ. eigenvalues --   -0.79708  -0.64744  -0.42826
  Beta virt. eigenvalues --   -0.06103   0.06752   0.08946   0.31747   0.40822
  Beta virt. eigenvalues --    0.63074   0.95986

 Mulliken charges and spin densities:
               1          2
     1  H   -0.056500   0.486768
     2  H   -0.070587   0.529353
     3  H    0.065566   0.317692
     4  H    0.085559   0.382419
     5  H   -0.024039   0.283768
     6  H   -0.024039   0.283768
     7  H    0.085559   0.382419
     8  H    0.065566   0.317692
     9  H   -0.070587   0.529353
    10  H   -0.056500   0.486768
 Sum of Mulliken charges =  -0.00000   4.00000

 Dipole moment (field-independent basis, Debye):
    X=              0.0000    Y=             -0.0000    Z=             -0.0000  Tot=              0.0000
 Quadrupole moment (field-independent basis, Debye-Ang):
   XX=            -20.3126   YY=            -14.4870   ZZ=            -12.5269
   XY=             -0.4375   XZ=              0.0000   YZ=              0.0000

 Normal termination of Gaussian 09 at Thu Feb 23 12:48:18 2017.
