 Gaussian 09, Revision E.01,
 Gaussian 09:  ES64L-G09RevE.01 30-Nov-2015

 ----------------------------------------------------------------------
 #uhf/gen scf(tight,novaracc,noincfock,fulldiag, ) stable(crhf) guess=r
 ead geom=nocrowd test
 ----------------------------------------------------------------------

 hf stability analysis of h10 triangular lattice, y= 1.2426558648313226
  alpha= 69.500000000000000
 ----------------------------------------------------------------------
 Symbolic Z-matrix:
 Charge =  0 Multiplicity = 5

                         Standard orientation:
 ---------------------------------------------------------------------
 Center     Atomic      Atomic             Coordinates (Angstroms)
 Number     Number       Type             X           Y           Z
 ---------------------------------------------------------------------
      1          1           0        1.740749    2.665838    0.000000
      2          1           0        1.740749    1.339167    0.000000
      3          1           0        0.870375    1.664587    0.000000
      4          1           0        0.870375    0.337916    0.000000
      5          1           0        0.000000    0.663336    0.000000
      6          1           0       -0.000000   -0.663336   -0.000000
      7          1           0       -0.870375   -0.337916   -0.000000
      8          1           0       -0.870375   -1.664587   -0.000000
      9          1           0       -1.740749   -1.339167   -0.000000
     10          1           0       -1.740749   -2.665838   -0.000000
 ---------------------------------------------------------------------

 SCF Done:  E(UHF) =  -4.77439580569     A.U. after   11 cycles
 E2 =    -0.4980095832D-01 EUMP2 =    -0.48241967640044D+01

 The electronic state is 5-BU.
 Alpha  occ. eigenvalues --   -0.87849  -0.77268  -0.65602  -0.51955  -0.35956
 Alpha  occ. eigenvalues --   -0.31309  -0.23339
 Alpha virt. eigenvalues --    0.13091   0.34595   0.48918
  Beta  occ. eigenvalues --   -0.73035  -0.65265  -0.46871
  Beta virt. eigenvalues --    0.01461   0.12287   0.22058   0.25332   0.32466
  Beta virt. eigenvalues --    0.45292   0.68988

 Mulliken charges and spin densities:
               1          2
     1  H   -0.039793   0.930939
     2  H   -0.032523   0.380150
     3  H    0.056776  -0.172061
     4  H    0.052197   0.480928
     5  H   -0.036657   0.380044
     6  H   -0.036657   0.380044
     7  H    0.052197   0.480928
     8  H    0.056776  -0.172061
     9  H   -0.032523   0.380150
    10  H   -0.039793   0.930939
 Sum of Mulliken charges =  -0.00000   4.00000

 Dipole moment (field-independent basis, Debye):
    X=             -0.0000    Y=              0.0000    Z=              0.0000  Tot=              0.0000
 Quadrupole moment (field-independent basis, Debye-Ang):
   XX=            -15.0112   YY=            -18.2763   ZZ=            -12.6284
   XY=             -3.2326   XZ=             -0.0000   YZ=             -0.0000

 Normal termination of Gaussian 09 at Thu Feb 23 12:52:04 2017.
