 Gaussian 09, Revision E.01,
 Gaussian 09:  ES64L-G09RevE.01 30-Nov-2015

 ----------------------------------------------------------------------
 #uhf/gen scf(tight,novaracc,noincfock,fulldiag, ) stable(crhf) guess=r
 ead geom=nocrowd test
 ----------------------------------------------------------------------

 hf stability analysis of h10 triangular lattice, y= 0.5010379721798762
 2 alpha= 23.500000000000000
 ----------------------------------------------------------------------
 Symbolic Z-matrix:
 Charge =  0 Multiplicity = 5

                         Standard orientation:
 ---------------------------------------------------------------------
 Center     Atomic      Atomic             Coordinates (Angstroms)
 Number     Number       Type             X           Y           Z
 ---------------------------------------------------------------------
      1          1           0        1.837928   -1.085633    0.000000
      2          1           0        1.837928   -2.342157    0.000000
      3          1           0        0.918964   -0.228685    0.000000
      4          1           0        0.918964   -1.485210    0.000000
      5          1           0        0.000000    0.628262    0.000000
      6          1           0       -0.000000   -0.628262    0.000000
      7          1           0       -0.918964    1.485210   -0.000000
      8          1           0       -0.918964    0.228685   -0.000000
      9          1           0       -1.837928    2.342157   -0.000000
     10          1           0       -1.837928    1.085633   -0.000000
 ---------------------------------------------------------------------

 SCF Done:  E(UHF) =  -4.71731509300     A.U. after   11 cycles
 E2 =    -0.4465293296D-01 EUMP2 =    -0.47619680259604D+01

 The electronic state is 5-BU.
 Alpha  occ. eigenvalues --   -0.89789  -0.78437  -0.65440  -0.49651  -0.36988
 Alpha  occ. eigenvalues --   -0.34624  -0.18134
 Alpha virt. eigenvalues --    0.13062   0.36366   0.44228
  Beta  occ. eigenvalues --   -0.75535  -0.66294  -0.46042
  Beta virt. eigenvalues --    0.02914   0.08018   0.20679   0.25165   0.39337
  Beta virt. eigenvalues --    0.44258   0.68682

 Mulliken charges and spin densities:
               1          2
     1  H   -0.087980   0.644150
     2  H   -0.021206   0.843866
     3  H    0.065219   0.502496
     4  H    0.083441  -0.338300
     5  H   -0.039475   0.347788
     6  H   -0.039475   0.347788
     7  H    0.083441  -0.338300
     8  H    0.065219   0.502496
     9  H   -0.021206   0.843866
    10  H   -0.087980   0.644150
 Sum of Mulliken charges =   0.00000   4.00000

 Dipole moment (field-independent basis, Debye):
    X=             -0.0000    Y=              0.0000    Z=              0.0000  Tot=              0.0000
 Quadrupole moment (field-independent basis, Debye-Ang):
   XX=            -16.6222   YY=            -16.4839   ZZ=            -12.5870
   XY=              2.5870   XZ=             -0.0000   YZ=              0.0000

 Normal termination of Gaussian 09 at Thu Feb 23 12:44:17 2017.
