 Gaussian 09, Revision E.01,
 Gaussian 09:  ES64L-G09RevE.01 30-Nov-2015

 ----------------------------------------------------------------------
 #uhf/gen scf(tight,novaracc,noincfock,fulldiag, ) stable(crhf) guess=r
 ead geom=nocrowd test
 ----------------------------------------------------------------------

 hf stability analysis of h10 triangular lattice, y= 1.0205721581109972
  alpha= 61.000000000000000
 ----------------------------------------------------------------------
 Symbolic Z-matrix:
 Charge =  0 Multiplicity = 5

                         Standard orientation:
 ---------------------------------------------------------------------
 Center     Atomic      Atomic             Coordinates (Angstroms)
 Number     Number       Type             X           Y           Z
 ---------------------------------------------------------------------
      1          1           0        1.979133    1.820137   -0.000000
      2          1           0        1.979133    0.653262   -0.000000
      3          1           0        0.989566    1.201787   -0.000000
      4          1           0        0.989566    0.034912   -0.000000
      5          1           0        0.000000    0.583438    0.000000
      6          1           0       -0.000000   -0.583438   -0.000000
      7          1           0       -0.989566   -0.034912   -0.000000
      8          1           0       -0.989566   -1.201787   -0.000000
      9          1           0       -1.979133   -0.653262   -0.000000
     10          1           0       -1.979133   -1.820137   -0.000000
 ---------------------------------------------------------------------

 SCF Done:  E(UHF) =  -4.69948823501     A.U. after   10 cycles
 E2 =    -0.5268905096D-01 EUMP2 =    -0.47521772859696D+01

 The electronic state is 5-BU.
 Alpha  occ. eigenvalues --   -0.92956  -0.80809  -0.64457  -0.50041  -0.40293
 Alpha  occ. eigenvalues --   -0.36428  -0.15115
 Alpha virt. eigenvalues --    0.16245   0.38631   0.47151
  Beta  occ. eigenvalues --   -0.77517  -0.65247  -0.44485
  Beta virt. eigenvalues --    0.01134   0.03370   0.16669   0.28852   0.39225
  Beta virt. eigenvalues --    0.58885   0.66754

 Mulliken charges and spin densities:
               1          2
     1  H    0.016887   0.587069
     2  H   -0.111379   0.703011
     3  H    0.035903  -0.094143
     4  H    0.084791   0.488200
     5  H   -0.026203   0.315863
     6  H   -0.026203   0.315863
     7  H    0.084791   0.488200
     8  H    0.035903  -0.094143
     9  H   -0.111379   0.703011
    10  H    0.016887   0.587069
 Sum of Mulliken charges =   0.00000   4.00000

 Dipole moment (field-independent basis, Debye):
    X=             -0.0000    Y=              0.0000    Z=              0.0000  Tot=              0.0000
 Quadrupole moment (field-independent basis, Debye-Ang):
   XX=            -17.6013   YY=            -14.8434   ZZ=            -12.6049
   XY=             -0.8859   XZ=              0.0000   YZ=             -0.0000

 Normal termination of Gaussian 09 at Thu Feb 23 12:50:38 2017.
