 Gaussian 09, Revision E.01,
 Gaussian 09:  ES64L-G09RevE.01 30-Nov-2015

 ----------------------------------------------------------------------
 #uhf/gen scf(tight,novaracc,noincfock,fulldiag, ) stable(crhf) guess=r
 ead geom=nocrowd test
 ----------------------------------------------------------------------

 hf stability analysis of h10 triangular lattice, y= 1.5077541156608558
  alpha= 75.750000000000000
 ----------------------------------------------------------------------
 Symbolic Z-matrix:
 Charge =  0 Multiplicity = 5

                         Standard orientation:
 ---------------------------------------------------------------------
 Center     Atomic      Atomic             Coordinates (Angstroms)
 Number     Number       Type             X           Y           Z
 ---------------------------------------------------------------------
      1          1           0        1.484555    3.512019   -0.000000
      2          1           0        1.484555    1.956400   -0.000000
      3          1           0        0.742277    2.144914   -0.000000
      4          1           0        0.742277    0.589295   -0.000000
      5          1           0       -0.000000    0.777810   -0.000000
      6          1           0       -0.000000   -0.777810   -0.000000
      7          1           0       -0.742277   -0.589295   -0.000000
      8          1           0       -0.742277   -2.144914   -0.000000
      9          1           0       -1.484555   -1.956400   -0.000000
     10          1           0       -1.484555   -3.512019   -0.000000
 ---------------------------------------------------------------------

 SCF Done:  E(UHF) =  -4.83292054605     A.U. after    9 cycles
 E2 =    -0.4818510347D-01 EUMP2 =    -0.48811056495131D+01

 The electronic state is 5-BU.
 Alpha  occ. eigenvalues --   -0.84195  -0.75478  -0.66610  -0.57822  -0.43525
 Alpha  occ. eigenvalues --   -0.40964  -0.15703
 Alpha virt. eigenvalues --    0.22658   0.41459   0.54251
  Beta  occ. eigenvalues --   -0.69339  -0.65253  -0.51217
  Beta virt. eigenvalues --   -0.08113   0.18155   0.19474   0.25603   0.33932
  Beta virt. eigenvalues --    0.51046   0.71041

 Mulliken charges and spin densities:
               1          2
     1  H   -0.009133   0.990026
     2  H    0.001506   0.079108
     3  H   -0.008468   0.030161
     4  H    0.032984   0.471424
     5  H   -0.016889   0.429281
     6  H   -0.016889   0.429281
     7  H    0.032984   0.471424
     8  H   -0.008468   0.030161
     9  H    0.001506   0.079108
    10  H   -0.009133   0.990026
 Sum of Mulliken charges =  -0.00000   4.00000

 Dipole moment (field-independent basis, Debye):
    X=              0.0000    Y=             -0.0000    Z=              0.0000  Tot=              0.0000
 Quadrupole moment (field-independent basis, Debye-Ang):
   XX=            -13.4181   YY=            -17.4871   ZZ=            -12.8686
   XY=             -1.2328   XZ=             -0.0000   YZ=             -0.0000

 Normal termination of Gaussian 09 at Thu Feb 23 12:53:05 2017.
