 Gaussian 09, Revision E.01,
 Gaussian 09:  ES64L-G09RevE.01 30-Nov-2015

 ----------------------------------------------------------------------
 #uhf/gen scf(tight,novaracc,noincfock,fulldiag, ) stable(crhf) guess=r
 ead geom=nocrowd test
 ----------------------------------------------------------------------

 hf stability analysis of h10 triangular lattice, y= 0.7800001708434697
 3 alpha= 46.500000000000000
 ----------------------------------------------------------------------
 Symbolic Z-matrix:
 Charge =  0 Multiplicity = 5

                         Standard orientation:
 ---------------------------------------------------------------------
 Center     Atomic      Atomic             Coordinates (Angstroms)
 Number     Number       Type             X           Y           Z
 ---------------------------------------------------------------------
      1          1           0        2.147667    0.650208    0.000000
      2          1           0        2.147667   -0.425099    0.000000
      3          1           0        1.073833    0.593931    0.000000
      4          1           0        1.073833   -0.481376    0.000000
      5          1           0        0.000000    0.537654    0.000000
      6          1           0       -0.000000   -0.537654   -0.000000
      7          1           0       -1.073833    0.481376    0.000000
      8          1           0       -1.073833   -0.593931    0.000000
      9          1           0       -2.147667    0.425099    0.000000
     10          1           0       -2.147667   -0.650208    0.000000
 ---------------------------------------------------------------------

 SCF Done:  E(UHF) =  -4.71157098692     A.U. after   11 cycles
 E2 =    -0.5664193788D-01 EUMP2 =    -0.47682129247932D+01

 The electronic state is 5-BU.
 Alpha  occ. eigenvalues --   -0.96757  -0.83837  -0.63409  -0.58421  -0.42906
 Alpha  occ. eigenvalues --   -0.35933  -0.17849
 Alpha virt. eigenvalues --    0.23957   0.36843   0.78035
  Beta  occ. eigenvalues --   -0.79738  -0.64746  -0.42801
  Beta virt. eigenvalues --   -0.06188   0.06827   0.08849   0.31641   0.40971
  Beta virt. eigenvalues --    0.63043   0.96552

 Mulliken charges and spin densities:
               1          2
     1  H   -0.059386   0.492642
     2  H   -0.068689   0.521234
     3  H    0.069421   0.329935
     4  H    0.082859   0.373077
     5  H   -0.024205   0.283112
     6  H   -0.024205   0.283112
     7  H    0.082859   0.373077
     8  H    0.069421   0.329935
     9  H   -0.068689   0.521234
    10  H   -0.059386   0.492642
 Sum of Mulliken charges =   0.00000   4.00000

 Dipole moment (field-independent basis, Debye):
    X=             -0.0000    Y=             -0.0000    Z=             -0.0000  Tot=              0.0000
 Quadrupole moment (field-independent basis, Debye-Ang):
   XX=            -20.3699   YY=            -14.4616   ZZ=            -12.5257
   XY=             -0.2964   XZ=              0.0000   YZ=             -0.0000

 Normal termination of Gaussian 09 at Thu Feb 23 12:48:10 2017.
