 Gaussian 09, Revision E.01,
 Gaussian 09:  ES64L-G09RevE.01 30-Nov-2015

 ----------------------------------------------------------------------
 #uhf/gen scf(tight,novaracc,noincfock,fulldiag, ) stable(crhf) guess=r
 ead geom=nocrowd test
 ----------------------------------------------------------------------

 hf stability analysis of h10 triangular lattice, y= 1.1321087319861824
  alpha= 65.750000000000000
 ----------------------------------------------------------------------
 Symbolic Z-matrix:
 Charge =  0 Multiplicity = 5

                         Standard orientation:
 ---------------------------------------------------------------------
 Center     Atomic      Atomic             Coordinates (Angstroms)
 Number     Number       Type             X           Y           Z
 ---------------------------------------------------------------------
      1          1           0        1.859914    2.266348   -0.000000
      2          1           0        1.859914    1.024677   -0.000000
      3          1           0        0.929957    1.443592   -0.000000
      4          1           0        0.929957    0.201921   -0.000000
      5          1           0       -0.000000    0.620836    0.000000
      6          1           0       -0.000000   -0.620836    0.000000
      7          1           0       -0.929957   -0.201921   -0.000000
      8          1           0       -0.929957   -1.443592   -0.000000
      9          1           0       -1.859914   -1.024677   -0.000000
     10          1           0       -1.859914   -2.266348   -0.000000
 ---------------------------------------------------------------------

 SCF Done:  E(UHF) =  -4.70871121191     A.U. after   11 cycles
 E2 =    -0.4448020361D-01 EUMP2 =    -0.47531914155109D+01

 The electronic state is 5-BU.
 Alpha  occ. eigenvalues --   -0.90262  -0.78759  -0.65355  -0.49109  -0.38262
 Alpha  occ. eigenvalues --   -0.34600  -0.17244
 Alpha virt. eigenvalues --    0.13359   0.37395   0.43103
  Beta  occ. eigenvalues --   -0.76017  -0.66360  -0.45845
  Beta virt. eigenvalues --    0.02939   0.07096   0.20223   0.25335   0.40580
  Beta virt. eigenvalues --    0.44759   0.68544

 Mulliken charges and spin densities:
               1          2
     1  H   -0.012986   0.811760
     2  H   -0.098283   0.680774
     3  H    0.081036  -0.337761
     4  H    0.068691   0.504467
     5  H   -0.038459   0.340759
     6  H   -0.038459   0.340759
     7  H    0.068691   0.504467
     8  H    0.081036  -0.337761
     9  H   -0.098283   0.680774
    10  H   -0.012986   0.811760
 Sum of Mulliken charges =  -0.00000   4.00000

 Dipole moment (field-independent basis, Debye):
    X=              0.0000    Y=             -0.0000    Z=              0.0000  Tot=              0.0000
 Quadrupole moment (field-independent basis, Debye-Ang):
   XX=            -16.8957   YY=            -16.0275   ZZ=            -12.5872
   XY=             -2.2533   XZ=             -0.0000   YZ=              0.0000

 Normal termination of Gaussian 09 at Thu Feb 23 12:51:26 2017.
