 Gaussian 09, Revision E.01,
 Gaussian 09:  ES64L-G09RevE.01 30-Nov-2015

 ----------------------------------------------------------------------
 #uhf/gen scf(tight,novaracc,noincfock,fulldiag, ) stable(crhf) guess=r
 ead geom=nocrowd test
 ----------------------------------------------------------------------

 hf stability analysis of h10 triangular lattice, y= 0.3794068973118231
 4 alpha= 14.000000000000000
 ----------------------------------------------------------------------
 Symbolic Z-matrix:
 Charge =  0 Multiplicity = 5

                         Standard orientation:
 ---------------------------------------------------------------------
 Center     Atomic      Atomic             Coordinates (Angstroms)
 Number     Number       Type             X           Y           Z
 ---------------------------------------------------------------------
      1          1           0        1.472548   -1.985307    0.000000
      2          1           0        1.472548   -3.553611    0.000000
      3          1           0        0.736274   -0.600578    0.000000
      4          1           0        0.736274   -2.168881    0.000000
      5          1           0       -0.000000    0.784152   -0.000000
      6          1           0       -0.000000   -0.784152   -0.000000
      7          1           0       -0.736274    2.168881    0.000000
      8          1           0       -0.736274    0.600578    0.000000
      9          1           0       -1.472548    3.553611    0.000000
     10          1           0       -1.472548    1.985307    0.000000
 ---------------------------------------------------------------------

 SCF Done:  E(UHF) =  -4.82866851501     A.U. after    9 cycles
 E2 =    -0.4816732480D-01 EUMP2 =    -0.48768358398062D+01

 The electronic state is 5-BU.
 Alpha  occ. eigenvalues --   -0.84064  -0.75426  -0.66677  -0.58159  -0.43829
 Alpha  occ. eigenvalues --   -0.41497  -0.15062
 Alpha virt. eigenvalues --    0.23194   0.41870   0.54388
  Beta  occ. eigenvalues --   -0.69232  -0.65314  -0.51438
  Beta virt. eigenvalues --   -0.08669   0.17947   0.19172   0.26178   0.34438
  Beta virt. eigenvalues --    0.51354   0.71140

 Mulliken charges and spin densities:
               1          2
     1  H    0.001297   0.074757
     2  H   -0.007949   0.991313
     3  H    0.032347   0.472013
     4  H   -0.009660   0.030843
     5  H   -0.016035   0.431074
     6  H   -0.016035   0.431074
     7  H   -0.009660   0.030843
     8  H    0.032347   0.472013
     9  H   -0.007949   0.991313
    10  H    0.001297   0.074757
 Sum of Mulliken charges =  -0.00000   4.00000

 Dipole moment (field-independent basis, Debye):
    X=             -0.0000    Y=              0.0000    Z=             -0.0000  Tot=              0.0000
 Quadrupole moment (field-independent basis, Debye-Ang):
   XX=            -13.4147   YY=            -17.3892   ZZ=            -12.8800
   XY=              1.1535   XZ=              0.0000   YZ=             -0.0000

 Normal termination of Gaussian 09 at Thu Feb 23 12:42:44 2017.
