 Gaussian 09, Revision E.01,
 Gaussian 09:  ES64L-G09RevE.01 30-Nov-2015

 ----------------------------------------------------------------------
 #uhf/gen scf(tight,novaracc,noincfock,fulldiag, ) stable(crhf) guess=r
 ead geom=nocrowd test
 ----------------------------------------------------------------------

 hf stability analysis of h10 triangular lattice, y= 0.2564775935039079
 2 alpha= 6.5000000000000000
 ----------------------------------------------------------------------
 Symbolic Z-matrix:
 Charge =  0 Multiplicity = 5

                         Standard orientation:
 ---------------------------------------------------------------------
 Center     Atomic      Atomic             Coordinates (Angstroms)
 Number     Number       Type             X           Y           Z
 ---------------------------------------------------------------------
      1          1           0        1.019316   -3.282322   -0.000000
      2          1           0        1.019316   -5.547960   -0.000000
      3          1           0        0.509658   -1.074751   -0.000000
      4          1           0        0.509658   -3.340390   -0.000000
      5          1           0        0.000000    1.132819    0.000000
      6          1           0       -0.000000   -1.132819    0.000000
      7          1           0       -0.509658    3.340390   -0.000000
      8          1           0       -0.509658    1.074751   -0.000000
      9          1           0       -1.019316    5.547960   -0.000000
     10          1           0       -1.019316    3.282322   -0.000000
 ---------------------------------------------------------------------

 SCF Done:  E(UHF) =  -4.06749761834     A.U. after    8 cycles
 E2 =    -0.7265490940D-01 EUMP2 =    -0.41401525277401D+01

 The electronic state is 5-BU.
 Alpha  occ. eigenvalues --   -0.81874  -0.78412  -0.71394  -0.71145  -0.49657
 Alpha  occ. eigenvalues --   -0.49651   0.12991
 Alpha virt. eigenvalues --    0.43494   0.60291   0.62240
  Beta  occ. eigenvalues --   -0.70884  -0.70788  -0.55777
  Beta virt. eigenvalues --   -0.28665   0.13348   0.13358   0.54266   0.57466
  Beta virt. eigenvalues --    0.66239   0.76529

 Mulliken charges and spin densities:
               1          2
     1  H   -0.006185   0.006031
     2  H    0.003649   1.003646
     3  H    0.011105   0.497660
     4  H   -0.012862   0.007436
     5  H    0.004293   0.485227
     6  H    0.004293   0.485227
     7  H   -0.012862   0.007436
     8  H    0.011105   0.497660
     9  H    0.003649   1.003646
    10  H   -0.006185   0.006031
 Sum of Mulliken charges =  -0.00000   4.00000

 Dipole moment (field-independent basis, Debye):
    X=              0.0000    Y=              0.0000    Z=              0.0000  Tot=              0.0000
 Quadrupole moment (field-independent basis, Debye-Ang):
   XX=            -14.1379   YY=            -14.5686   ZZ=            -13.1811
   XY=             -0.0228   XZ=              0.0000   YZ=              0.0000

 Normal termination of Gaussian 09 at Thu Feb 23 12:41:33 2017.
