 Gaussian 09, Revision E.01,
 Gaussian 09:  ES64L-G09RevE.01 30-Nov-2015

 ----------------------------------------------------------------------
 #uhf/gen scf(tight,novaracc,noincfock,fulldiag, ) stable(crhf) guess=r
 ead geom=nocrowd test
 ----------------------------------------------------------------------

 hf stability analysis of h10 triangular lattice, y= 0.7084369783301545
 1 alpha= 41.000000000000000
 ----------------------------------------------------------------------
 Symbolic Z-matrix:
 Charge =  0 Multiplicity = 5

                         Standard orientation:
 ---------------------------------------------------------------------
 Center     Atomic      Atomic             Coordinates (Angstroms)
 Number     Number       Type             X           Y           Z
 ---------------------------------------------------------------------
      1          1           0        2.138657    0.239350    0.000000
      2          1           0        2.138657   -0.840487    0.000000
      3          1           0        1.069328    0.389634    0.000000
      4          1           0        1.069328   -0.690203    0.000000
      5          1           0       -0.000000    0.539919    0.000000
      6          1           0       -0.000000   -0.539919   -0.000000
      7          1           0       -1.069328    0.690203    0.000000
      8          1           0       -1.069328   -0.389634   -0.000000
      9          1           0       -2.138657    0.840487    0.000000
     10          1           0       -2.138657   -0.239350   -0.000000
 ---------------------------------------------------------------------

 SCF Done:  E(UHF) =  -4.71215842354     A.U. after   11 cycles
 E2 =    -0.5668328266D-01 EUMP2 =    -0.47688417062028D+01

 The electronic state is 5-BU.
 Alpha  occ. eigenvalues --   -0.96564  -0.83680  -0.63469  -0.57974  -0.42523
 Alpha  occ. eigenvalues --   -0.36138  -0.17666
 Alpha virt. eigenvalues --    0.23567   0.36792   0.75686
  Beta  occ. eigenvalues --   -0.79591  -0.64734  -0.42921
  Beta virt. eigenvalues --   -0.05774   0.06469   0.09320   0.32153   0.40244
  Beta virt. eigenvalues --    0.63201   0.93831

 Mulliken charges and spin densities:
               1          2
     1  H   -0.074659   0.549261
     2  H   -0.048741   0.475595
     3  H    0.090638   0.402079
     4  H    0.056209   0.286846
     5  H   -0.023448   0.286219
     6  H   -0.023448   0.286219
     7  H    0.056209   0.286846
     8  H    0.090638   0.402079
     9  H   -0.048741   0.475595
    10  H   -0.074659   0.549261
 Sum of Mulliken charges =  -0.00000   4.00000

 Dipole moment (field-independent basis, Debye):
    X=              0.0000    Y=             -0.0000    Z=             -0.0000  Tot=              0.0000
 Quadrupole moment (field-independent basis, Debye-Ang):
   XX=            -20.0973   YY=            -14.5778   ZZ=            -12.5316
   XY=              0.7303   XZ=              0.0000   YZ=             -0.0000

 Normal termination of Gaussian 09 at Thu Feb 23 12:47:14 2017.
