 Gaussian 09, Revision E.01,
 Gaussian 09:  ES64L-G09RevE.01 30-Nov-2015

 ----------------------------------------------------------------------
 #uhf/gen scf(tight,novaracc,noincfock,fulldiag, ) stable(crhf) guess=r
 ead geom=nocrowd test
 ----------------------------------------------------------------------

 hf stability analysis of h10 triangular lattice, y= 0.4102222107631511
 3 alpha= 16.250000000000000
 ----------------------------------------------------------------------
 Symbolic Z-matrix:
 Charge =  0 Multiplicity = 5

                         Standard orientation:
 ---------------------------------------------------------------------
 Center     Atomic      Atomic             Coordinates (Angstroms)
 Number     Number       Type             X           Y           Z
 ---------------------------------------------------------------------
      1          1           0        1.575335   -1.739793   -0.000000
      2          1           0        1.575335   -3.205768    0.000000
      3          1           0        0.787668   -0.503403   -0.000000
      4          1           0        0.787668   -1.969378    0.000000
      5          1           0        0.000000    0.732987   -0.000000
      6          1           0       -0.000000   -0.732987    0.000000
      7          1           0       -0.787668    1.969378   -0.000000
      8          1           0       -0.787668    0.503403   -0.000000
      9          1           0       -1.575335    3.205768   -0.000000
     10          1           0       -1.575335    1.739793   -0.000000
 ---------------------------------------------------------------------

 SCF Done:  E(UHF) =  -4.84310119667     A.U. after    9 cycles
 E2 =    -0.4896862453D-01 EUMP2 =    -0.48920698212022D+01

 The electronic state is 5-BU.
 Alpha  occ. eigenvalues --   -0.85297  -0.75977  -0.66161  -0.55507  -0.40983
 Alpha  occ. eigenvalues --   -0.36279  -0.20443
 Alpha virt. eigenvalues --    0.18702   0.38469   0.53046
  Beta  occ. eigenvalues --   -0.70298  -0.64918  -0.49544
  Beta virt. eigenvalues --   -0.04140   0.19813   0.19847   0.23933   0.30289
  Beta virt. eigenvalues --    0.48824   0.70260

 Mulliken charges and spin densities:
               1          2
     1  H    0.000938   0.124858
     2  H   -0.019988   0.977626
     3  H    0.038354   0.468533
     4  H    0.004239   0.013779
     5  H   -0.023544   0.415204
     6  H   -0.023544   0.415204
     7  H    0.004239   0.013779
     8  H    0.038354   0.468533
     9  H   -0.019988   0.977626
    10  H    0.000938   0.124858
 Sum of Mulliken charges =  -0.00000   4.00000

 Dipole moment (field-independent basis, Debye):
    X=              0.0000    Y=             -0.0000    Z=             -0.0000  Tot=              0.0000
 Quadrupole moment (field-independent basis, Debye-Ang):
   XX=            -13.5748   YY=            -18.1749   ZZ=            -12.7799
   XY=              1.9363   XZ=             -0.0000   YZ=              0.0000

 Normal termination of Gaussian 09 at Thu Feb 23 12:43:06 2017.
