 Gaussian 09, Revision E.01,
 Gaussian 09:  ES64L-G09RevE.01 30-Nov-2015

 ----------------------------------------------------------------------
 #uhf/gen scf(tight,novaracc,noincfock,fulldiag, ) stable(crhf) guess=r
 ead geom=nocrowd test
 ----------------------------------------------------------------------

 hf stability analysis of h10 triangular lattice, y= 0.5860779187036555
 5 alpha= 30.750000000000000
 ----------------------------------------------------------------------
 Symbolic Z-matrix:
 Charge =  0 Multiplicity = 5

                         Standard orientation:
 ---------------------------------------------------------------------
 Center     Atomic      Atomic             Coordinates (Angstroms)
 Number     Number       Type             X           Y           Z
 ---------------------------------------------------------------------
      1          1           0        2.014716   -0.520769    0.000000
      2          1           0        2.014716   -1.667035    0.000000
      3          1           0        1.007358    0.026182    0.000000
      4          1           0        1.007358   -1.120084    0.000000
      5          1           0        0.000000    0.573133    0.000000
      6          1           0       -0.000000   -0.573133    0.000000
      7          1           0       -1.007358    1.120084   -0.000000
      8          1           0       -1.007358   -0.026182    0.000000
      9          1           0       -2.014716    1.667035   -0.000000
     10          1           0       -2.014716    0.520769    0.000000
 ---------------------------------------------------------------------

 SCF Done:  E(UHF) =  -4.70402229783     A.U. after   10 cycles
 E2 =    -0.5482384918D-01 EUMP2 =    -0.47588461470095D+01

 The electronic state is 5-BU.
 Alpha  occ. eigenvalues --   -0.93782  -0.81465  -0.64192  -0.51726  -0.39380
 Alpha  occ. eigenvalues --   -0.37595  -0.15358
 Alpha virt. eigenvalues --    0.17648   0.37918   0.51743
  Beta  occ. eigenvalues --   -0.77866  -0.64928  -0.44158
  Beta virt. eigenvalues --   -0.00236   0.03430   0.15200   0.30981   0.37916
  Beta virt. eigenvalues --    0.65111   0.65960

 Mulliken charges and spin densities:
               1          2
     1  H   -0.105165   0.679004
     2  H    0.012616   0.533150
     3  H    0.088719   0.477749
     4  H    0.027108  -0.001471
     5  H   -0.023278   0.311568
     6  H   -0.023278   0.311568
     7  H    0.027108  -0.001471
     8  H    0.088719   0.477749
     9  H    0.012616   0.533150
    10  H   -0.105165   0.679004
 Sum of Mulliken charges =   0.00000   4.00000

 Dipole moment (field-independent basis, Debye):
    X=              0.0000    Y=              0.0000    Z=             -0.0000  Tot=              0.0000
 Quadrupole moment (field-independent basis, Debye-Ang):
   XX=            -17.8566   YY=            -14.8849   ZZ=            -12.5975
   XY=              0.8830   XZ=              0.0000   YZ=              0.0000

 Normal termination of Gaussian 09 at Thu Feb 23 12:45:29 2017.
