 Gaussian 09, Revision E.01,
 Gaussian 09:  ES64L-G09RevE.01 30-Nov-2015

 ----------------------------------------------------------------------
 #uhf/gen scf(tight,novaracc,noincfock,fulldiag, ) stable(crhf) guess=r
 ead geom=nocrowd test
 ----------------------------------------------------------------------

 hf stability analysis of h10 triangular lattice, y= 1.0760973851886237
  alpha= 63.500000000000000
 ----------------------------------------------------------------------
 Symbolic Z-matrix:
 Charge =  0 Multiplicity = 5

                         Standard orientation:
 ---------------------------------------------------------------------
 Center     Atomic      Atomic             Coordinates (Angstroms)
 Number     Number       Type             X           Y           Z
 ---------------------------------------------------------------------
      1          1           0        1.920609    2.048499    0.000000
      2          1           0        1.920609    0.846067    0.000000
      3          1           0        0.960305    1.324857    0.000000
      4          1           0        0.960305    0.122426    0.000000
      5          1           0       -0.000000    0.601216    0.000000
      6          1           0       -0.000000   -0.601216    0.000000
      7          1           0       -0.960305   -0.122426    0.000000
      8          1           0       -0.960305   -1.324857    0.000000
      9          1           0       -1.920609   -0.846067    0.000000
     10          1           0       -1.920609   -2.048499    0.000000
 ---------------------------------------------------------------------

 SCF Done:  E(UHF) =  -4.69704288358     A.U. after   11 cycles
 E2 =    -0.4767648820D-01 EUMP2 =    -0.47447193717787D+01

 The electronic state is 5-BU.
 Alpha  occ. eigenvalues --   -0.91608  -0.79751  -0.64954  -0.48387  -0.40656
 Alpha  occ. eigenvalues --   -0.35086  -0.15562
 Alpha virt. eigenvalues --    0.14518   0.40391   0.41405
  Beta  occ. eigenvalues --   -0.76961  -0.65972  -0.45147
  Beta virt. eigenvalues --    0.02489   0.04692   0.18698   0.26412   0.40841
  Beta virt. eigenvalues --    0.50286   0.67848

 Mulliken charges and spin densities:
               1          2
     1  H    0.008693   0.700508
     2  H   -0.113609   0.722163
     3  H    0.060001  -0.248706
     4  H    0.077760   0.500964
     5  H   -0.032845   0.325071
     6  H   -0.032845   0.325071
     7  H    0.077760   0.500964
     8  H    0.060001  -0.248706
     9  H   -0.113609   0.722163
    10  H    0.008693   0.700508
 Sum of Mulliken charges =  -0.00000   4.00000

 Dipole moment (field-independent basis, Debye):
    X=             -0.0000    Y=             -0.0000    Z=             -0.0000  Tot=              0.0000
 Quadrupole moment (field-independent basis, Debye-Ang):
   XX=            -17.3446   YY=            -15.1089   ZZ=            -12.5994
   XY=             -1.3391   XZ=             -0.0000   YZ=             -0.0000

 Normal termination of Gaussian 09 at Thu Feb 23 12:51:03 2017.
