 Gaussian 09, Revision E.01,
 Gaussian 09:  ES64L-G09RevE.01 30-Nov-2015

 ----------------------------------------------------------------------
 #uhf/gen scf(tight,novaracc,noincfock,fulldiag, ) stable(crhf) guess=r
 ead geom=nocrowd test
 ----------------------------------------------------------------------

 hf stability analysis of h10 triangular lattice, y= 0.2848531043101661
 9 alpha= 8.0000000000000000
 ----------------------------------------------------------------------
 Symbolic Z-matrix:
 Charge =  0 Multiplicity = 5

                         Standard orientation:
 ---------------------------------------------------------------------
 Center     Atomic      Atomic             Coordinates (Angstroms)
 Number     Number       Type             X           Y           Z
 ---------------------------------------------------------------------
      1          1           0        1.128324   -2.911555   -0.000000
      2          1           0        1.128324   -4.958309   -0.000000
      3          1           0        0.564162   -0.944089   -0.000000
      4          1           0        0.564162   -2.990843   -0.000000
      5          1           0        0.000000    1.023377    0.000000
      6          1           0       -0.000000   -1.023377    0.000000
      7          1           0       -0.564162    2.990843   -0.000000
      8          1           0       -0.564162    0.944089   -0.000000
      9          1           0       -1.128324    4.958309   -0.000000
     10          1           0       -1.128324    2.911555   -0.000000
 ---------------------------------------------------------------------

 SCF Done:  E(UHF) =  -4.37430096321     A.U. after    9 cycles
 E2 =    -0.6073163533D-01 EUMP2 =    -0.44350325985399D+01

 The electronic state is 5-BU.
 Alpha  occ. eigenvalues --   -0.81887  -0.76603  -0.69794  -0.68716  -0.49106
 Alpha  occ. eigenvalues --   -0.49067   0.05287
 Alpha virt. eigenvalues --    0.38776   0.55246   0.59147
  Beta  occ. eigenvalues --   -0.69304  -0.68916  -0.55720
  Beta virt. eigenvalues --   -0.24458   0.13980   0.14021   0.46497   0.51182
  Beta virt. eigenvalues --    0.61863   0.74515

 Mulliken charges and spin densities:
               1          2
     1  H   -0.006942   0.012457
     2  H    0.004702   1.004687
     3  H    0.016575   0.493536
     4  H   -0.017106   0.013297
     5  H    0.002771   0.476023
     6  H    0.002771   0.476023
     7  H   -0.017106   0.013297
     8  H    0.016575   0.493536
     9  H    0.004702   1.004687
    10  H   -0.006942   0.012457
 Sum of Mulliken charges =  -0.00000   4.00000

 Dipole moment (field-independent basis, Debye):
    X=              0.0000    Y=              0.0000    Z=              0.0000  Tot=              0.0000
 Quadrupole moment (field-independent basis, Debye-Ang):
   XX=            -13.9536   YY=            -15.1202   ZZ=            -13.1385
   XY=              0.0690   XZ=              0.0000   YZ=              0.0000

 Normal termination of Gaussian 09 at Thu Feb 23 12:41:47 2017.
