 Gaussian 09, Revision E.01,
 Gaussian 09:  ES64L-G09RevE.01 30-Nov-2015

 ----------------------------------------------------------------------
 #uhf/gen scf(tight,novaracc,noincfock,fulldiag, ) stable(crhf) guess=r
 ead geom=nocrowd test
 ----------------------------------------------------------------------

 hf stability analysis of h10 triangular lattice, y= 0.3967414199883826
 4 alpha= 15.250000000000000
 ----------------------------------------------------------------------
 Symbolic Z-matrix:
 Charge =  0 Multiplicity = 5

                         Standard orientation:
 ---------------------------------------------------------------------
 Center     Atomic      Atomic             Coordinates (Angstroms)
 Number     Number       Type             X           Y           Z
 ---------------------------------------------------------------------
      1          1           0        1.531084   -1.845094   -0.000000
      2          1           0        1.531084   -3.353437   -0.000000
      3          1           0        0.765542   -0.545461   -0.000000
      4          1           0        0.765542   -2.053804   -0.000000
      5          1           0        0.000000    0.754172    0.000000
      6          1           0       -0.000000   -0.754172   -0.000000
      7          1           0       -0.765542    2.053804    0.000000
      8          1           0       -0.765542    0.545461   -0.000000
      9          1           0       -1.531084    3.353437    0.000000
     10          1           0       -1.531084    1.845094   -0.000000
 ---------------------------------------------------------------------

 SCF Done:  E(UHF) =  -4.84290502790     A.U. after    9 cycles
 E2 =    -0.4845435498D-01 EUMP2 =    -0.48913593828871D+01

 The electronic state is 5-BU.
 Alpha  occ. eigenvalues --   -0.84736  -0.75713  -0.66368  -0.56587  -0.42274
 Alpha  occ. eigenvalues --   -0.38700  -0.18159
 Alpha virt. eigenvalues --    0.20604   0.39897   0.53678
  Beta  occ. eigenvalues --   -0.69799  -0.65052  -0.50356
  Beta virt. eigenvalues --   -0.06018   0.19001   0.20436   0.23795   0.32022
  Beta virt. eigenvalues --    0.49883   0.70647

 Mulliken charges and spin densities:
               1          2
     1  H    0.001802   0.099148
     2  H   -0.014288   0.984298
     3  H    0.035605   0.469547
     4  H   -0.002864   0.024797
     5  H   -0.020254   0.422209
     6  H   -0.020254   0.422209
     7  H   -0.002864   0.024797
     8  H    0.035605   0.469547
     9  H   -0.014288   0.984298
    10  H    0.001802   0.099148
 Sum of Mulliken charges =  -0.00000   4.00000

 Dipole moment (field-independent basis, Debye):
    X=             -0.0000    Y=             -0.0000    Z=             -0.0000  Tot=              0.0000
 Quadrupole moment (field-independent basis, Debye-Ang):
   XX=            -13.4657   YY=            -17.8567   ZZ=            -12.8235
   XY=              1.5716   XZ=              0.0000   YZ=             -0.0000

 Normal termination of Gaussian 09 at Thu Feb 23 12:42:56 2017.
