 Gaussian 09, Revision E.01,
 Gaussian 09:  ES64L-G09RevE.01 30-Nov-2015

 ----------------------------------------------------------------------
 #uhf/gen scf(tight,novaracc,noincfock,fulldiag, ) stable(crhf) guess=r
 ead geom=nocrowd test
 ----------------------------------------------------------------------

 hf stability analysis of h10 triangular lattice, y= 0.7053203805026391
 2 alpha= 40.750000000000000
 ----------------------------------------------------------------------
 Symbolic Z-matrix:
 Charge =  0 Multiplicity = 5

                         Standard orientation:
 ---------------------------------------------------------------------
 Center     Atomic      Atomic             Coordinates (Angstroms)
 Number     Number       Type             X           Y           Z
 ---------------------------------------------------------------------
      1          1           0        2.137304    0.220838   -0.000000
      2          1           0        2.137304   -0.859683   -0.000000
      3          1           0        1.068652    0.380549   -0.000000
      4          1           0        1.068652   -0.699971   -0.000000
      5          1           0       -0.000000    0.540260   -0.000000
      6          1           0       -0.000000   -0.540260   -0.000000
      7          1           0       -1.068652    0.699971    0.000000
      8          1           0       -1.068652   -0.380549   -0.000000
      9          1           0       -2.137304    0.859683   -0.000000
     10          1           0       -2.137304   -0.220838   -0.000000
 ---------------------------------------------------------------------

 SCF Done:  E(UHF) =  -4.71222850202     A.U. after   11 cycles
 E2 =    -0.5668839755D-01 EUMP2 =    -0.47689168995697D+01

 The electronic state is 5-BU.
 Alpha  occ. eigenvalues --   -0.96535  -0.83656  -0.63478  -0.57907  -0.42466
 Alpha  occ. eigenvalues --   -0.36169  -0.17638
 Alpha virt. eigenvalues --    0.23507   0.36787   0.75342
  Beta  occ. eigenvalues --   -0.79569  -0.64732  -0.42939
  Beta virt. eigenvalues --   -0.05712   0.06417   0.09390   0.32228   0.40135
  Beta virt. eigenvalues --    0.63225   0.93432

 Mulliken charges and spin densities:
               1          2
     1  H   -0.075219   0.552188
     2  H   -0.047513   0.474318
     3  H    0.091219   0.404655
     4  H    0.054858   0.282175
     5  H   -0.023346   0.286664
     6  H   -0.023346   0.286664
     7  H    0.054858   0.282175
     8  H    0.091219   0.404655
     9  H   -0.047513   0.474318
    10  H   -0.075219   0.552188
 Sum of Mulliken charges =  -0.00000   4.00000

 Dipole moment (field-independent basis, Debye):
    X=             -0.0000    Y=             -0.0000    Z=              0.0000  Tot=              0.0000
 Quadrupole moment (field-independent basis, Debye-Ang):
   XX=            -20.0581   YY=            -14.5936   ZZ=            -12.5324
   XY=              0.7668   XZ=              0.0000   YZ=             -0.0000

 Normal termination of Gaussian 09 at Thu Feb 23 12:47:12 2017.
