 Gaussian 09, Revision E.01,
 Gaussian 09:  ES64L-G09RevE.01 30-Nov-2015

 ----------------------------------------------------------------------
 #uhf/gen scf(tight,novaracc,noincfock,fulldiag, ) stable(crhf) guess=r
 ead geom=nocrowd test
 ----------------------------------------------------------------------

 hf stability analysis of h10 triangular lattice, y= 1.4189643903365978
  alpha= 74.000000000000000
 ----------------------------------------------------------------------
 Symbolic Z-matrix:
 Charge =  0 Multiplicity = 5

                         Standard orientation:
 ---------------------------------------------------------------------
 Center     Atomic      Atomic             Coordinates (Angstroms)
 Number     Number       Type             X           Y           Z
 ---------------------------------------------------------------------
      1          1           0        1.564478    3.241763    0.000000
      2          1           0        1.564478    1.765615    0.000000
      3          1           0        0.782239    1.989918    0.000000
      4          1           0        0.782239    0.513770    0.000000
      5          1           0        0.000000    0.738074    0.000000
      6          1           0       -0.000000   -0.738074    0.000000
      7          1           0       -0.782239   -0.513770    0.000000
      8          1           0       -0.782239   -1.989918    0.000000
      9          1           0       -1.564478   -1.765615    0.000000
     10          1           0       -1.564478   -3.241763    0.000000
 ---------------------------------------------------------------------

 SCF Done:  E(UHF) =  -4.84387184803     A.U. after    9 cycles
 E2 =    -0.4882250930D-01 EUMP2 =    -0.48926943573320D+01

 The electronic state is 5-BU.
 Alpha  occ. eigenvalues --   -0.85155  -0.75909  -0.66210  -0.55764  -0.41308
 Alpha  occ. eigenvalues --   -0.36894  -0.19889
 Alpha virt. eigenvalues --    0.19163   0.38813   0.53211
  Beta  occ. eigenvalues --   -0.70170  -0.64945  -0.49742
  Beta virt. eigenvalues --   -0.04589   0.19637   0.20149   0.23686   0.30706
  Beta virt. eigenvalues --    0.49080   0.70355

 Mulliken charges and spin densities:
               1          2
     1  H   -0.018524   0.979386
     2  H    0.001288   0.117767
     3  H    0.002309   0.017191
     4  H    0.037654   0.468697
     5  H   -0.022728   0.416959
     6  H   -0.022728   0.416959
     7  H    0.037654   0.468697
     8  H    0.002309   0.017191
     9  H    0.001288   0.117767
    10  H   -0.018524   0.979386
 Sum of Mulliken charges =   0.00000   4.00000

 Dipole moment (field-independent basis, Debye):
    X=             -0.0000    Y=             -0.0000    Z=              0.0000  Tot=              0.0000
 Quadrupole moment (field-independent basis, Debye-Ang):
   XX=            -13.5412   YY=            -18.1013   ZZ=            -12.7906
   XY=             -1.8434   XZ=              0.0000   YZ=              0.0000

 Normal termination of Gaussian 09 at Thu Feb 23 12:52:48 2017.
