 Gaussian 09, Revision E.01,
 Gaussian 09:  ES64L-G09RevE.01 30-Nov-2015

 ----------------------------------------------------------------------
 #uhf/gen scf(tight,novaracc,noincfock,fulldiag, ) stable(crhf) guess=r
 ead geom=nocrowd test
 ----------------------------------------------------------------------

 hf stability analysis of h10 triangular lattice, y= 0.9706441525749213
 2 alpha= 58.500000000000000
 ----------------------------------------------------------------------
 Symbolic Z-matrix:
 Charge =  0 Multiplicity = 5

                         Standard orientation:
 ---------------------------------------------------------------------
 Center     Atomic      Atomic             Coordinates (Angstroms)
 Number     Number       Type             X           Y           Z
 ---------------------------------------------------------------------
      1          1           0        2.028641    1.602843   -0.000000
      2          1           0        2.028641    0.464445   -0.000000
      3          1           0        1.014320    1.086021   -0.000000
      4          1           0        1.014320   -0.052377   -0.000000
      5          1           0        0.000000    0.569199    0.000000
      6          1           0       -0.000000   -0.569199    0.000000
      7          1           0       -1.014320    0.052377   -0.000000
      8          1           0       -1.014320   -1.086021   -0.000000
      9          1           0       -2.028641   -0.464445   -0.000000
     10          1           0       -2.028641   -1.602843   -0.000000
 ---------------------------------------------------------------------

 SCF Done:  E(UHF) =  -4.70588353336     A.U. after   10 cycles
 E2 =    -0.5539928523D-01 EUMP2 =    -0.47612828185936D+01

 The electronic state is 5-BU.
 Alpha  occ. eigenvalues --   -0.94104  -0.81720  -0.64101  -0.52425  -0.38994
 Alpha  occ. eigenvalues --   -0.38099  -0.15533
 Alpha virt. eigenvalues --    0.18260   0.37688   0.53788
  Beta  occ. eigenvalues --   -0.78022  -0.64845  -0.44037
  Beta virt. eigenvalues --   -0.00823   0.03581   0.14592   0.31906   0.37361
  Beta virt. eigenvalues --    0.65637   0.67743

 Mulliken charges and spin densities:
               1          2
     1  H    0.009159   0.516438
     2  H   -0.102253   0.668550
     3  H    0.025364   0.032015
     4  H    0.090213   0.473215
     5  H   -0.022483   0.309782
     6  H   -0.022483   0.309782
     7  H    0.090213   0.473215
     8  H    0.025364   0.032015
     9  H   -0.102253   0.668550
    10  H    0.009159   0.516438
 Sum of Mulliken charges =  -0.00000   4.00000

 Dipole moment (field-independent basis, Debye):
    X=              0.0000    Y=             -0.0000    Z=              0.0000  Tot=              0.0000
 Quadrupole moment (field-independent basis, Debye-Ang):
   XX=            -17.9950   YY=            -14.9129   ZZ=            -12.5926
   XY=             -0.9201   XZ=             -0.0000   YZ=             -0.0000

 Normal termination of Gaussian 09 at Thu Feb 23 12:50:13 2017.
