 Gaussian 09, Revision E.01,
 Gaussian 09:  ES64L-G09RevE.01 30-Nov-2015

 ----------------------------------------------------------------------
 #uhf/gen scf(tight,novaracc,noincfock,fulldiag, ) stable(crhf) guess=r
 ead geom=nocrowd test
 ----------------------------------------------------------------------

 hf stability analysis of h10 triangular lattice, y= 0.3614429856522110
 0 alpha= 12.750000000000000
 ----------------------------------------------------------------------
 Symbolic Z-matrix:
 Charge =  0 Multiplicity = 5

                         Standard orientation:
 ---------------------------------------------------------------------
 Center     Atomic      Atomic             Coordinates (Angstroms)
 Number     Number       Type             X           Y           Z
 ---------------------------------------------------------------------
      1          1           0        1.410123   -2.137518   -0.000000
      2          1           0        1.410123   -3.775249   -0.000000
      3          1           0        0.705061   -0.659326   -0.000000
      4          1           0        0.705061   -2.297057   -0.000000
      5          1           0       -0.000000    0.818865    0.000000
      6          1           0       -0.000000   -0.818865    0.000000
      7          1           0       -0.705061    2.297057   -0.000000
      8          1           0       -0.705061    0.659326   -0.000000
      9          1           0       -1.410123    3.775249   -0.000000
     10          1           0       -1.410123    2.137518   -0.000000
 ---------------------------------------------------------------------

 SCF Done:  E(UHF) =  -4.79511222716     A.U. after    9 cycles
 E2 =    -0.4845742342D-01 EUMP2 =    -0.48435696505773D+01

 The electronic state is 5-BU.
 Alpha  occ. eigenvalues --   -0.83440  -0.75219  -0.67058  -0.60024  -0.45276
 Alpha  occ. eigenvalues --   -0.43915  -0.11677
 Alpha virt. eigenvalues --    0.26012   0.44065   0.55063
  Beta  occ. eigenvalues --   -0.68758  -0.65699  -0.52563
  Beta virt. eigenvalues --   -0.11625   0.16944   0.17704   0.29389   0.37151
  Beta virt. eigenvalues --    0.53009   0.71648

 Mulliken charges and spin densities:
               1          2
     1  H   -0.000312   0.055943
     2  H   -0.002759   0.996863
     3  H    0.029250   0.475590
     4  H   -0.014480   0.031356
     5  H   -0.011700   0.440248
     6  H   -0.011700   0.440248
     7  H   -0.014480   0.031356
     8  H    0.029250   0.475590
     9  H   -0.002759   0.996863
    10  H   -0.000312   0.055943
 Sum of Mulliken charges =   0.00000   4.00000

 Dipole moment (field-independent basis, Debye):
    X=              0.0000    Y=             -0.0000    Z=              0.0000  Tot=              0.0000
 Quadrupole moment (field-independent basis, Debye-Ang):
   XX=            -13.4422   YY=            -16.8821   ZZ=            -12.9375
   XY=              0.7952   XZ=             -0.0000   YZ=              0.0000

 Normal termination of Gaussian 09 at Thu Feb 23 12:42:32 2017.
