 Gaussian 09, Revision E.01,
 Gaussian 09:  ES64L-G09RevE.01 30-Nov-2015

 ----------------------------------------------------------------------
 #uhf/gen scf(tight,novaracc,noincfock,fulldiag, ) stable(crhf) guess=r
 ead geom=nocrowd test
 ----------------------------------------------------------------------

 hf stability analysis of h10 triangular lattice, y= 0.6655948165158517
 3 alpha= 37.500000000000000
 ----------------------------------------------------------------------
 Symbolic Z-matrix:
 Charge =  0 Multiplicity = 5

                         Standard orientation:
 ---------------------------------------------------------------------
 Center     Atomic      Atomic             Coordinates (Angstroms)
 Number     Number       Type             X           Y           Z
 ---------------------------------------------------------------------
      1          1           0        2.112207   -0.019285    0.000000
      2          1           0        2.112207   -1.112644    0.000000
      3          1           0        1.056104    0.263697    0.000000
      4          1           0        1.056104   -0.829662    0.000000
      5          1           0        0.000000    0.546680    0.000000
      6          1           0       -0.000000   -0.546680    0.000000
      7          1           0       -1.056104    0.829662    0.000000
      8          1           0       -1.056104   -0.263697    0.000000
      9          1           0       -2.112207    1.112644    0.000000
     10          1           0       -2.112207    0.019285    0.000000
 ---------------------------------------------------------------------

 SCF Done:  E(UHF) =  -4.71272348460     A.U. after   11 cycles
 E2 =    -0.5672221277D-01 EUMP2 =    -0.47694456973735D+01

 The electronic state is 5-BU.
 Alpha  occ. eigenvalues --   -0.95988  -0.83216  -0.63629  -0.56654  -0.41414
 Alpha  occ. eigenvalues --   -0.36771  -0.17108
 Alpha virt. eigenvalues --    0.22322   0.36801   0.69355
  Beta  occ. eigenvalues --   -0.79172  -0.64706  -0.43241
  Beta virt. eigenvalues --   -0.04561   0.05529   0.10663   0.33560   0.38127
  Beta virt. eigenvalues --    0.63725   0.86474

 Mulliken charges and spin densities:
               1          2
     1  H   -0.082767   0.591300
     2  H   -0.029036   0.466346
     3  H    0.095509   0.433567
     4  H    0.038232   0.214767
     5  H   -0.021938   0.294020
     6  H   -0.021938   0.294020
     7  H    0.038232   0.214767
     8  H    0.095509   0.433567
     9  H   -0.029036   0.466346
    10  H   -0.082767   0.591300
 Sum of Mulliken charges =   0.00000   4.00000

 Dipole moment (field-independent basis, Debye):
    X=             -0.0000    Y=             -0.0000    Z=             -0.0000  Tot=              0.0000
 Quadrupole moment (field-independent basis, Debye-Ang):
   XX=            -19.4011   YY=            -14.8159   ZZ=            -12.5484
   XY=              1.0813   XZ=              0.0000   YZ=             -0.0000

 Normal termination of Gaussian 09 at Thu Feb 23 12:46:37 2017.
