 Gaussian 09, Revision E.01,
 Gaussian 09:  ES64L-G09RevE.01 30-Nov-2015

 ----------------------------------------------------------------------
 #uhf/gen scf(tight,novaracc,noincfock,fulldiag, ) stable(crhf) guess=r
 ead geom=nocrowd test
 ----------------------------------------------------------------------

 hf stability analysis of h10 triangular lattice, y= 0.8368882343931486
 3 alpha= 50.500000000000000
 ----------------------------------------------------------------------
 Symbolic Z-matrix:
 Charge =  0 Multiplicity = 5

                         Standard orientation:
 ---------------------------------------------------------------------
 Center     Atomic      Atomic             Coordinates (Angstroms)
 Number     Number       Type             X           Y           Z
 ---------------------------------------------------------------------
      1          1           0        2.129305    0.956185   -0.000000
      2          1           0        2.129305   -0.128395   -0.000000
      3          1           0        1.064653    0.749237   -0.000000
      4          1           0        1.064653   -0.335342   -0.000000
      5          1           0        0.000000    0.542290   -0.000000
      6          1           0       -0.000000   -0.542290   -0.000000
      7          1           0       -1.064653    0.335342   -0.000000
      8          1           0       -1.064653   -0.749237   -0.000000
      9          1           0       -2.129305    0.128395   -0.000000
     10          1           0       -2.129305   -0.956185   -0.000000
 ---------------------------------------------------------------------

 SCF Done:  E(UHF) =  -4.71254933889     A.U. after   11 cycles
 E2 =    -0.5671229853D-01 EUMP2 =    -0.47692616374223D+01

 The electronic state is 5-BU.
 Alpha  occ. eigenvalues --   -0.96362  -0.83516  -0.63528  -0.57508  -0.42128
 Alpha  occ. eigenvalues --   -0.36356  -0.17471
 Alpha virt. eigenvalues --    0.23141   0.36771   0.73356
  Beta  occ. eigenvalues --   -0.79441  -0.64722  -0.43039
  Beta virt. eigenvalues --   -0.05345   0.06118   0.09801   0.32665   0.39491
  Beta virt. eigenvalues --    0.63377   0.91128

 Mulliken charges and spin densities:
               1          2
     1  H   -0.040934   0.469265
     2  H   -0.078018   0.567036
     3  H    0.048175   0.257785
     4  H    0.093577   0.416727
     5  H   -0.022800   0.289186
     6  H   -0.022800   0.289186
     7  H    0.093577   0.416727
     8  H    0.048175   0.257785
     9  H   -0.078018   0.567036
    10  H   -0.040934   0.469265
 Sum of Mulliken charges =  -0.00000   4.00000

 Dipole moment (field-independent basis, Debye):
    X=              0.0000    Y=              0.0000    Z=              0.0000  Tot=              0.0000
 Quadrupole moment (field-independent basis, Debye-Ang):
   XX=            -19.8344   YY=            -14.6785   ZZ=            -12.5376
   XY=             -0.9245   XZ=              0.0000   YZ=              0.0000

 Normal termination of Gaussian 09 at Thu Feb 23 12:48:51 2017.
