 Gaussian 09, Revision E.01,
 Gaussian 09:  ES64L-G09RevE.01 30-Nov-2015

 ----------------------------------------------------------------------
 #uhf/gen scf(tight,novaracc,noincfock,fulldiag, ) stable(crhf) guess=r
 ead geom=nocrowd test
 ----------------------------------------------------------------------

 hf stability analysis of h10 triangular lattice, y= 0.5277127250247978
 2 alpha= 25.750000000000000
 ----------------------------------------------------------------------
 Symbolic Z-matrix:
 Charge =  0 Multiplicity = 5

                         Standard orientation:
 ---------------------------------------------------------------------
 Center     Atomic      Atomic             Coordinates (Angstroms)
 Number     Number       Type             X           Y           Z
 ---------------------------------------------------------------------
      1          1           0        1.901240   -0.904973    0.000000
      2          1           0        1.901240   -2.119655    0.000000
      3          1           0        0.950620   -0.148816    0.000000
      4          1           0        0.950620   -1.363498    0.000000
      5          1           0        0.000000    0.607341    0.000000
      6          1           0       -0.000000   -0.607341   -0.000000
      7          1           0       -0.950620    1.363498    0.000000
      8          1           0       -0.950620    0.148816    0.000000
      9          1           0       -1.901240    2.119655    0.000000
     10          1           0       -1.901240    0.904973    0.000000
 ---------------------------------------------------------------------

 SCF Done:  E(UHF) =  -4.69888250390     A.U. after   11 cycles
 E2 =    -0.4617296004D-01 EUMP2 =    -0.47450554639481D+01

 The electronic state is 5-BU.
 Alpha  occ. eigenvalues --   -0.91172  -0.79419  -0.65106  -0.48397  -0.40164
 Alpha  occ. eigenvalues --   -0.34834  -0.15968
 Alpha virt. eigenvalues --    0.14092   0.39932   0.41170
  Beta  occ. eigenvalues --   -0.76720  -0.66174  -0.45386
  Beta virt. eigenvalues --    0.02709   0.05417   0.19241   0.25934   0.41119
  Beta virt. eigenvalues --    0.48000   0.68123

 Mulliken charges and spin densities:
               1          2
     1  H   -0.110914   0.717628
     2  H    0.002561   0.738827
     3  H    0.075056   0.503398
     4  H    0.068283  -0.289221
     5  H   -0.034986   0.329369
     6  H   -0.034986   0.329369
     7  H    0.068283  -0.289221
     8  H    0.075056   0.503398
     9  H    0.002561   0.738827
    10  H   -0.110914   0.717628
 Sum of Mulliken charges =  -0.00000   4.00000

 Dipole moment (field-independent basis, Debye):
    X=              0.0000    Y=              0.0000    Z=              0.0000  Tot=              0.0000
 Quadrupole moment (field-independent basis, Debye-Ang):
   XX=            -17.2430   YY=            -15.3328   ZZ=            -12.5947
   XY=              1.6047   XZ=              0.0000   YZ=             -0.0000

 Normal termination of Gaussian 09 at Thu Feb 23 12:44:39 2017.
