 Gaussian 09, Revision E.01,
 Gaussian 09:  ES64L-G09RevE.01 30-Nov-2015

 ----------------------------------------------------------------------
 #uhf/gen scf(tight,novaracc,noincfock,fulldiag, ) stable(crhf) guess=r
 ead geom=nocrowd test
 ----------------------------------------------------------------------

 hf stability analysis of h10 triangular lattice, y= 0.4521619835073459
 3 alpha= 19.500000000000000
 ----------------------------------------------------------------------
 Symbolic Z-matrix:
 Charge =  0 Multiplicity = 5

                         Standard orientation:
 ---------------------------------------------------------------------
 Center     Atomic      Atomic             Coordinates (Angstroms)
 Number     Number       Type             X           Y           Z
 ---------------------------------------------------------------------
      1          1           0        1.704907   -1.428103    0.000000
      2          1           0        1.704907   -2.782665    0.000000
      3          1           0        0.852453   -0.375411    0.000000
      4          1           0        0.852453   -1.729973    0.000000
      5          1           0       -0.000000    0.677281   -0.000000
      6          1           0       -0.000000   -0.677281   -0.000000
      7          1           0       -0.852453    1.729973    0.000000
      8          1           0       -0.852453    0.375411    0.000000
      9          1           0       -1.704907    2.782665    0.000000
     10          1           0       -1.704907    1.428103    0.000000
 ---------------------------------------------------------------------

 SCF Done:  E(UHF) =  -4.79660336934     A.U. after   11 cycles
 E2 =    -0.5052352948D-01 EUMP2 =    -0.48471268988189D+01

 The electronic state is 5-BU.
 Alpha  occ. eigenvalues --   -0.87221  -0.76937  -0.65680  -0.52705  -0.36930
 Alpha  occ. eigenvalues --   -0.30237  -0.24836
 Alpha virt. eigenvalues --    0.13891   0.35014   0.50199
  Beta  occ. eigenvalues --   -0.72255  -0.64998  -0.47347
  Beta virt. eigenvalues --    0.00482   0.13965   0.21957   0.26024   0.30192
  Beta virt. eigenvalues --    0.45997   0.69181

 Mulliken charges and spin densities:
               1          2
     1  H   -0.018069   0.289765
     2  H   -0.037830   0.946579
     3  H    0.048506   0.474531
     4  H    0.041227  -0.100744
     5  H   -0.033834   0.389869
     6  H   -0.033834   0.389869
     7  H    0.041227  -0.100744
     8  H    0.048506   0.474531
     9  H   -0.037830   0.946579
    10  H   -0.018069   0.289765
 Sum of Mulliken charges =   0.00000   4.00000

 Dipole moment (field-independent basis, Debye):
    X=              0.0000    Y=              0.0000    Z=             -0.0000  Tot=              0.0000
 Quadrupole moment (field-independent basis, Debye-Ang):
   XX=            -14.5043   YY=            -18.5317   ZZ=            -12.6568
   XY=              3.0628   XZ=              0.0000   YZ=             -0.0000

 Normal termination of Gaussian 09 at Thu Feb 23 12:43:37 2017.
