 Gaussian 09, Revision E.01,
 Gaussian 09:  ES64L-G09RevE.01 30-Nov-2015

 ----------------------------------------------------------------------
 #uhf/gen scf(tight,novaracc,noincfock,fulldiag, ) stable(crhf) guess=r
 ead geom=nocrowd test
 ----------------------------------------------------------------------

 hf stability analysis of h10 triangular lattice, y= 0.6625913996779515
 5 alpha= 37.250000000000000
 ----------------------------------------------------------------------
 Symbolic Z-matrix:
 Charge =  0 Multiplicity = 5

                         Standard orientation:
 ---------------------------------------------------------------------
 Center     Atomic      Atomic             Coordinates (Angstroms)
 Number     Number       Type             X           Y           Z
 ---------------------------------------------------------------------
      1          1           0        2.109696   -0.037740    0.000000
      2          1           0        2.109696   -1.132401    0.000000
      3          1           0        1.054848    0.254795   -0.000000
      4          1           0        1.054848   -0.839865    0.000000
      5          1           0        0.000000    0.547330   -0.000000
      6          1           0       -0.000000   -0.547330   -0.000000
      7          1           0       -1.054848    0.839865    0.000000
      8          1           0       -1.054848   -0.254795   -0.000000
      9          1           0       -2.109696    1.132401   -0.000000
     10          1           0       -2.109696    0.037740   -0.000000
 ---------------------------------------------------------------------

 SCF Done:  E(UHF) =  -4.71269341070     A.U. after   11 cycles
 E2 =    -0.5671831698D-01 EUMP2 =    -0.47694117276736D+01

 The electronic state is 5-BU.
 Alpha  occ. eigenvalues --   -0.95933  -0.83172  -0.63643  -0.56528  -0.41310
 Alpha  occ. eigenvalues --   -0.36833  -0.17054
 Alpha virt. eigenvalues --    0.22199   0.36812   0.68794
  Beta  occ. eigenvalues --   -0.79133  -0.64704  -0.43269
  Beta virt. eigenvalues --   -0.04446   0.05448   0.10788   0.33687   0.37928
  Beta virt. eigenvalues --    0.63778   0.85819

 Mulliken charges and spin densities:
               1          2
     1  H   -0.083404   0.594367
     2  H   -0.027450   0.466484
     3  H    0.095599   0.435488
     4  H    0.037099   0.208989
     5  H   -0.021843   0.294672
     6  H   -0.021843   0.294672
     7  H    0.037099   0.208989
     8  H    0.095599   0.435488
     9  H   -0.027450   0.466484
    10  H   -0.083404   0.594367
 Sum of Mulliken charges =   0.00000   4.00000

 Dipole moment (field-independent basis, Debye):
    X=              0.0000    Y=              0.0000    Z=              0.0000  Tot=              0.0000
 Quadrupole moment (field-independent basis, Debye-Ang):
   XX=            -19.3423   YY=            -14.8315   ZZ=            -12.5499
   XY=              1.0921   XZ=             -0.0000   YZ=              0.0000

 Normal termination of Gaussian 09 at Thu Feb 23 12:46:35 2017.
