 Gaussian 09, Revision E.01,
 Gaussian 09:  ES64L-G09RevE.01 30-Nov-2015

 ----------------------------------------------------------------------
 #uhf/gen scf(tight,novaracc,noincfock,fulldiag, ) stable(crhf) guess=r
 ead geom=nocrowd test
 ----------------------------------------------------------------------

 hf stability analysis of h10 triangular lattice, y= 0.8557834790083491
 7 alpha= 51.750000000000000
 ----------------------------------------------------------------------
 Symbolic Z-matrix:
 Charge =  0 Multiplicity = 5

                         Standard orientation:
 ---------------------------------------------------------------------
 Center     Atomic      Atomic             Coordinates (Angstroms)
 Number     Number       Type             X           Y           Z
 ---------------------------------------------------------------------
      1          1           0        2.119241    1.053650    0.000000
      2          1           0        2.119241   -0.036080    0.000000
      3          1           0        1.059621    0.799257    0.000000
      4          1           0        1.059621   -0.290473    0.000000
      5          1           0        0.000000    0.544865    0.000000
      6          1           0       -0.000000   -0.544865    0.000000
      7          1           0       -1.059621    0.290473    0.000000
      8          1           0       -1.059621   -0.799257    0.000000
      9          1           0       -2.119241    0.036080    0.000000
     10          1           0       -2.119241   -1.053650    0.000000
 ---------------------------------------------------------------------

 SCF Done:  E(UHF) =  -4.71273339881     A.U. after   11 cycles
 E2 =    -0.5672549826D-01 EUMP2 =    -0.47694588970633D+01

 The electronic state is 5-BU.
 Alpha  occ. eigenvalues --   -0.96143  -0.83340  -0.63588  -0.57006  -0.41707
 Alpha  occ. eigenvalues --   -0.36598  -0.17257
 Alpha virt. eigenvalues --    0.22664   0.36779   0.70962
  Beta  occ. eigenvalues --   -0.79281  -0.64712  -0.43160
  Beta virt. eigenvalues --   -0.04883   0.05764   0.10311   0.33198   0.38686
  Beta virt. eigenvalues --    0.63578   0.88346

 Mulliken charges and spin densities:
               1          2
     1  H   -0.033675   0.466633
     2  H   -0.080921   0.582144
     3  H    0.041800   0.231532
     4  H    0.095041   0.427573
     5  H   -0.022245   0.292118
     6  H   -0.022245   0.292118
     7  H    0.095041   0.427573
     8  H    0.041800   0.231532
     9  H   -0.080921   0.582144
    10  H   -0.033675   0.466633
 Sum of Mulliken charges =  -0.00000   4.00000

 Dipole moment (field-independent basis, Debye):
    X=             -0.0000    Y=             -0.0000    Z=             -0.0000  Tot=              0.0000
 Quadrupole moment (field-independent basis, Debye-Ang):
   XX=            -19.5723   YY=            -14.7662   ZZ=            -12.5440
   XY=             -1.0370   XZ=              0.0000   YZ=              0.0000

 Normal termination of Gaussian 09 at Thu Feb 23 12:49:04 2017.
