 Gaussian 09, Revision E.01,
 Gaussian 09:  ES64L-G09RevE.01 30-Nov-2015

 ----------------------------------------------------------------------
 #uhf/gen scf(tight,novaracc,noincfock,fulldiag, ) stable(crhf) guess=r
 ead geom=nocrowd test
 ----------------------------------------------------------------------

 hf stability analysis of h10 triangular lattice, y= 0.4980454386758799
 1 alpha= 23.250000000000000
 ----------------------------------------------------------------------
 Symbolic Z-matrix:
 Charge =  0 Multiplicity = 5

                         Standard orientation:
 ---------------------------------------------------------------------
 Center     Atomic      Atomic             Coordinates (Angstroms)
 Number     Number       Type             X           Y           Z
 ---------------------------------------------------------------------
      1          1           0        1.830399   -1.106137    0.000000
      2          1           0        1.830399   -2.367830    0.000000
      3          1           0        0.915200   -0.237646    0.000000
      4          1           0        0.915200   -1.499338    0.000000
      5          1           0        0.000000    0.630846   -0.000000
      6          1           0       -0.000000   -0.630846   -0.000000
      7          1           0       -0.915200    1.499338    0.000000
      8          1           0       -0.915200    0.237646    0.000000
      9          1           0       -1.830399    2.367830    0.000000
     10          1           0       -1.830399    1.106137    0.000000
 ---------------------------------------------------------------------

 SCF Done:  E(UHF) =  -4.72076596201     A.U. after   11 cycles
 E2 =    -0.4487791099D-01 EUMP2 =    -0.47656438730048D+01

 The electronic state is 5-BU.
 Alpha  occ. eigenvalues --   -0.89630  -0.78331  -0.65462  -0.49843  -0.36533
 Alpha  occ. eigenvalues --   -0.34655  -0.18471
 Alpha virt. eigenvalues --    0.12977   0.36065   0.44619
  Beta  occ. eigenvalues --   -0.75354  -0.66247  -0.46102
  Beta virt. eigenvalues --    0.02880   0.08337   0.20829   0.25122   0.38819
  Beta virt. eigenvalues --    0.44218   0.68717

 Mulliken charges and spin densities:
               1          2
     1  H   -0.083986   0.628851
     2  H   -0.023832   0.853714
     3  H    0.064054   0.501425
     4  H    0.083437  -0.334288
     5  H   -0.039673   0.350297
     6  H   -0.039673   0.350297
     7  H    0.083437  -0.334288
     8  H    0.064054   0.501425
     9  H   -0.023832   0.853714
    10  H   -0.083986   0.628851
 Sum of Mulliken charges =  -0.00000   4.00000

 Dipole moment (field-independent basis, Debye):
    X=             -0.0000    Y=              0.0000    Z=             -0.0000  Tot=              0.0000
 Quadrupole moment (field-independent basis, Debye-Ang):
   XX=            -16.5150   YY=            -16.6472   ZZ=            -12.5877
   XY=              2.6920   XZ=              0.0000   YZ=             -0.0000

 Normal termination of Gaussian 09 at Thu Feb 23 12:44:14 2017.
