 Gaussian 09, Revision E.01,
 Gaussian 09:  ES64L-G09RevE.01 30-Nov-2015

 ----------------------------------------------------------------------
 #uhf/gen scf(tight,novaracc,noincfock,fulldiag, ) stable(crhf) guess=r
 ead geom=nocrowd test
 ----------------------------------------------------------------------

 hf stability analysis of h10 triangular lattice, y= 0.5159090308841330
 9 alpha= 24.750000000000000
 ----------------------------------------------------------------------
 Symbolic Z-matrix:
 Charge =  0 Multiplicity = 5

                         Standard orientation:
 ---------------------------------------------------------------------
 Center     Atomic      Atomic             Coordinates (Angstroms)
 Number     Number       Type             X           Y           Z
 ---------------------------------------------------------------------
      1          1           0        1.874077   -0.984469   -0.000000
      2          1           0        1.874077   -2.216757   -0.000000
      3          1           0        0.937039   -0.184163   -0.000000
      4          1           0        0.937039   -1.416450   -0.000000
      5          1           0        0.000000    0.616144    0.000000
      6          1           0       -0.000000   -0.616144   -0.000000
      7          1           0       -0.937039    1.416450   -0.000000
      8          1           0       -0.937039    0.184163   -0.000000
      9          1           0       -1.874077    2.216757   -0.000000
     10          1           0       -1.874077    0.984469   -0.000000
 ---------------------------------------------------------------------

 SCF Done:  E(UHF) =  -4.70440011587     A.U. after   11 cycles
 E2 =    -0.4477573018D-01 EUMP2 =    -0.47491758460532D+01

 The electronic state is 5-BU.
 Alpha  occ. eigenvalues --   -0.90570  -0.78977  -0.65283  -0.48797  -0.39009
 Alpha  occ. eigenvalues --   -0.34637  -0.16746
 Alpha virt. eigenvalues --    0.13585   0.38175   0.42407
  Beta  occ. eigenvalues --   -0.76289  -0.66340  -0.45700
  Beta virt. eigenvalues --    0.02898   0.06510   0.19908   0.25489   0.41021
  Beta virt. eigenvalues --    0.45537   0.68425

 Mulliken charges and spin densities:
               1          2
     1  H   -0.103663   0.697964
     2  H   -0.007504   0.788485
     3  H    0.070931   0.504788
     4  H    0.077715  -0.327784
     5  H   -0.037478   0.336547
     6  H   -0.037478   0.336547
     7  H    0.077715  -0.327784
     8  H    0.070931   0.504788
     9  H   -0.007504   0.788485
    10  H   -0.103663   0.697964
 Sum of Mulliken charges =  -0.00000   4.00000

 Dipole moment (field-independent basis, Debye):
    X=             -0.0000    Y=             -0.0000    Z=              0.0000  Tot=              0.0000
 Quadrupole moment (field-independent basis, Debye-Ang):
   XX=            -17.0385   YY=            -15.7603   ZZ=            -12.5890
   XY=              2.0273   XZ=             -0.0000   YZ=              0.0000

 Normal termination of Gaussian 09 at Thu Feb 23 12:44:29 2017.
