 Gaussian 09, Revision E.01,
 Gaussian 09:  ES64L-G09RevE.01 30-Nov-2015

 ----------------------------------------------------------------------
 #uhf/gen scf(tight,novaracc,noincfock,fulldiag, ) stable(crhf) guess=r
 ead geom=nocrowd test
 ----------------------------------------------------------------------

 hf stability analysis of h10 triangular lattice, y= 0.4676948326587840
 9 alpha= 20.750000000000000
 ----------------------------------------------------------------------
 Symbolic Z-matrix:
 Charge =  0 Multiplicity = 5

                         Standard orientation:
 ---------------------------------------------------------------------
 Center     Atomic      Atomic             Coordinates (Angstroms)
 Number     Number       Type             X           Y           Z
 ---------------------------------------------------------------------
      1          1           0        1.749432   -1.317329   -0.000000
      2          1           0        1.749432   -2.637416   -0.000000
      3          1           0        0.874716   -0.328643   -0.000000
      4          1           0        0.874716   -1.648730   -0.000000
      5          1           0        0.000000    0.660043   -0.000000
      6          1           0       -0.000000   -0.660043    0.000000
      7          1           0       -0.874716    1.648730   -0.000000
      8          1           0       -0.874716    0.328643   -0.000000
      9          1           0       -1.749432    2.637416   -0.000000
     10          1           0       -1.749432    1.317329   -0.000000
 ---------------------------------------------------------------------

 SCF Done:  E(UHF) =  -4.76877280732     A.U. after   11 cycles
 E2 =    -0.4944778277D-01 EUMP2 =    -0.48182205900947D+01

 The electronic state is 5-BU.
 Alpha  occ. eigenvalues --   -0.88009  -0.77355  -0.65588  -0.51768  -0.35752
 Alpha  occ. eigenvalues --   -0.31730  -0.22854
 Alpha virt. eigenvalues --    0.12962   0.34567   0.48562
  Beta  occ. eigenvalues --   -0.73245  -0.65352  -0.46773
  Beta virt. eigenvalues --    0.01671   0.11888   0.22020   0.25224   0.33044
  Beta virt. eigenvalues --    0.45132   0.68954

 Mulliken charges and spin densities:
               1          2
     1  H   -0.036856   0.405103
     2  H   -0.039673   0.926180
     3  H    0.053173   0.482877
     4  H    0.060632  -0.191571
     5  H   -0.037276   0.377411
     6  H   -0.037276   0.377411
     7  H    0.060632  -0.191571
     8  H    0.053173   0.482877
     9  H   -0.039673   0.926180
    10  H   -0.036856   0.405103
 Sum of Mulliken charges =  -0.00000   4.00000

 Dipole moment (field-independent basis, Debye):
    X=             -0.0000    Y=              0.0000    Z=              0.0000  Tot=              0.0000
 Quadrupole moment (field-independent basis, Debye-Ang):
   XX=            -15.1514   YY=            -18.1754   ZZ=            -12.6223
   XY=              3.2459   XZ=             -0.0000   YZ=              0.0000

 Normal termination of Gaussian 09 at Thu Feb 23 12:43:49 2017.
