 Gaussian 09, Revision E.01,
 Gaussian 09:  ES64L-G09RevE.01 30-Nov-2015

 ----------------------------------------------------------------------
 #uhf/gen scf(tight,novaracc,noincfock,fulldiag, ) stable(crhf) guess=r
 ead geom=nocrowd test
 ----------------------------------------------------------------------

 hf stability analysis of h10 triangular lattice, y= 0.8635150515934925
 1 alpha= 52.250000000000000
 ----------------------------------------------------------------------
 Symbolic Z-matrix:
 Charge =  0 Multiplicity = 5

                         Standard orientation:
 ---------------------------------------------------------------------
 Center     Atomic      Atomic             Coordinates (Angstroms)
 Number     Number       Type             X           Y           Z
 ---------------------------------------------------------------------
      1          1           0        2.114635    1.092934    0.000000
      2          1           0        2.114635    0.000830    0.000000
      3          1           0        1.057318    0.819493    0.000000
      4          1           0        1.057318   -0.272611    0.000000
      5          1           0        0.000000    0.546052   -0.000000
      6          1           0       -0.000000   -0.546052   -0.000000
      7          1           0       -1.057318    0.272611    0.000000
      8          1           0       -1.057318   -0.819493   -0.000000
      9          1           0       -2.114635   -0.000830    0.000000
     10          1           0       -2.114635   -1.092934   -0.000000
 ---------------------------------------------------------------------

 SCF Done:  E(UHF) =  -4.71273942825     A.U. after   11 cycles
 E2 =    -0.5672458921D-01 EUMP2 =    -0.47694640174562D+01

 The electronic state is 5-BU.
 Alpha  occ. eigenvalues --   -0.96042  -0.83259  -0.63615  -0.56776  -0.41515
 Alpha  occ. eigenvalues --   -0.36711  -0.17159
 Alpha virt. eigenvalues --    0.22441   0.36792   0.69904
  Beta  occ. eigenvalues --   -0.79209  -0.64708  -0.43213
  Beta virt. eigenvalues --   -0.04672   0.05609   0.10542   0.33436   0.38319
  Beta virt. eigenvalues --    0.63674   0.87114

 Mulliken charges and spin densities:
               1          2
     1  H   -0.030604   0.466327
     2  H   -0.082141   0.588241
     3  H    0.039395   0.220447
     4  H    0.095386   0.431608
     5  H   -0.022037   0.293376
     6  H   -0.022037   0.293376
     7  H    0.095386   0.431608
     8  H    0.039395   0.220447
     9  H   -0.082141   0.588241
    10  H   -0.030604   0.466327
 Sum of Mulliken charges =   0.00000   4.00000

 Dipole moment (field-independent basis, Debye):
    X=              0.0000    Y=              0.0000    Z=             -0.0000  Tot=              0.0000
 Quadrupole moment (field-independent basis, Debye-Ang):
   XX=            -19.4591   YY=            -14.7998   ZZ=            -12.5469
   XY=             -1.0685   XZ=             -0.0000   YZ=             -0.0000

 Normal termination of Gaussian 09 at Thu Feb 23 12:49:09 2017.
