 Gaussian 09, Revision E.01,
 Gaussian 09:  ES64L-G09RevE.01 30-Nov-2015

 ----------------------------------------------------------------------
 #uhf/gen scf(tight,novaracc,noincfock,fulldiag, ) stable(crhf) guess=r
 ead geom=nocrowd test
 ----------------------------------------------------------------------

 hf stability analysis of h10 triangular lattice, y= 1.3961024673370386
  alpha= 73.500000000000000
 ----------------------------------------------------------------------
 Symbolic Z-matrix:
 Charge =  0 Multiplicity = 5

                         Standard orientation:
 ---------------------------------------------------------------------
 Center     Atomic      Atomic             Coordinates (Angstroms)
 Number     Number       Type             X           Y           Z
 ---------------------------------------------------------------------
      1          1           0        1.586058    3.170347    0.000000
      2          1           0        1.586058    1.714283    0.000000
      3          1           0        0.793029    1.949189    0.000000
      4          1           0        0.793029    0.493126    0.000000
      5          1           0       -0.000000    0.728032    0.000000
      6          1           0       -0.000000   -0.728032    0.000000
      7          1           0       -0.793029   -0.493126    0.000000
      8          1           0       -0.793029   -1.949189    0.000000
      9          1           0       -1.586058   -1.714283    0.000000
     10          1           0       -1.586058   -3.170347    0.000000
 ---------------------------------------------------------------------

 SCF Done:  E(UHF) =  -4.84182795452     A.U. after    9 cycles
 E2 =    -0.4912353258D-01 EUMP2 =    -0.48909514871049D+01

 The electronic state is 5-BU.
 Alpha  occ. eigenvalues --   -0.85439  -0.76046  -0.66114  -0.55258  -0.40657
 Alpha  occ. eigenvalues --   -0.35661  -0.20986
 Alpha virt. eigenvalues --    0.18251   0.38133   0.52876
  Beta  occ. eigenvalues --   -0.70429  -0.64894  -0.49349
  Beta virt. eigenvalues --   -0.03705   0.19415   0.20054   0.24262   0.29883
  Beta virt. eigenvalues --    0.48575   0.70164

 Mulliken charges and spin densities:
               1          2
     1  H   -0.021472   0.975802
     2  H    0.000484   0.132469
     3  H    0.006281   0.009852
     4  H    0.039064   0.468434
     5  H   -0.024356   0.413442
     6  H   -0.024356   0.413442
     7  H    0.039064   0.468434
     8  H    0.006281   0.009852
     9  H    0.000484   0.132469
    10  H   -0.021472   0.975802
 Sum of Mulliken charges =  -0.00000   4.00000

 Dipole moment (field-independent basis, Debye):
    X=             -0.0000    Y=              0.0000    Z=             -0.0000  Tot=              0.0000
 Quadrupole moment (field-independent basis, Debye-Ang):
   XX=            -13.6128   YY=            -18.2439   ZZ=            -12.7693
   XY=             -2.0300   XZ=              0.0000   YZ=              0.0000

 Normal termination of Gaussian 09 at Thu Feb 23 12:52:43 2017.
