 Gaussian 09, Revision E.01,
 Gaussian 09:  ES64L-G09RevE.01 30-Nov-2015

 ----------------------------------------------------------------------
 #uhf/gen scf(tight,novaracc,noincfock,fulldiag, ) stable(crhf) guess=r
 ead geom=nocrowd test
 ----------------------------------------------------------------------

 hf stability analysis of h10 triangular lattice, y= 0.5306529471566099
 3 alpha= 26.000000000000000
 ----------------------------------------------------------------------
 Symbolic Z-matrix:
 Charge =  0 Multiplicity = 5

                         Standard orientation:
 ---------------------------------------------------------------------
 Center     Atomic      Atomic             Coordinates (Angstroms)
 Number     Number       Type             X           Y           Z
 ---------------------------------------------------------------------
      1          1           0        1.907791   -0.885274    0.000000
      2          1           0        1.907791   -2.095785    0.000000
      3          1           0        0.953895   -0.140009    0.000000
      4          1           0        0.953895   -1.350520    0.000000
      5          1           0        0.000000    0.605255   -0.000000
      6          1           0       -0.000000   -0.605255   -0.000000
      7          1           0       -0.953895    1.350520    0.000000
      8          1           0       -0.953895    0.140009    0.000000
      9          1           0       -1.907791    2.095785    0.000000
     10          1           0       -1.907791    0.885274    0.000000
 ---------------------------------------------------------------------

 SCF Done:  E(UHF) =  -4.69807533560     A.U. after   11 cycles
 E2 =    -0.4664530482D-01 EUMP2 =    -0.47447206404181D+01

 The electronic state is 5-BU.
 Alpha  occ. eigenvalues --   -0.91319  -0.79530  -0.65057  -0.48362  -0.40367
 Alpha  occ. eigenvalues --   -0.34908  -0.15816
 Alpha virt. eigenvalues --    0.14229   0.40409   0.40896
  Beta  occ. eigenvalues --   -0.76807  -0.66112  -0.45306
  Beta virt. eigenvalues --    0.02643   0.05165   0.19064   0.26079   0.41047
  Beta virt. eigenvalues --    0.48734   0.68036

 Mulliken charges and spin densities:
               1          2
     1  H   -0.112050   0.719968
     2  H    0.004767   0.726058
     3  H    0.075996   0.502699
     4  H    0.065575  -0.276562
     5  H   -0.034287   0.327836
     6  H   -0.034287   0.327836
     7  H    0.065575  -0.276562
     8  H    0.075996   0.502699
     9  H    0.004767   0.726058
    10  H   -0.112050   0.719968
 Sum of Mulliken charges =  -0.00000   4.00000

 Dipole moment (field-independent basis, Debye):
    X=              0.0000    Y=              0.0000    Z=             -0.0000  Tot=              0.0000
 Quadrupole moment (field-independent basis, Debye-Ang):
   XX=            -17.2806   YY=            -15.2491   ZZ=            -12.5963
   XY=              1.5103   XZ=              0.0000   YZ=             -0.0000

 Normal termination of Gaussian 09 at Thu Feb 23 12:44:42 2017.
