 Gaussian 09, Revision E.01,
 Gaussian 09:  ES64L-G09RevE.01 30-Nov-2015

 ----------------------------------------------------------------------
 #uhf/gen scf(tight,novaracc,noincfock,fulldiag, ) stable(crhf) guess=r
 ead geom=nocrowd test
 ----------------------------------------------------------------------

 hf stability analysis of h10 triangular lattice, y= 1.2106565115415191
  alpha= 68.500000000000000
 ----------------------------------------------------------------------
 Symbolic Z-matrix:
 Charge =  0 Multiplicity = 5

                         Standard orientation:
 ---------------------------------------------------------------------
 Center     Atomic      Atomic             Coordinates (Angstroms)
 Number     Number       Type             X           Y           Z
 ---------------------------------------------------------------------
      1          1           0        1.774828    2.553869   -0.000000
      2          1           0        1.774828    1.252672   -0.000000
      3          1           0        0.887414    1.602234   -0.000000
      4          1           0        0.887414    0.301037   -0.000000
      5          1           0        0.000000    0.650598   -0.000000
      6          1           0       -0.000000   -0.650598   -0.000000
      7          1           0       -0.887414   -0.301037    0.000000
      8          1           0       -0.887414   -1.602234   -0.000000
      9          1           0       -1.774828   -1.252672    0.000000
     10          1           0       -1.774828   -2.553869   -0.000000
 ---------------------------------------------------------------------

 SCF Done:  E(UHF) =  -4.75236207935     A.U. after   10 cycles
 E2 =    -0.4805411610D-01 EUMP2 =    -0.48004161954546D+01

 The electronic state is 5-BU.
 Alpha  occ. eigenvalues --   -0.88495  -0.77629  -0.65555  -0.51203  -0.35251
 Alpha  occ. eigenvalues --   -0.33133  -0.21384
 Alpha virt. eigenvalues --    0.12745   0.34687   0.47427
  Beta  occ. eigenvalues --   -0.73898  -0.65647  -0.46526
  Beta virt. eigenvalues --    0.02205   0.10741   0.21777   0.25041   0.34796
  Beta virt. eigenvalues --    0.44705   0.68879

 Mulliken charges and spin densities:
               1          2
     1  H   -0.037582   0.909384
     2  H   -0.051035   0.481137
     3  H    0.071181  -0.248904
     4  H    0.056233   0.489144
     5  H   -0.038798   0.369239
     6  H   -0.038798   0.369239
     7  H    0.056233   0.489144
     8  H    0.071181  -0.248904
     9  H   -0.051035   0.481137
    10  H   -0.037582   0.909384
 Sum of Mulliken charges =   0.00000   4.00000

 Dipole moment (field-independent basis, Debye):
    X=             -0.0000    Y=              0.0000    Z=              0.0000  Tot=              0.0000
 Quadrupole moment (field-independent basis, Debye-Ang):
   XX=            -15.5869   YY=            -17.7918   ZZ=            -12.6067
   XY=             -3.2046   XZ=              0.0000   YZ=             -0.0000

 Normal termination of Gaussian 09 at Thu Feb 23 12:51:54 2017.
