 Gaussian 09, Revision E.01,
 Gaussian 09:  ES64L-G09RevE.01 30-Nov-2015

 ----------------------------------------------------------------------
 #uhf/gen scf(tight,novaracc,noincfock,fulldiag, ) stable(crhf) guess=r
 ead geom=nocrowd test
 ----------------------------------------------------------------------

 hf stability analysis of h10 triangular lattice, y= 0.3149713055983335
 3 alpha= 9.7500000000000000
 ----------------------------------------------------------------------
 Symbolic Z-matrix:
 Charge =  0 Multiplicity = 5

                         Standard orientation:
 ---------------------------------------------------------------------
 Center     Atomic      Atomic             Coordinates (Angstroms)
 Number     Number       Type             X           Y           Z
 ---------------------------------------------------------------------
      1          1           0        1.241687   -2.576473    0.000000
      2          1           0        1.241687   -4.436362    0.000000
      3          1           0        0.620844   -0.823264    0.000000
      4          1           0        0.620844   -2.683153    0.000000
      5          1           0        0.000000    0.929945   -0.000000
      6          1           0       -0.000000   -0.929945   -0.000000
      7          1           0       -0.620844    2.683153    0.000000
      8          1           0       -0.620844    0.823264    0.000000
      9          1           0       -1.241687    4.436362    0.000000
     10          1           0       -1.241687    2.576473    0.000000
 ---------------------------------------------------------------------

 SCF Done:  E(UHF) =  -4.60128899780     A.U. after    9 cycles
 E2 =    -0.5318927185D-01 EUMP2 =    -0.46544782696522D+01

 The electronic state is 5-BU.
 Alpha  occ. eigenvalues --   -0.82259  -0.75468  -0.68462  -0.65499  -0.48057
 Alpha  occ. eigenvalues --   -0.47853  -0.01968
 Alpha virt. eigenvalues --    0.33696   0.50471   0.57055
  Beta  occ. eigenvalues --   -0.68444  -0.67322  -0.54989
  Beta virt. eigenvalues --   -0.19575   0.14900   0.15051   0.39112   0.45169
  Beta virt. eigenvalues --    0.57971   0.73118

 Mulliken charges and spin densities:
               1          2
     1  H   -0.005431   0.024267
     2  H    0.004171   1.004112
     3  H    0.021828   0.487020
     4  H   -0.019017   0.021311
     5  H   -0.001551   0.463290
     6  H   -0.001551   0.463290
     7  H   -0.019017   0.021311
     8  H    0.021828   0.487020
     9  H    0.004171   1.004112
    10  H   -0.005431   0.024267
 Sum of Mulliken charges =  -0.00000   4.00000

 Dipole moment (field-independent basis, Debye):
    X=             -0.0000    Y=             -0.0000    Z=             -0.0000  Tot=              0.0000
 Quadrupole moment (field-independent basis, Debye-Ang):
   XX=            -13.7262   YY=            -15.7159   ZZ=            -13.0715
   XY=              0.2315   XZ=              0.0000   YZ=             -0.0000

 Normal termination of Gaussian 09 at Thu Feb 23 12:42:04 2017.
