 Gaussian 09, Revision E.01,
 Gaussian 09:  ES64L-G09RevE.01 30-Nov-2015

 ----------------------------------------------------------------------
 #uhf/gen scf(tight,novaracc,noincfock,fulldiag, ) stable(crhf) guess=r
 ead geom=nocrowd test
 ----------------------------------------------------------------------

 hf stability analysis of h10 triangular lattice, y= 0.5453026111479248
 9 alpha= 27.250000000000000
 ----------------------------------------------------------------------
 Symbolic Z-matrix:
 Charge =  0 Multiplicity = 5

                         Standard orientation:
 ---------------------------------------------------------------------
 Center     Atomic      Atomic             Coordinates (Angstroms)
 Number     Number       Type             X           Y           Z
 ---------------------------------------------------------------------
      1          1           0        1.939133   -0.787698    0.000000
      2          1           0        1.939133   -1.978643    0.000000
      3          1           0        0.969567   -0.096113    0.000000
      4          1           0        0.969567   -1.287058    0.000000
      5          1           0        0.000000    0.595472    0.000000
      6          1           0       -0.000000   -0.595472    0.000000
      7          1           0       -0.969567    1.287058    0.000000
      8          1           0       -0.969567    0.096113    0.000000
      9          1           0       -1.939133    1.978643    0.000000
     10          1           0       -1.939133    0.787698    0.000000
 ---------------------------------------------------------------------

 SCF Done:  E(UHF) =  -4.69670905934     A.U. after   10 cycles
 E2 =    -0.4931297423D-01 EUMP2 =    -0.47460220335649D+01

 The electronic state is 5-BU.
 Alpha  occ. eigenvalues --   -0.92031  -0.80079  -0.64797  -0.48659  -0.40810
 Alpha  occ. eigenvalues --   -0.35417  -0.15294
 Alpha virt. eigenvalues --    0.14988   0.39739   0.43002
  Beta  occ. eigenvalues --   -0.77154  -0.65742  -0.44922
  Beta virt. eigenvalues --    0.02198   0.04088   0.18118   0.27019   0.40429
  Beta virt. eigenvalues --    0.52762   0.67541

 Mulliken charges and spin densities:
               1          2
     1  H   -0.114407   0.720475
     2  H    0.013201   0.663075
     3  H    0.080138   0.497692
     4  H    0.051730  -0.202851
     5  H   -0.030662   0.321609
     6  H   -0.030662   0.321609
     7  H    0.051730  -0.202851
     8  H    0.080138   0.497692
     9  H    0.013201   0.663075
    10  H   -0.114407   0.720475
 Sum of Mulliken charges =  -0.00000   4.00000

 Dipole moment (field-independent basis, Debye):
    X=              0.0000    Y=             -0.0000    Z=             -0.0000  Tot=              0.0000
 Quadrupole moment (field-independent basis, Debye-Ang):
   XX=            -17.4228   YY=            -14.9616   ZZ=            -12.6031
   XY=              1.1323   XZ=              0.0000   YZ=             -0.0000

 Normal termination of Gaussian 09 at Thu Feb 23 12:44:54 2017.
