 Gaussian 09, Revision E.01,
 Gaussian 09:  ES64L-G09RevE.01 30-Nov-2015

 ----------------------------------------------------------------------
 #uhf/gen scf(tight,novaracc,noincfock,fulldiag, ) stable(crhf) guess=r
 ead geom=nocrowd test
 ----------------------------------------------------------------------

 hf stability analysis of h10 triangular lattice, y= 0.6211063758797595
 9 alpha= 33.750000000000000
 ----------------------------------------------------------------------
 Symbolic Z-matrix:
 Charge =  0 Multiplicity = 5

                         Standard orientation:
 ---------------------------------------------------------------------
 Center     Atomic      Atomic             Coordinates (Angstroms)
 Number     Number       Type             X           Y           Z
 ---------------------------------------------------------------------
      1          1           0        2.065724   -0.296670    0.000000
      2          1           0        2.065724   -1.414632    0.000000
      3          1           0        1.032862    0.131155    0.000000
      4          1           0        1.032862   -0.986806    0.000000
      5          1           0        0.000000    0.558981   -0.000000
      6          1           0       -0.000000   -0.558981   -0.000000
      7          1           0       -1.032862    0.986806    0.000000
      8          1           0       -1.032862   -0.131155    0.000000
      9          1           0       -2.065724    1.414632    0.000000
     10          1           0       -2.065724    0.296670    0.000000
 ---------------------------------------------------------------------

 SCF Done:  E(UHF) =  -4.71017553442     A.U. after   10 cycles
 E2 =    -0.5635123647D-01 EUMP2 =    -0.47665267708826D+01

 The electronic state is 5-BU.
 Alpha  occ. eigenvalues --   -0.94950  -0.82390  -0.63884  -0.54308  -0.39524
 Alpha  occ. eigenvalues --   -0.37974  -0.16154
 Alpha virt. eigenvalues --    0.20015   0.37183   0.59959
  Beta  occ. eigenvalues --   -0.78491  -0.64721  -0.43711
  Beta virt. eigenvalues --   -0.02451   0.04247   0.12904   0.34550   0.35776
  Beta virt. eigenvalues --    0.64769   0.75362

 Mulliken charges and spin densities:
               1          2
     1  H   -0.093904   0.638369
     2  H   -0.004258   0.483654
     3  H    0.093798   0.459413
     4  H    0.025706   0.114467
     5  H   -0.021341   0.304096
     6  H   -0.021341   0.304096
     7  H    0.025706   0.114467
     8  H    0.093798   0.459413
     9  H   -0.004258   0.483654
    10  H   -0.093904   0.638369
 Sum of Mulliken charges =  -0.00000   4.00000

 Dipole moment (field-independent basis, Debye):
    X=             -0.0000    Y=             -0.0000    Z=             -0.0000  Tot=              0.0000
 Quadrupole moment (field-independent basis, Debye-Ang):
   XX=            -18.4883   YY=            -14.9548   ZZ=            -12.5754
   XY=              1.0557   XZ=              0.0000   YZ=             -0.0000

 Normal termination of Gaussian 09 at Thu Feb 23 12:45:59 2017.
