 Gaussian 09, Revision E.01,
 Gaussian 09:  ES64L-G09RevE.01 30-Nov-2015

 ----------------------------------------------------------------------
 #uhf/gen scf(tight,novaracc,noincfock,fulldiag, ) stable(crhf) guess=r
 ead geom=nocrowd test
 ----------------------------------------------------------------------

 hf stability analysis of h10 triangular lattice, y= 1.2029713290986654
  alpha= 68.250000000000000
 ----------------------------------------------------------------------
 Symbolic Z-matrix:
 Charge =  0 Multiplicity = 5

                         Standard orientation:
 ---------------------------------------------------------------------
 Center     Atomic      Atomic             Coordinates (Angstroms)
 Number     Number       Type             X           Y           Z
 ---------------------------------------------------------------------
      1          1           0        1.783080    2.526562    0.000000
      2          1           0        1.783080    1.231386    0.000000
      3          1           0        0.891540    1.587075    0.000000
      4          1           0        0.891540    0.291899    0.000000
      5          1           0        0.000000    0.647588    0.000000
      6          1           0       -0.000000   -0.647588    0.000000
      7          1           0       -0.891540   -0.291899    0.000000
      8          1           0       -0.891540   -1.587075    0.000000
      9          1           0       -1.783080   -1.231386    0.000000
     10          1           0       -1.783080   -2.526562    0.000000
 ---------------------------------------------------------------------

 SCF Done:  E(UHF) =  -4.74716565683     A.U. after   10 cycles
 E2 =    -0.4752472443D-01 EUMP2 =    -0.47946903812609D+01

 The electronic state is 5-BU.
 Alpha  occ. eigenvalues --   -0.88657  -0.77724  -0.65546  -0.51012  -0.35119
 Alpha  occ. eigenvalues --   -0.33623  -0.20913
 Alpha virt. eigenvalues --    0.12724   0.34795   0.47031
  Beta  occ. eigenvalues --   -0.74118  -0.65749  -0.46457
  Beta virt. eigenvalues --    0.02350   0.10376   0.21663   0.25020   0.35382
  Beta virt. eigenvalues --    0.44584   0.68859

 Mulliken charges and spin densities:
               1          2
     1  H   -0.036307   0.902876
     2  H   -0.055975   0.505766
     3  H    0.074153  -0.266354
     4  H    0.057296   0.491245
     5  H   -0.039167   0.366468
     6  H   -0.039167   0.366468
     7  H    0.057296   0.491245
     8  H    0.074153  -0.266354
     9  H   -0.055975   0.505766
    10  H   -0.036307   0.902876
 Sum of Mulliken charges =  -0.00000   4.00000

 Dipole moment (field-independent basis, Debye):
    X=              0.0000    Y=              0.0000    Z=             -0.0000  Tot=              0.0000
 Quadrupole moment (field-independent basis, Debye-Ang):
   XX=            -15.7322   YY=            -17.6416   ZZ=            -12.6025
   XY=             -3.1638   XZ=             -0.0000   YZ=             -0.0000

 Normal termination of Gaussian 09 at Thu Feb 23 12:51:51 2017.
