 Gaussian 09, Revision E.01,
 Gaussian 09:  ES64L-G09RevE.01 30-Nov-2015

 ----------------------------------------------------------------------
 #uhf/gen scf(tight,novaracc,noincfock,fulldiag, ) stable(crhf) guess=r
 ead geom=nocrowd test
 ----------------------------------------------------------------------

 hf stability analysis of h10 triangular lattice, y= 1.1255574828824770
  alpha= 65.500000000000000
 ----------------------------------------------------------------------
 Symbolic Z-matrix:
 Charge =  0 Multiplicity = 5

                         Standard orientation:
 ---------------------------------------------------------------------
 Center     Atomic      Atomic             Coordinates (Angstroms)
 Number     Number       Type             X           Y           Z
 ---------------------------------------------------------------------
      1          1           0        1.867044    2.241461   -0.000000
      2          1           0        1.867044    1.004532   -0.000000
      3          1           0        0.933522    1.429963   -0.000000
      4          1           0        0.933522    0.193034   -0.000000
      5          1           0        0.000000    0.618464   -0.000000
      6          1           0       -0.000000   -0.618464   -0.000000
      7          1           0       -0.933522   -0.193034    0.000000
      8          1           0       -0.933522   -1.429963   -0.000000
      9          1           0       -1.867044   -1.004532    0.000000
     10          1           0       -1.867044   -2.241461   -0.000000
 ---------------------------------------------------------------------

 SCF Done:  E(UHF) =  -4.70641742906     A.U. after   11 cycles
 E2 =    -0.4458904989D-01 EUMP2 =    -0.47510064789485D+01

 The electronic state is 5-BU.
 Alpha  occ. eigenvalues --   -0.90417  -0.78868  -0.65320  -0.48946  -0.38647
 Alpha  occ. eigenvalues --   -0.34613  -0.16986
 Alpha virt. eigenvalues --    0.13470   0.37776   0.42749
  Beta  occ. eigenvalues --   -0.76158  -0.66356  -0.45773
  Beta virt. eigenvalues --    0.02923   0.06800   0.20067   0.25407   0.40842
  Beta virt. eigenvalues --    0.45101   0.68487

 Mulliken charges and spin densities:
               1          2
     1  H   -0.010227   0.800288
     2  H   -0.101124   0.690049
     3  H    0.079524  -0.333661
     4  H    0.069822   0.504722
     5  H   -0.037995   0.338602
     6  H   -0.037995   0.338602
     7  H    0.069822   0.504722
     8  H    0.079524  -0.333661
     9  H   -0.101124   0.690049
    10  H   -0.010227   0.800288
 Sum of Mulliken charges =   0.00000   4.00000

 Dipole moment (field-independent basis, Debye):
    X=              0.0000    Y=              0.0000    Z=             -0.0000  Tot=              0.0000
 Quadrupole moment (field-independent basis, Debye-Ang):
   XX=            -16.9709   YY=            -15.8898   ZZ=            -12.5879
   XY=             -2.1399   XZ=              0.0000   YZ=             -0.0000

 Normal termination of Gaussian 09 at Thu Feb 23 12:51:24 2017.
