 Gaussian 09, Revision E.01,
 Gaussian 09:  ES64L-G09RevE.01 30-Nov-2015

 ----------------------------------------------------------------------
 #uhf/gen scf(tight,novaracc,noincfock,fulldiag, ) stable(crhf) guess=r
 ead geom=nocrowd test
 ----------------------------------------------------------------------

 hf stability analysis of h10 triangular lattice, y= 0.3723030219932718
 7 alpha= 13.500000000000000
 ----------------------------------------------------------------------
 Symbolic Z-matrix:
 Charge =  0 Multiplicity = 5

                         Standard orientation:
 ---------------------------------------------------------------------
 Center     Atomic      Atomic             Coordinates (Angstroms)
 Number     Number       Type             X           Y           Z
 ---------------------------------------------------------------------
      1          1           0        1.448065   -2.044578   -0.000000
      2          1           0        1.448065   -3.639397   -0.000000
      3          1           0        0.724032   -0.623584   -0.000000
      4          1           0        0.724032   -2.218403   -0.000000
      5          1           0        0.000000    0.797409    0.000000
      6          1           0       -0.000000   -0.797409    0.000000
      7          1           0       -0.724032    2.218403   -0.000000
      8          1           0       -0.724032    0.623584   -0.000000
      9          1           0       -1.448065    3.639397   -0.000000
     10          1           0       -1.448065    2.044578   -0.000000
 ---------------------------------------------------------------------

 SCF Done:  E(UHF) =  -4.81782036484     A.U. after    9 cycles
 E2 =    -0.4820223123D-01 EUMP2 =    -0.48660225960708D+01

 The electronic state is 5-BU.
 Alpha  occ. eigenvalues --   -0.83808  -0.75331  -0.66819  -0.58868  -0.44423
 Alpha  occ. eigenvalues --   -0.42515  -0.13745
 Alpha virt. eigenvalues --    0.24294   0.42720   0.54659
  Beta  occ. eigenvalues --   -0.69029  -0.65452  -0.51885
  Beta virt. eigenvalues --   -0.09818   0.17538   0.18567   0.27401   0.35486
  Beta virt. eigenvalues --    0.51993   0.71341

 Mulliken charges and spin densities:
               1          2
     1  H    0.000753   0.066692
     2  H   -0.005723   0.993710
     3  H    0.031092   0.473323
     4  H   -0.011809   0.031574
     5  H   -0.014313   0.434701
     6  H   -0.014313   0.434701
     7  H   -0.011809   0.031574
     8  H    0.031092   0.473323
     9  H   -0.005723   0.993710
    10  H    0.000753   0.066692
 Sum of Mulliken charges =  -0.00000   4.00000

 Dipole moment (field-independent basis, Debye):
    X=             -0.0000    Y=              0.0000    Z=              0.0000  Tot=              0.0000
 Quadrupole moment (field-independent basis, Debye-Ang):
   XX=            -13.4172   YY=            -17.1889   ZZ=            -12.9030
   XY=              1.0022   XZ=              0.0000   YZ=             -0.0000

 Normal termination of Gaussian 09 at Thu Feb 23 12:42:40 2017.
