 Gaussian 09, Revision E.01,
 Gaussian 09:  ES64L-G09RevE.01 30-Nov-2015

 ----------------------------------------------------------------------
 #uhf/gen scf(tight,novaracc,noincfock,fulldiag, ) stable(crhf) guess=r
 ead geom=nocrowd test
 ----------------------------------------------------------------------

 hf stability analysis of h10 triangular lattice, y= 1.3635879012585173
  alpha= 72.750000000000000
 ----------------------------------------------------------------------
 Symbolic Z-matrix:
 Charge =  0 Multiplicity = 5

                         Standard orientation:
 ---------------------------------------------------------------------
 Center     Atomic      Atomic             Coordinates (Angstroms)
 Number     Number       Type             X           Y           Z
 ---------------------------------------------------------------------
      1          1           0        1.617442    3.067298    0.000000
      2          1           0        1.617442    1.639487    0.000000
      3          1           0        0.808721    1.890602    0.000000
      4          1           0        0.808721    0.462791    0.000000
      5          1           0        0.000000    0.713905    0.000000
      6          1           0       -0.000000   -0.713905   -0.000000
      7          1           0       -0.808721   -0.462791   -0.000000
      8          1           0       -0.808721   -1.890602   -0.000000
      9          1           0       -1.617442   -1.639487   -0.000000
     10          1           0       -1.617442   -3.067298   -0.000000
 ---------------------------------------------------------------------

 SCF Done:  E(UHF) =  -4.83524363515     A.U. after    9 cycles
 E2 =    -0.4961951958D-01 EUMP2 =    -0.48848631547325D+01

 The electronic state is 5-BU.
 Alpha  occ. eigenvalues --   -0.85873  -0.76258  -0.65982  -0.54552  -0.39680
 Alpha  occ. eigenvalues --   -0.33809  -0.22529
 Alpha virt. eigenvalues --    0.16966   0.37183   0.52329
  Beta  occ. eigenvalues --   -0.70835  -0.64848  -0.48788
  Beta virt. eigenvalues --   -0.02481   0.18068   0.20653   0.25515   0.28734
  Beta virt. eigenvalues --    0.47861   0.69886

 Mulliken charges and spin densities:
               1          2
     1  H   -0.025985   0.969915
     2  H   -0.001615   0.159015
     3  H    0.013123  -0.005570
     4  H    0.041250   0.468572
     5  H   -0.026774   0.408068
     6  H   -0.026774   0.408068
     7  H    0.041250   0.468572
     8  H    0.013123  -0.005570
     9  H   -0.001615   0.159015
    10  H   -0.025985   0.969915
 Sum of Mulliken charges =  -0.00000   4.00000

 Dipole moment (field-independent basis, Debye):
    X=              0.0000    Y=              0.0000    Z=              0.0000  Tot=              0.0000
 Quadrupole moment (field-independent basis, Debye-Ang):
   XX=            -13.7561   YY=            -18.4192   ZZ=            -12.7384
   XY=             -2.3126   XZ=             -0.0000   YZ=             -0.0000

 Normal termination of Gaussian 09 at Thu Feb 23 12:52:35 2017.
