 Gaussian 09, Revision E.01,
 Gaussian 09:  ES64L-G09RevE.01 30-Nov-2015

 ----------------------------------------------------------------------
 #uhf/gen scf(tight,novaracc,noincfock,fulldiag, ) stable(crhf) guess=r
 ead geom=nocrowd test
 ----------------------------------------------------------------------

 hf stability analysis of h10 triangular lattice, y= 0.5482239839410609
 8 alpha= 27.500000000000000
 ----------------------------------------------------------------------
 Symbolic Z-matrix:
 Charge =  0 Multiplicity = 5

                         Standard orientation:
 ---------------------------------------------------------------------
 Center     Atomic      Atomic             Coordinates (Angstroms)
 Number     Number       Type             X           Y           Z
 ---------------------------------------------------------------------
      1          1           0        1.945122   -0.768350    0.000000
      2          1           0        1.945122   -1.955628    0.000000
      3          1           0        0.972561   -0.087356    0.000000
      4          1           0        0.972561   -1.274634    0.000000
      5          1           0        0.000000    0.593639    0.000000
      6          1           0       -0.000000   -0.593639   -0.000000
      7          1           0       -0.972561    1.274634    0.000000
      8          1           0       -0.972561    0.087356    0.000000
      9          1           0       -1.945122    1.955628    0.000000
     10          1           0       -1.945122    0.768350    0.000000
 ---------------------------------------------------------------------

 SCF Done:  E(UHF) =  -4.69685842706     A.U. after   10 cycles
 E2 =    -0.4985265221D-01 EUMP2 =    -0.47467110792713D+01

 The electronic state is 5-BU.
 Alpha  occ. eigenvalues --   -0.92168  -0.80187  -0.64745  -0.48805  -0.40797
 Alpha  occ. eigenvalues --   -0.35544  -0.15233
 Alpha virt. eigenvalues --    0.15154   0.39548   0.43560
  Beta  occ. eigenvalues --   -0.77211  -0.65665  -0.44851
  Beta virt. eigenvalues --    0.02080   0.03923   0.17918   0.27249   0.40272
  Beta virt. eigenvalues --    0.53615   0.67433

 Mulliken charges and spin densities:
               1          2
     1  H   -0.114330   0.718891
     2  H    0.014311   0.651070
     3  H    0.080868   0.496463
     4  H    0.049104  -0.187039
     5  H   -0.029953   0.320616
     6  H   -0.029953   0.320616
     7  H    0.049104  -0.187039
     8  H    0.080868   0.496463
     9  H    0.014311   0.651070
    10  H   -0.114330   0.718891
 Sum of Mulliken charges =   0.00000   4.00000

 Dipole moment (field-independent basis, Debye):
    X=              0.0000    Y=              0.0000    Z=             -0.0000  Tot=              0.0000
 Quadrupole moment (field-independent basis, Debye-Ang):
   XX=            -17.4467   YY=            -14.9276   ZZ=            -12.6040
   XY=              1.0774   XZ=              0.0000   YZ=             -0.0000

 Normal termination of Gaussian 09 at Thu Feb 23 12:44:57 2017.
