 Gaussian 09, Revision E.01,
 Gaussian 09:  ES64L-G09RevE.01 30-Nov-2015

 ----------------------------------------------------------------------
 #uhf/gen scf(tight,novaracc,noincfock,fulldiag, ) stable(crhf) guess=r
 ead geom=nocrowd test
 ----------------------------------------------------------------------

 hf stability analysis of h10 triangular lattice, y= 1.9367771983277440
  alpha= 81.250000000000000
 ----------------------------------------------------------------------
 Symbolic Z-matrix:
 Charge =  0 Multiplicity = 5

                         Standard orientation:
 ---------------------------------------------------------------------
 Center     Atomic      Atomic             Coordinates (Angstroms)
 Number     Number       Type             X           Y           Z
 ---------------------------------------------------------------------
      1          1           0        1.178516    4.717568    0.000000
      2          1           0        1.178516    2.757985    0.000000
      3          1           0        0.589258    2.848680    0.000000
      4          1           0        0.589258    0.889096    0.000000
      5          1           0       -0.000000    0.979792    0.000000
      6          1           0       -0.000000   -0.979792    0.000000
      7          1           0       -0.589258   -0.889096    0.000000
      8          1           0       -0.589258   -2.848680    0.000000
      9          1           0       -1.178516   -2.757985    0.000000
     10          1           0       -1.178516   -4.717568    0.000000
 ---------------------------------------------------------------------

 SCF Done:  E(UHF) =  -4.48538513651     A.U. after    9 cycles
 E2 =    -0.5686863017D-01 EUMP2 =    -0.45422537666824D+01

 The electronic state is 5-BU.
 Alpha  occ. eigenvalues --   -0.82009  -0.75992  -0.69162  -0.67382  -0.48712
 Alpha  occ. eigenvalues --   -0.48628   0.01987
 Alpha virt. eigenvalues --    0.36546   0.53080   0.58105
  Beta  occ. eigenvalues --   -0.68811  -0.68162  -0.55497
  Beta virt. eigenvalues --   -0.22359   0.14350   0.14424   0.43138   0.48455
  Beta virt. eigenvalues --    0.60071   0.73829

 Mulliken charges and spin densities:
               1          2
     1  H    0.004753   1.004726
     2  H   -0.006566   0.016937
     3  H   -0.018349   0.016676
     4  H    0.018973   0.490905
     5  H    0.001189   0.470757
     6  H    0.001189   0.470757
     7  H    0.018973   0.490905
     8  H   -0.018349   0.016676
     9  H   -0.006566   0.016937
    10  H    0.004753   1.004726
 Sum of Mulliken charges =  -0.00000   4.00000

 Dipole moment (field-independent basis, Debye):
    X=              0.0000    Y=              0.0000    Z=             -0.0000  Tot=              0.0000
 Quadrupole moment (field-independent basis, Debye-Ang):
   XX=            -13.8555   YY=            -15.3728   ZZ=            -13.1115
   XY=             -0.1281   XZ=             -0.0000   YZ=              0.0000

 Normal termination of Gaussian 09 at Thu Feb 23 12:54:03 2017.
