 Gaussian 09, Revision E.01,
 Gaussian 09:  ES64L-G09RevE.01 30-Nov-2015

 ----------------------------------------------------------------------
 #uhf/gen scf(tight,novaracc,noincfock,fulldiag, ) stable(crhf) guess=r
 ead geom=nocrowd test
 ----------------------------------------------------------------------

 hf stability analysis of h10 triangular lattice, y= 2.2960291063410230
  alpha= 83.750000000000000
 ----------------------------------------------------------------------
 Symbolic Z-matrix:
 Charge =  0 Multiplicity = 5

                         Standard orientation:
 ---------------------------------------------------------------------
 Center     Atomic      Atomic             Coordinates (Angstroms)
 Number     Number       Type             X           Y           Z
 ---------------------------------------------------------------------
      1          1           0        0.999846    5.664893   -0.000000
      2          1           0        0.999846    3.355135    0.000000
      3          1           0        0.499923    3.409886   -0.000000
      4          1           0        0.499923    1.100128    0.000000
      5          1           0       -0.000000    1.154879   -0.000000
      6          1           0       -0.000000   -1.154879   -0.000000
      7          1           0       -0.499923   -1.100128    0.000000
      8          1           0       -0.499923   -3.409886   -0.000000
      9          1           0       -0.999846   -3.355135    0.000000
     10          1           0       -0.999846   -5.664893   -0.000000
 ---------------------------------------------------------------------

 SCF Done:  E(UHF) =  -4.00211788195     A.U. after    8 cycles
 E2 =    -0.7539275223D-01 EUMP2 =    -0.40775106341730D+01

 The electronic state is 5-BU.
 Alpha  occ. eigenvalues --   -0.81913  -0.78780  -0.71710  -0.71532  -0.49720
 Alpha  occ. eigenvalues --   -0.49716   0.14446
 Alpha virt. eigenvalues --    0.44320   0.61249   0.62930
  Beta  occ. eigenvalues --   -0.71222  -0.71150  -0.55747
  Beta virt. eigenvalues --   -0.29370   0.13258   0.13265   0.55715   0.58641
  Beta virt. eigenvalues --    0.67106   0.76983

 Mulliken charges and spin densities:
               1          2
     1  H    0.003390   1.003388
     2  H   -0.005866   0.005260
     3  H   -0.011972   0.006616
     4  H    0.010135   0.498181
     5  H    0.004313   0.486555
     6  H    0.004313   0.486555
     7  H    0.010135   0.498181
     8  H   -0.011972   0.006616
     9  H   -0.005866   0.005260
    10  H    0.003390   1.003388
 Sum of Mulliken charges =   0.00000   4.00000

 Dipole moment (field-independent basis, Debye):
    X=              0.0000    Y=             -0.0000    Z=              0.0000  Tot=              0.0000
 Quadrupole moment (field-independent basis, Debye-Ang):
   XX=            -14.1659   YY=            -14.4644   ZZ=            -13.1861
   XY=              0.0361   XZ=             -0.0000   YZ=              0.0000

 Normal termination of Gaussian 09 at Thu Feb 23 12:54:29 2017.
