 Gaussian 09, Revision E.01,
 Gaussian 09:  ES64L-G09RevE.01 30-Nov-2015

 ----------------------------------------------------------------------
 #uhf/gen scf(tight,novaracc,noincfock,fulldiag, ) stable(crhf) guess=r
 ead geom=nocrowd test
 ----------------------------------------------------------------------

 hf stability analysis of h10 triangular lattice, y= 0.9339599336918161
 8 alpha= 56.500000000000000
 ----------------------------------------------------------------------
 Symbolic Z-matrix:
 Charge =  0 Multiplicity = 5

                         Standard orientation:
 ---------------------------------------------------------------------
 Center     Atomic      Atomic             Coordinates (Angstroms)
 Number     Number       Type             X           Y           Z
 ---------------------------------------------------------------------
      1          1           0        2.061948    1.435250    0.000000
      2          1           0        2.061948    0.315240    0.000000
      3          1           0        1.030974    0.997627    0.000000
      4          1           0        1.030974   -0.122382    0.000000
      5          1           0       -0.000000    0.560005   -0.000000
      6          1           0       -0.000000   -0.560005   -0.000000
      7          1           0       -1.030974    0.122382    0.000000
      8          1           0       -1.030974   -0.997627    0.000000
      9          1           0       -2.061948   -0.315240    0.000000
     10          1           0       -2.061948   -1.435250    0.000000
 ---------------------------------------------------------------------

 SCF Done:  E(UHF) =  -4.70980880376     A.U. after   10 cycles
 E2 =    -0.5628669431D-01 EUMP2 =    -0.47660954980656D+01

 The electronic state is 5-BU.
 Alpha  occ. eigenvalues --   -0.94865  -0.82322  -0.63905  -0.54116  -0.39375
 Alpha  occ. eigenvalues --   -0.38076  -0.16083
 Alpha virt. eigenvalues --    0.19830   0.37228   0.59280
  Beta  occ. eigenvalues --   -0.78440  -0.64728  -0.43746
  Beta virt. eigenvalues --   -0.02282   0.04164   0.13080   0.34271   0.35944
  Beta virt. eigenvalues --    0.64857   0.74542

 Mulliken charges and spin densities:
               1          2
     1  H   -0.002632   0.486242
     2  H   -0.094777   0.641628
     3  H    0.025325   0.106398
     4  H    0.093478   0.460977
     5  H   -0.021394   0.304755
     6  H   -0.021394   0.304755
     7  H    0.093478   0.460977
     8  H    0.025325   0.106398
     9  H   -0.094777   0.641628
    10  H   -0.002632   0.486242
 Sum of Mulliken charges =   0.00000   4.00000

 Dipole moment (field-independent basis, Debye):
    X=             -0.0000    Y=             -0.0000    Z=             -0.0000  Tot=              0.0000
 Quadrupole moment (field-independent basis, Debye-Ang):
   XX=            -18.4292   YY=            -14.9548   ZZ=            -12.5774
   XY=             -1.0423   XZ=             -0.0000   YZ=             -0.0000

 Normal termination of Gaussian 09 at Thu Feb 23 12:49:52 2017.
