 Gaussian 09, Revision E.01,
 Gaussian 09:  ES64L-G09RevE.01 30-Nov-2015

 ----------------------------------------------------------------------
 #uhf/gen scf(tight,novaracc,noincfock,fulldiag, ) stable(crhf) guess=r
 ead geom=nocrowd test
 ----------------------------------------------------------------------

 hf stability analysis of h10 triangular lattice, y= 0.5889881594497650
 1 alpha= 31.000000000000000
 ----------------------------------------------------------------------
 Symbolic Z-matrix:
 Charge =  0 Multiplicity = 5

                         Standard orientation:
 ---------------------------------------------------------------------
 Center     Atomic      Atomic             Coordinates (Angstroms)
 Number     Number       Type             X           Y           Z
 ---------------------------------------------------------------------
      1          1           0        2.019446   -0.501967   -0.000000
      2          1           0        2.019446   -1.645549   -0.000000
      3          1           0        1.009723    0.034912   -0.000000
      4          1           0        1.009723   -1.108670   -0.000000
      5          1           0        0.000000    0.571791   -0.000000
      6          1           0       -0.000000   -0.571791   -0.000000
      7          1           0       -1.009723    1.108670   -0.000000
      8          1           0       -1.009723   -0.034912   -0.000000
      9          1           0       -2.019446    1.645549   -0.000000
     10          1           0       -2.019446    0.501967   -0.000000
 ---------------------------------------------------------------------

 SCF Done:  E(UHF) =  -4.70465975764     A.U. after   10 cycles
 E2 =    -0.5503467546D-01 EUMP2 =    -0.47596944331075D+01

 The electronic state is 5-BU.
 Alpha  occ. eigenvalues --   -0.93891  -0.81552  -0.64160  -0.51962  -0.39249
 Alpha  occ. eigenvalues --   -0.37764  -0.15413
 Alpha virt. eigenvalues --    0.17853   0.37837   0.52421
  Beta  occ. eigenvalues --   -0.77918  -0.64897  -0.44117
  Beta virt. eigenvalues --   -0.00433   0.03475   0.14995   0.31290   0.37730
  Beta virt. eigenvalues --    0.65851   0.65992

 Mulliken charges and spin densities:
               1          2
     1  H   -0.104197   0.675505
     2  H    0.011547   0.527196
     3  H    0.089231   0.476239
     4  H    0.026405   0.010084
     5  H   -0.022985   0.310976
     6  H   -0.022985   0.310976
     7  H    0.026405   0.010084
     8  H    0.089231   0.476239
     9  H    0.011547   0.527196
    10  H   -0.104197   0.675505
 Sum of Mulliken charges =  -0.00000   4.00000

 Dipole moment (field-independent basis, Debye):
    X=             -0.0000    Y=             -0.0000    Z=              0.0000  Tot=              0.0000
 Quadrupole moment (field-independent basis, Debye-Ang):
   XX=            -17.9009   YY=            -14.8945   ZZ=            -12.5960
   XY=              0.8939   XZ=             -0.0000   YZ=              0.0000

 Normal termination of Gaussian 09 at Thu Feb 23 12:45:32 2017.
