 Gaussian 09, Revision E.01,
 Gaussian 09:  ES64L-G09RevE.01 30-Nov-2015

 ----------------------------------------------------------------------
 #uhf/gen scf(tight,novaracc,noincfock,fulldiag, ) stable(crhf) guess=r
 ead geom=nocrowd test
 ----------------------------------------------------------------------

 hf stability analysis of h10 triangular lattice, y= 1.9654877006520655
  alpha= 81.500000000000000
 ----------------------------------------------------------------------
 Symbolic Z-matrix:
 Charge =  0 Multiplicity = 5

                         Standard orientation:
 ---------------------------------------------------------------------
 Center     Atomic      Atomic             Coordinates (Angstroms)
 Number     Number       Type             X           Y           Z
 ---------------------------------------------------------------------
      1          1           0        1.162070    4.794619    0.000000
      2          1           0        1.162070    2.807302    0.000000
      3          1           0        0.581035    2.894139    0.000000
      4          1           0        0.581035    0.906822    0.000000
      5          1           0        0.000000    0.993658    0.000000
      6          1           0       -0.000000   -0.993658    0.000000
      7          1           0       -0.581035   -0.906822    0.000000
      8          1           0       -0.581035   -2.894139    0.000000
      9          1           0       -1.162070   -2.807302    0.000000
     10          1           0       -1.162070   -4.794619    0.000000
 ---------------------------------------------------------------------

 SCF Done:  E(UHF) =  -4.45091491082     A.U. after    9 cycles
 E2 =    -0.5803613717D-01 EUMP2 =    -0.45089510479976D+01

 The electronic state is 5-BU.
 Alpha  occ. eigenvalues --   -0.81962  -0.76174  -0.69361  -0.67836  -0.48852
 Alpha  occ. eigenvalues --   -0.48787   0.03052
 Alpha virt. eigenvalues --    0.37280   0.53780   0.58423
  Beta  occ. eigenvalues --   -0.68954  -0.68401  -0.55587
  Beta virt. eigenvalues --   -0.23058   0.14222   0.14284   0.44223   0.49337
  Beta virt. eigenvalues --    0.60645   0.74040

 Mulliken charges and spin densities:
               1          2
     1  H    0.004779   1.004757
     2  H   -0.006742   0.015347
     3  H   -0.018005   0.015529
     4  H    0.018200   0.491816
     5  H    0.001768   0.472552
     6  H    0.001768   0.472552
     7  H    0.018200   0.491816
     8  H   -0.018005   0.015529
     9  H   -0.006742   0.015347
    10  H    0.004779   1.004757
 Sum of Mulliken charges =  -0.00000   4.00000

 Dipole moment (field-independent basis, Debye):
    X=             -0.0000    Y=              0.0000    Z=             -0.0000  Tot=              0.0000
 Quadrupole moment (field-independent basis, Debye-Ang):
   XX=            -13.8883   YY=            -15.2889   ZZ=            -13.1208
   XY=             -0.1070   XZ=              0.0000   YZ=              0.0000

 Normal termination of Gaussian 09 at Thu Feb 23 12:54:06 2017.
