 Gaussian 09, Revision E.01,
 Gaussian 09:  ES64L-G09RevE.01 30-Nov-2015

 ----------------------------------------------------------------------
 #uhf/gen scf(tight,novaracc,noincfock,fulldiag, ) stable(crhf) guess=r
 ead geom=nocrowd test
 ----------------------------------------------------------------------

 hf stability analysis of h10 triangular lattice, y= 2.0941375407372735
  alpha= 82.500000000000000
 ----------------------------------------------------------------------
 Symbolic Z-matrix:
 Charge =  0 Multiplicity = 5

                         Standard orientation:
 ---------------------------------------------------------------------
 Center     Atomic      Atomic             Coordinates (Angstroms)
 Number     Number       Type             X           Y           Z
 ---------------------------------------------------------------------
      1          1           0        1.093359    5.136576    0.000000
      2          1           0        1.093359    3.024368    0.000000
      3          1           0        0.546680    3.096340    0.000000
      4          1           0        0.546680    0.984132    0.000000
      5          1           0       -0.000000    1.056104    0.000000
      6          1           0       -0.000000   -1.056104    0.000000
      7          1           0       -0.546680   -0.984132    0.000000
      8          1           0       -0.546680   -3.096340    0.000000
      9          1           0       -1.093359   -3.024368    0.000000
     10          1           0       -1.093359   -5.136576    0.000000
 ---------------------------------------------------------------------

 SCF Done:  E(UHF) =  -4.28617609610     A.U. after    9 cycles
 E2 =    -0.6398491342D-01 EUMP2 =    -0.43501610095192D+01

 The electronic state is 5-BU.
 Alpha  occ. eigenvalues --   -0.81843  -0.77122  -0.70274  -0.69557  -0.49324
 Alpha  occ. eigenvalues --   -0.49302   0.07676
 Alpha virt. eigenvalues --    0.40308   0.56810   0.60005
  Beta  occ. eigenvalues --   -0.69744  -0.69484  -0.55792
  Beta virt. eigenvalues --   -0.25859   0.13753   0.13780   0.48920   0.53142
  Beta virt. eigenvalues --    0.63187   0.75073

 Mulliken charges and spin densities:
               1          2
     1  H    0.004471   1.004462
     2  H   -0.006920   0.009950
     3  H   -0.015934   0.011182
     4  H    0.014842   0.495095
     5  H    0.003540   0.479311
     6  H    0.003540   0.479311
     7  H    0.014842   0.495095
     8  H   -0.015934   0.011182
     9  H   -0.006920   0.009950
    10  H    0.004471   1.004462
 Sum of Mulliken charges =  -0.00000   4.00000

 Dipole moment (field-independent basis, Debye):
    X=              0.0000    Y=             -0.0000    Z=             -0.0000  Tot=              0.0000
 Quadrupole moment (field-independent basis, Debye-Ang):
   XX=            -14.0176   YY=            -14.9470   ZZ=            -13.1547
   XY=             -0.0355   XZ=              0.0000   YZ=             -0.0000

 Normal termination of Gaussian 09 at Thu Feb 23 12:54:16 2017.
