 Gaussian 09, Revision E.01,
 Gaussian 09:  ES64L-G09RevE.01 30-Nov-2015

 ----------------------------------------------------------------------
 #uhf/gen scf(tight,novaracc,noincfock,fulldiag, ) stable(crhf) guess=r
 ead geom=nocrowd test
 ----------------------------------------------------------------------

 hf stability analysis of h10 triangular lattice, y= 0.6446958471815459
 3 alpha= 35.750000000000000
 ----------------------------------------------------------------------
 Symbolic Z-matrix:
 Charge =  0 Multiplicity = 5

                         Standard orientation:
 ---------------------------------------------------------------------
 Center     Atomic      Atomic             Coordinates (Angstroms)
 Number     Number       Type             X           Y           Z
 ---------------------------------------------------------------------
      1          1           0        2.092873   -0.148536    0.000000
      2          1           0        2.092873   -1.251995    0.000000
      3          1           0        1.046437    0.201597    0.000000
      4          1           0        1.046437   -0.901863    0.000000
      5          1           0        0.000000    0.551730    0.000000
      6          1           0       -0.000000   -0.551730    0.000000
      7          1           0       -1.046437    0.901863    0.000000
      8          1           0       -1.046437   -0.201597    0.000000
      9          1           0       -2.092873    1.251995    0.000000
     10          1           0       -2.092873    0.148536    0.000000
 ---------------------------------------------------------------------

 SCF Done:  E(UHF) =  -4.71215214572     A.U. after   11 cycles
 E2 =    -0.5665052509D-01 EUMP2 =    -0.47688026708147D+01

 The electronic state is 5-BU.
 Alpha  occ. eigenvalues --   -0.95560  -0.82874  -0.63736  -0.55682  -0.40618
 Alpha  occ. eigenvalues --   -0.37259  -0.16699
 Alpha virt. eigenvalues --    0.21364   0.36918   0.65201
  Beta  occ. eigenvalues --   -0.78878  -0.64699  -0.43448
  Beta virt. eigenvalues --   -0.03677   0.04939   0.11612   0.34516   0.36611
  Beta virt. eigenvalues --    0.64147   0.81605

 Mulliken charges and spin densities:
               1          2
     1  H   -0.087520   0.612935
     2  H   -0.017616   0.470044
     3  H    0.095490   0.446327
     4  H    0.031047   0.171998
     5  H   -0.021401   0.298696
     6  H   -0.021401   0.298696
     7  H    0.031047   0.171998
     8  H    0.095490   0.446327
     9  H   -0.017616   0.470044
    10  H   -0.087520   0.612935
 Sum of Mulliken charges =  -0.00000   4.00000

 Dipole moment (field-independent basis, Debye):
    X=              0.0000    Y=              0.0000    Z=             -0.0000  Tot=              0.0000
 Quadrupole moment (field-independent basis, Debye-Ang):
   XX=            -18.9777   YY=            -14.9096   ZZ=            -12.5601
   XY=              1.1169   XZ=              0.0000   YZ=             -0.0000

 Normal termination of Gaussian 09 at Thu Feb 23 12:46:20 2017.
