 Gaussian 09, Revision E.01,
 Gaussian 09:  ES64L-G09RevE.01 30-Nov-2015

 ----------------------------------------------------------------------
 #uhf/gen scf(tight,novaracc,noincfock,fulldiag, ) stable(crhf) guess=r
 ead geom=nocrowd test
 ----------------------------------------------------------------------

 hf stability analysis of h10 triangular lattice, y= 0.5977250200806807
 4 alpha= 31.750000000000000
 ----------------------------------------------------------------------
 Symbolic Z-matrix:
 Charge =  0 Multiplicity = 5

                         Standard orientation:
 ---------------------------------------------------------------------
 Center     Atomic      Atomic             Coordinates (Angstroms)
 Number     Number       Type             X           Y           Z
 ---------------------------------------------------------------------
      1          1           0        2.033107   -0.445721    0.000000
      2          1           0        2.033107   -1.581619    0.000000
      3          1           0        1.016554    0.061114    0.000000
      4          1           0        1.016554   -1.074784    0.000000
      5          1           0        0.000000    0.567949   -0.000000
      6          1           0       -0.000000   -0.567949   -0.000000
      7          1           0       -1.016554    1.074784    0.000000
      8          1           0       -1.016554   -0.061114    0.000000
      9          1           0       -2.033107    1.581619    0.000000
     10          1           0       -2.033107    0.445721    0.000000
 ---------------------------------------------------------------------

 SCF Done:  E(UHF) =  -4.70646439889     A.U. after   10 cycles
 E2 =    -0.5555587021D-01 EUMP2 =    -0.47620202691002D+01

 The electronic state is 5-BU.
 Alpha  occ. eigenvalues --   -0.94206  -0.81801  -0.64073  -0.52651  -0.38869
 Alpha  occ. eigenvalues --   -0.38265  -0.15597
 Alpha virt. eigenvalues --    0.18463   0.37620   0.54474
  Beta  occ. eigenvalues --   -0.78074  -0.64823  -0.43999
  Beta virt. eigenvalues --   -0.01014   0.03642   0.14394   0.32212   0.37178
  Beta virt. eigenvalues --    0.65532   0.68612

 Mulliken charges and spin densities:
               1          2
     1  H   -0.101284   0.665101
     2  H    0.007856   0.511600
     3  H    0.090682   0.471700
     4  H    0.025017   0.042421
     5  H   -0.022271   0.309178
     6  H   -0.022271   0.309178
     7  H    0.025017   0.042421
     8  H    0.090682   0.471700
     9  H    0.007856   0.511600
    10  H   -0.101284   0.665101
 Sum of Mulliken charges =   0.00000   4.00000

 Dipole moment (field-independent basis, Debye):
    X=              0.0000    Y=              0.0000    Z=             -0.0000  Tot=              0.0000
 Quadrupole moment (field-independent basis, Debye-Ang):
   XX=            -18.0445   YY=            -14.9215   ZZ=            -12.5908
   XY=              0.9349   XZ=              0.0000   YZ=              0.0000

 Normal termination of Gaussian 09 at Thu Feb 23 12:45:39 2017.
