 Gaussian 09, Revision E.01,
 Gaussian 09:  ES64L-G09RevE.01 30-Nov-2015

 ----------------------------------------------------------------------
 #uhf/gen scf(tight,novaracc,noincfock,fulldiag, ) stable(crhf) guess=r
 ead geom=nocrowd test
 ----------------------------------------------------------------------

 hf stability analysis of h10 triangular lattice, y= 0.7178473640090998
 8 alpha= 41.750000000000000
 ----------------------------------------------------------------------
 Symbolic Z-matrix:
 Charge =  0 Multiplicity = 5

                         Standard orientation:
 ---------------------------------------------------------------------
 Center     Atomic      Atomic             Coordinates (Angstroms)
 Number     Number       Type             X           Y           Z
 ---------------------------------------------------------------------
      1          1           0        2.142221    0.294945   -0.000000
      2          1           0        2.142221   -0.783095   -0.000000
      3          1           0        1.071111    0.416983   -0.000000
      4          1           0        1.071111   -0.661058   -0.000000
      5          1           0       -0.000000    0.539020    0.000000
      6          1           0       -0.000000   -0.539020    0.000000
      7          1           0       -1.071111    0.661058   -0.000000
      8          1           0       -1.071111   -0.416983   -0.000000
      9          1           0       -2.142221    0.783095   -0.000000
     10          1           0       -2.142221   -0.294945   -0.000000
 ---------------------------------------------------------------------

 SCF Done:  E(UHF) =  -4.71195131017     A.U. after   11 cycles
 E2 =    -0.5666840288D-01 EUMP2 =    -0.47686197130474D+01

 The electronic state is 5-BU.
 Alpha  occ. eigenvalues --   -0.96640  -0.83742  -0.63446  -0.58151  -0.42674
 Alpha  occ. eigenvalues --   -0.36056  -0.17739
 Alpha virt. eigenvalues --    0.23724   0.36808   0.76603
  Beta  occ. eigenvalues --   -0.79649  -0.64739  -0.42874
  Beta virt. eigenvalues --   -0.05938   0.06608   0.09135   0.31952   0.40532
  Beta virt. eigenvalues --    0.63137   0.94893

 Mulliken charges and spin densities:
               1          2
     1  H   -0.072957   0.540591
     2  H   -0.052245   0.479920
     3  H    0.088677   0.394010
     4  H    0.060256   0.300459
     5  H   -0.023731   0.285020
     6  H   -0.023731   0.285020
     7  H    0.060256   0.300459
     8  H    0.088677   0.394010
     9  H   -0.052245   0.479920
    10  H   -0.072957   0.540591
 Sum of Mulliken charges =   0.00000   4.00000

 Dipole moment (field-independent basis, Debye):
    X=              0.0000    Y=              0.0000    Z=              0.0000  Tot=              0.0000
 Quadrupole moment (field-independent basis, Debye-Ang):
   XX=            -20.2028   YY=            -14.5342   ZZ=            -12.5293
   XY=              0.6123   XZ=             -0.0000   YZ=              0.0000

 Normal termination of Gaussian 09 at Thu Feb 23 12:47:22 2017.
