 Gaussian 09, Revision E.01,
 Gaussian 09:  ES64L-G09RevE.01 30-Nov-2015

 ----------------------------------------------------------------------
 #uhf/gen scf(tight,novaracc,noincfock,fulldiag, ) stable(crhf) guess=r
 ead geom=nocrowd test
 ----------------------------------------------------------------------

 hf stability analysis of h10 triangular lattice, y= 0.5598889440700592
 9 alpha= 28.500000000000000
 ----------------------------------------------------------------------
 Symbolic Z-matrix:
 Charge =  0 Multiplicity = 5

                         Standard orientation:
 ---------------------------------------------------------------------
 Center     Atomic      Atomic             Coordinates (Angstroms)
 Number     Number       Type             X           Y           Z
 ---------------------------------------------------------------------
      1          1           0        1.968160   -0.691448    0.000000
      2          1           0        1.968160   -1.864828    0.000000
      3          1           0        0.984080   -0.052379    0.000000
      4          1           0        0.984080   -1.225759    0.000000
      5          1           0        0.000000    0.586690   -0.000000
      6          1           0       -0.000000   -0.586690    0.000000
      7          1           0       -0.984080    1.225759   -0.000000
      8          1           0       -0.984080    0.052379   -0.000000
      9          1           0       -1.968160    1.864828   -0.000000
     10          1           0       -1.968160    0.691448   -0.000000
 ---------------------------------------------------------------------

 SCF Done:  E(UHF) =  -4.69836693841     A.U. after   10 cycles
 E2 =    -0.5184021757D-01 EUMP2 =    -0.47502071559815D+01

 The electronic state is 5-BU.
 Alpha  occ. eigenvalues --   -0.92701  -0.80607  -0.64547  -0.49582  -0.40517
 Alpha  occ. eigenvalues --   -0.36114  -0.15112
 Alpha virt. eigenvalues --    0.15865   0.38898   0.45911
  Beta  occ. eigenvalues --   -0.77419  -0.65374  -0.44596
  Beta virt. eigenvalues --    0.01491   0.03473   0.17091   0.28282   0.39589
  Beta virt. eigenvalues --    0.57109   0.66984

 Mulliken charges and spin densities:
               1          2
     1  H   -0.112740   0.709179
     2  H    0.016773   0.606670
     3  H    0.083555   0.491078
     4  H    0.039748  -0.124192
     5  H   -0.027337   0.317265
     6  H   -0.027337   0.317265
     7  H    0.039748  -0.124192
     8  H    0.083555   0.491078
     9  H    0.016773   0.606670
    10  H   -0.112740   0.709179
 Sum of Mulliken charges =   0.00000   4.00000

 Dipole moment (field-independent basis, Debye):
    X=              0.0000    Y=             -0.0000    Z=              0.0000  Tot=              0.0000
 Quadrupole moment (field-independent basis, Debye-Ang):
   XX=            -17.5452   YY=            -14.8527   ZZ=            -12.6054
   XY=              0.9253   XZ=             -0.0000   YZ=              0.0000

 Normal termination of Gaussian 09 at Thu Feb 23 12:45:07 2017.
