 Gaussian 09, Revision E.01,
 Gaussian 09:  ES64L-G09RevE.01 30-Nov-2015

 ----------------------------------------------------------------------
 #uhf/gen scf(tight,novaracc,noincfock,fulldiag, ) stable(crhf) guess=r
 ead geom=nocrowd test
 ----------------------------------------------------------------------

 hf stability analysis of h10 triangular lattice, y= 1.1127136872907215
  alpha= 65.000000000000000
 ----------------------------------------------------------------------
 Symbolic Z-matrix:
 Charge =  0 Multiplicity = 5

                         Standard orientation:
 ---------------------------------------------------------------------
 Center     Atomic      Atomic             Coordinates (Angstroms)
 Number     Number       Type             X           Y           Z
 ---------------------------------------------------------------------
      1          1           0        1.881012    2.192229    0.000000
      2          1           0        1.881012    0.964485    0.000000
      3          1           0        0.940506    1.403050    0.000000
      4          1           0        0.940506    0.175307    0.000000
      5          1           0       -0.000000    0.613872   -0.000000
      6          1           0       -0.000000   -0.613872   -0.000000
      7          1           0       -0.940506   -0.175307    0.000000
      8          1           0       -0.940506   -1.403050   -0.000000
      9          1           0       -1.881012   -0.964485    0.000000
     10          1           0       -1.881012   -2.192229   -0.000000
 ---------------------------------------------------------------------

 SCF Done:  E(UHF) =  -4.70264994543     A.U. after   10 cycles
 E2 =    -0.4503466385D-01 EUMP2 =    -0.47476846092774D+01

 The electronic state is 5-BU.
 Alpha  occ. eigenvalues --   -0.90723  -0.79087  -0.65242  -0.48664  -0.39345
 Alpha  occ. eigenvalues --   -0.34671  -0.16525
 Alpha virt. eigenvalues --    0.13705   0.38590   0.42077
  Beta  occ. eigenvalues --   -0.76410  -0.66313  -0.45623
  Beta virt. eigenvalues --    0.02863   0.06226   0.19747   0.25582   0.41125
  Beta virt. eigenvalues --    0.46059   0.68357

 Mulliken charges and spin densities:
               1          2
     1  H   -0.004842   0.776390
     2  H   -0.105905   0.704597
     3  H    0.075646  -0.320258
     4  H    0.072012   0.504677
     5  H   -0.036913   0.334594
     6  H   -0.036913   0.334594
     7  H    0.072012   0.504677
     8  H    0.075646  -0.320258
     9  H   -0.105905   0.704597
    10  H   -0.004842   0.776390
 Sum of Mulliken charges =  -0.00000   4.00000

 Dipole moment (field-independent basis, Debye):
    X=              0.0000    Y=             -0.0000    Z=             -0.0000  Tot=              0.0000
 Quadrupole moment (field-independent basis, Debye-Ang):
   XX=            -17.0990   YY=            -15.6397   ZZ=            -12.5902
   XY=             -1.9165   XZ=             -0.0000   YZ=             -0.0000

 Normal termination of Gaussian 09 at Thu Feb 23 12:51:18 2017.
