 Gaussian 09, Revision E.01,
 Gaussian 09:  ES64L-G09RevE.01 30-Nov-2015

 ----------------------------------------------------------------------
 #uhf/gen scf(tight,novaracc,noincfock,fulldiag, ) stable(crhf) guess=r
 ead geom=nocrowd test
 ----------------------------------------------------------------------

 hf stability analysis of h10 triangular lattice, y= 0.8113826706734035
 3 alpha= 48.750000000000000
 ----------------------------------------------------------------------
 Symbolic Z-matrix:
 Charge =  0 Multiplicity = 5

                         Standard orientation:
 ---------------------------------------------------------------------
 Center     Atomic      Atomic             Coordinates (Angstroms)
 Number     Number       Type             X           Y           Z
 ---------------------------------------------------------------------
      1          1           0        2.139927    0.821325    0.000000
      2          1           0        2.139927   -0.257871    0.000000
      3          1           0        1.069964    0.680461    0.000000
      4          1           0        1.069964   -0.398735    0.000000
      5          1           0       -0.000000    0.539598    0.000000
      6          1           0       -0.000000   -0.539598    0.000000
      7          1           0       -1.069964    0.398735    0.000000
      8          1           0       -1.069964   -0.680461    0.000000
      9          1           0       -2.139927    0.257871    0.000000
     10          1           0       -2.139927   -0.821325    0.000000
 ---------------------------------------------------------------------

 SCF Done:  E(UHF) =  -4.71208836727     A.U. after   11 cycles
 E2 =    -0.5667820995D-01 EUMP2 =    -0.47687665772230D+01

 The electronic state is 5-BU.
 Alpha  occ. eigenvalues --   -0.96591  -0.83702  -0.63461  -0.58037  -0.42577
 Alpha  occ. eigenvalues --   -0.36108  -0.17692
 Alpha virt. eigenvalues --    0.23624   0.36797   0.76011
  Beta  occ. eigenvalues --   -0.79612  -0.64736  -0.42904
  Beta virt. eigenvalues --   -0.05833   0.06518   0.09254   0.32082   0.40346
  Beta virt. eigenvalues --    0.63178   0.94207

 Mulliken charges and spin densities:
               1          2
     1  H   -0.049939   0.476955
     2  H   -0.074096   0.546352
     3  H    0.057560   0.291450
     4  H    0.090021   0.399447
     5  H   -0.023546   0.285796
     6  H   -0.023546   0.285796
     7  H    0.090021   0.399447
     8  H    0.057560   0.291450
     9  H   -0.074096   0.546352
    10  H   -0.049939   0.476955
 Sum of Mulliken charges =  -0.00000   4.00000

 Dipole moment (field-independent basis, Debye):
    X=              0.0000    Y=              0.0000    Z=             -0.0000  Tot=              0.0000
 Quadrupole moment (field-independent basis, Debye-Ang):
   XX=            -20.1346   YY=            -14.5626   ZZ=            -12.5308
   XY=             -0.6924   XZ=             -0.0000   YZ=             -0.0000

 Normal termination of Gaussian 09 at Thu Feb 23 12:48:33 2017.
