 Gaussian 09, Revision E.01,
 Gaussian 09:  ES64L-G09RevE.01 30-Nov-2015

 ----------------------------------------------------------------------
 #uhf/gen scf(tight,novaracc,noincfock,fulldiag, ) stable(crhf) guess=r
 ead geom=nocrowd test
 ----------------------------------------------------------------------

 hf stability analysis of h10 triangular lattice, y= 0.4490208748124050
 5 alpha= 19.250000000000000
 ----------------------------------------------------------------------
 Symbolic Z-matrix:
 Charge =  0 Multiplicity = 5

                         Standard orientation:
 ---------------------------------------------------------------------
 Center     Atomic      Atomic             Coordinates (Angstroms)
 Number     Number       Type             X           Y           Z
 ---------------------------------------------------------------------
      1          1           0        1.695663   -1.450767    0.000000
      2          1           0        1.695663   -2.812713    0.000000
      3          1           0        0.847831   -0.384897    0.000000
      4          1           0        0.847831   -1.746843    0.000000
      5          1           0        0.000000    0.680973   -0.000000
      6          1           0       -0.000000   -0.680973   -0.000000
      7          1           0       -0.847831    1.746843    0.000000
      8          1           0       -0.847831    0.384897    0.000000
      9          1           0       -1.695663    2.812713    0.000000
     10          1           0       -1.695663    1.450767    0.000000
 ---------------------------------------------------------------------

 SCF Done:  E(UHF) =  -4.80189142467     A.U. after   10 cycles
 E2 =    -0.5054831513D-01 EUMP2 =    -0.48524397398026D+01

 The electronic state is 5-BU.
 Alpha  occ. eigenvalues --   -0.87067  -0.76858  -0.65706  -0.52896  -0.37207
 Alpha  occ. eigenvalues --   -0.30241  -0.24968
 Alpha virt. eigenvalues --    0.14156   0.35185   0.50483
  Beta  occ. eigenvalues --   -0.72077  -0.64954  -0.47485
  Beta virt. eigenvalues --    0.00203   0.14402   0.21873   0.26256   0.29637
  Beta virt. eigenvalues --    0.46185   0.69243

 Mulliken charges and spin densities:
               1          2
     1  H   -0.015225   0.270316
     2  H   -0.036860   0.949808
     3  H    0.047634   0.473328
     4  H    0.037527  -0.085586
     5  H   -0.033076   0.392134
     6  H   -0.033076   0.392134
     7  H    0.037527  -0.085586
     8  H    0.047634   0.473328
     9  H   -0.036860   0.949808
    10  H   -0.015225   0.270316
 Sum of Mulliken charges =   0.00000   4.00000

 Dipole moment (field-independent basis, Debye):
    X=             -0.0000    Y=              0.0000    Z=             -0.0000  Tot=              0.0000
 Quadrupole moment (field-independent basis, Debye-Ang):
   XX=            -14.3942   YY=            -18.5606   ZZ=            -12.6648
   XY=              2.9972   XZ=              0.0000   YZ=             -0.0000

 Normal termination of Gaussian 09 at Thu Feb 23 12:43:35 2017.
