 Gaussian 09, Revision E.01,
 Gaussian 09:  ES64L-G09RevE.01 30-Nov-2015

 ----------------------------------------------------------------------
 #uhf/gen scf(tight,novaracc,noincfock,fulldiag, ) stable(crhf) guess=r
 ead geom=nocrowd test
 ----------------------------------------------------------------------

 hf stability analysis of h10 triangular lattice, y= 1.8574471710024862
  alpha= 80.500000000000000
 ----------------------------------------------------------------------
 Symbolic Z-matrix:
 Charge =  0 Multiplicity = 5

                         Standard orientation:
 ---------------------------------------------------------------------
 Center     Atomic      Atomic             Coordinates (Angstroms)
 Number     Number       Type             X           Y           Z
 ---------------------------------------------------------------------
      1          1           0        1.226269    4.502981    0.000000
      2          1           0        1.226269    2.619706    0.000000
      3          1           0        0.613134    2.722309    0.000000
      4          1           0        0.613134    0.839034    0.000000
      5          1           0        0.000000    0.941638    0.000000
      6          1           0       -0.000000   -0.941638    0.000000
      7          1           0       -0.613134   -0.839034    0.000000
      8          1           0       -0.613134   -2.722309    0.000000
      9          1           0       -1.226269   -2.619706    0.000000
     10          1           0       -1.226269   -4.502981    0.000000
 ---------------------------------------------------------------------

 SCF Done:  E(UHF) =  -4.57534183386     A.U. after    9 cycles
 E2 =    -0.5397594944D-01 EUMP2 =    -0.46293177833024D+01

 The electronic state is 5-BU.
 Alpha  occ. eigenvalues --   -0.82188  -0.75571  -0.68623  -0.65977  -0.48235
 Alpha  occ. eigenvalues --   -0.48069  -0.01022
 Alpha virt. eigenvalues --    0.34395   0.51096   0.57288
  Beta  occ. eigenvalues --   -0.68507  -0.67515  -0.55137
  Beta virt. eigenvalues --   -0.20268   0.14756   0.14884   0.40075   0.45956
  Beta virt. eigenvalues --    0.58469   0.73279

 Mulliken charges and spin densities:
               1          2
     1  H    0.004392   1.004343
     2  H   -0.005770   0.022290
     3  H   -0.018955   0.020159
     4  H    0.021146   0.488018
     5  H   -0.000812   0.465191
     6  H   -0.000812   0.465191
     7  H    0.021146   0.488018
     8  H   -0.018955   0.020159
     9  H   -0.005770   0.022290
    10  H    0.004392   1.004343
 Sum of Mulliken charges =  -0.00000   4.00000

 Dipole moment (field-independent basis, Debye):
    X=             -0.0000    Y=              0.0000    Z=             -0.0000  Tot=              0.0000
 Quadrupole moment (field-independent basis, Debye-Ang):
   XX=            -13.7579   YY=            -15.6284   ZZ=            -13.0819
   XY=             -0.2025   XZ=              0.0000   YZ=              0.0000

 Normal termination of Gaussian 09 at Thu Feb 23 12:53:54 2017.
