 Gaussian 09, Revision E.01,
 Gaussian 09:  ES64L-G09RevE.01 30-Nov-2015

 ----------------------------------------------------------------------
 #uhf/gen scf(tight,novaracc,noincfock,fulldiag, ) stable(crhf) guess=r
 ead geom=nocrowd test
 ----------------------------------------------------------------------

 hf stability analysis of h10 triangular lattice, y= 0.2463370865798451
 8 alpha= 6.0000000000000000
 ----------------------------------------------------------------------
 Symbolic Z-matrix:
 Charge =  0 Multiplicity = 5

                         Standard orientation:
 ---------------------------------------------------------------------
 Center     Atomic      Atomic             Coordinates (Angstroms)
 Number     Number       Type             X           Y           Z
 ---------------------------------------------------------------------
      1          1           0        0.979950   -3.431979   -0.000000
      2          1           0        0.979950   -5.788630   -0.000000
      3          1           0        0.489975   -1.126827   -0.000000
      4          1           0        0.489975   -3.483478   -0.000000
      5          1           0        0.000000    1.178325    0.000000
      6          1           0       -0.000000   -1.178325    0.000000
      7          1           0       -0.489975    3.483478   -0.000000
      8          1           0       -0.489975    1.126827   -0.000000
      9          1           0       -0.979950    5.788630   -0.000000
     10          1           0       -0.979950    3.431979   -0.000000
 ---------------------------------------------------------------------

 SCF Done:  E(UHF) =  -3.93162929221     A.U. after    8 cycles
 E2 =    -0.7841234372D-01 EUMP2 =    -0.40100416359358D+01

 The electronic state is 5-BU.
 Alpha  occ. eigenvalues --   -0.81967  -0.79164  -0.72041  -0.71919  -0.49776
 Alpha  occ. eigenvalues --   -0.49773   0.15957
 Alpha virt. eigenvalues --    0.45162   0.62250   0.63682
  Beta  occ. eigenvalues --   -0.71580  -0.71528  -0.55711
  Beta virt. eigenvalues --   -0.30076   0.13171   0.13176   0.57212   0.59860
  Beta virt. eigenvalues --    0.68025   0.77481

 Mulliken charges and spin densities:
               1          2
     1  H   -0.005501   0.004564
     2  H    0.003117   1.003115
     3  H    0.009163   0.498654
     4  H   -0.011047   0.005846
     5  H    0.004268   0.487820
     6  H    0.004268   0.487820
     7  H   -0.011047   0.005846
     8  H    0.009163   0.498654
     9  H    0.003117   1.003115
    10  H   -0.005501   0.004564
 Sum of Mulliken charges =   0.00000   4.00000

 Dipole moment (field-independent basis, Debye):
    X=              0.0000    Y=              0.0000    Z=              0.0000  Tot=              0.0000
 Quadrupole moment (field-independent basis, Debye-Ang):
   XX=            -14.1929   YY=            -14.3557   ZZ=            -13.1903
   XY=             -0.0489   XZ=             -0.0000   YZ=              0.0000

 Normal termination of Gaussian 09 at Thu Feb 23 12:41:28 2017.
