 Gaussian 09, Revision E.01,
 Gaussian 09:  ES64L-G09RevE.01 30-Nov-2015

 ----------------------------------------------------------------------
 #uhf/gen scf(tight,novaracc,noincfock,fulldiag, ) stable(crhf) guess=r
 ead geom=nocrowd test
 ----------------------------------------------------------------------

 hf stability analysis of h10 triangular lattice, y= 0.4001417309484786
 0 alpha= 15.500000000000000
 ----------------------------------------------------------------------
 Symbolic Z-matrix:
 Charge =  0 Multiplicity = 5

                         Standard orientation:
 ---------------------------------------------------------------------
 Center     Atomic      Atomic             Coordinates (Angstroms)
 Number     Number       Type             X           Y           Z
 ---------------------------------------------------------------------
      1          1           0        1.542355   -1.818249    0.000000
      2          1           0        1.542355   -3.315570    0.000000
      3          1           0        0.771177   -0.534794    0.000000
      4          1           0        0.771177   -2.032116    0.000000
      5          1           0        0.000000    0.748661    0.000000
      6          1           0       -0.000000   -0.748661    0.000000
      7          1           0       -0.771177    2.032116   -0.000000
      8          1           0       -0.771177    0.534794   -0.000000
      9          1           0       -1.542355    3.315570   -0.000000
     10          1           0       -1.542355    1.818249   -0.000000
 ---------------------------------------------------------------------

 SCF Done:  E(UHF) =  -4.84380054067     A.U. after    9 cycles
 E2 =    -0.4856374938D-01 EUMP2 =    -0.48923642900493D+01

 The electronic state is 5-BU.
 Alpha  occ. eigenvalues --   -0.84874  -0.75777  -0.66314  -0.56304  -0.41953
 Alpha  occ. eigenvalues --   -0.38107  -0.18746
 Alpha virt. eigenvalues --    0.20114   0.39527   0.53526
  Beta  occ. eigenvalues --   -0.69920  -0.65012  -0.50148
  Beta virt. eigenvalues --   -0.05528   0.19213   0.20483   0.23594   0.31572
  Beta virt. eigenvalues --    0.49609   0.70549

 Mulliken charges and spin densities:
               1          2
     1  H    0.001712   0.104955
     2  H   -0.015670   0.982720
     3  H    0.036280   0.469207
     4  H   -0.001238   0.022659
     5  H   -0.021083   0.420458
     6  H   -0.021083   0.420458
     7  H   -0.001238   0.022659
     8  H    0.036280   0.469207
     9  H   -0.015670   0.982720
    10  H    0.001712   0.104955
 Sum of Mulliken charges =   0.00000   4.00000

 Dipole moment (field-independent basis, Debye):
    X=              0.0000    Y=              0.0000    Z=              0.0000  Tot=              0.0000
 Quadrupole moment (field-independent basis, Debye-Ang):
   XX=            -13.4868   YY=            -17.9419   ZZ=            -12.8125
   XY=              1.6608   XZ=             -0.0000   YZ=              0.0000

 Normal termination of Gaussian 09 at Thu Feb 23 12:42:59 2017.
