 Gaussian 09, Revision E.01,
 Gaussian 09:  ES64L-G09RevE.01 30-Nov-2015

 ----------------------------------------------------------------------
 #uhf/gen scf(tight,novaracc,noincfock,fulldiag, ) stable(crhf) guess=r
 ead geom=nocrowd test
 ----------------------------------------------------------------------

 hf stability analysis of h10 triangular lattice, y= 1.4808545702551064
  alpha= 75.250000000000000
 ----------------------------------------------------------------------
 Symbolic Z-matrix:
 Charge =  0 Multiplicity = 5

                         Standard orientation:
 ---------------------------------------------------------------------
 Center     Atomic      Atomic             Coordinates (Angstroms)
 Number     Number       Type             X           Y           Z
 ---------------------------------------------------------------------
      1          1           0        1.508114    3.431241    0.000000
      2          1           0        1.508114    1.899923    0.000000
      3          1           0        0.754057    2.098450    0.000000
      4          1           0        0.754057    0.567132    0.000000
      5          1           0       -0.000000    0.765659    0.000000
      6          1           0       -0.000000   -0.765659   -0.000000
      7          1           0       -0.754057   -0.567132    0.000000
      8          1           0       -0.754057   -2.098450    0.000000
      9          1           0       -1.508114   -1.899923    0.000000
     10          1           0       -1.508114   -3.431241    0.000000
 ---------------------------------------------------------------------

 SCF Done:  E(UHF) =  -4.83925345578     A.U. after    9 cycles
 E2 =    -0.4828311199D-01 EUMP2 =    -0.48875365677622D+01

 The electronic state is 5-BU.
 Alpha  occ. eigenvalues --   -0.84463  -0.75591  -0.66484  -0.57183  -0.42906
 Alpha  occ. eigenvalues --   -0.39857  -0.16952
 Alpha virt. eigenvalues --    0.21613   0.40661   0.53970
  Beta  occ. eigenvalues --   -0.69563  -0.65144  -0.50781
  Beta virt. eigenvalues --   -0.07039   0.18576   0.20041   0.24565   0.32954
  Beta virt. eigenvalues --    0.50451   0.70843

 Mulliken charges and spin densities:
               1          2
     1  H   -0.011631   0.987278
     2  H    0.001773   0.088550
     3  H   -0.005839   0.028057
     4  H    0.034279   0.470387
     5  H   -0.018582   0.425728
     6  H   -0.018582   0.425728
     7  H    0.034279   0.470387
     8  H   -0.005839   0.028057
     9  H    0.001773   0.088550
    10  H   -0.011631   0.987278
 Sum of Mulliken charges =  -0.00000   4.00000

 Dipole moment (field-independent basis, Debye):
    X=              0.0000    Y=              0.0000    Z=              0.0000  Tot=              0.0000
 Quadrupole moment (field-independent basis, Debye-Ang):
   XX=            -13.4348   YY=            -17.6770   ZZ=            -12.8459
   XY=             -1.3982   XZ=              0.0000   YZ=              0.0000

 Normal termination of Gaussian 09 at Thu Feb 23 12:53:00 2017.
