 Gaussian 09, Revision E.01,
 Gaussian 09:  ES64L-G09RevE.01 30-Nov-2015

 ----------------------------------------------------------------------
 #uhf/gen scf(tight,novaracc,noincfock,fulldiag, ) stable(crhf) guess=r
 ead geom=nocrowd test
 ----------------------------------------------------------------------

 hf stability analysis of h10 triangular lattice, y= 0.7434330289905593
 0 alpha= 43.750000000000000
 ----------------------------------------------------------------------
 Symbolic Z-matrix:
 Charge =  0 Multiplicity = 5

                         Standard orientation:
 ---------------------------------------------------------------------
 Center     Atomic      Atomic             Coordinates (Angstroms)
 Number     Number       Type             X           Y           Z
 ---------------------------------------------------------------------
      1          1           0        2.148117    0.443752   -0.000000
      2          1           0        2.148117   -0.631330   -0.000000
      3          1           0        1.074058    0.490646   -0.000000
      4          1           0        1.074058   -0.584435   -0.000000
      5          1           0       -0.000000    0.537541   -0.000000
      6          1           0       -0.000000   -0.537541   -0.000000
      7          1           0       -1.074058    0.584435    0.000000
      8          1           0       -1.074058   -0.490646    0.000000
      9          1           0       -2.148117    0.631330    0.000000
     10          1           0       -2.148117   -0.443752    0.000000
 ---------------------------------------------------------------------

 SCF Done:  E(UHF) =  -4.71153602770     A.U. after   10 cycles
 E2 =    -0.5663955683D-01 EUMP2 =    -0.47681755845314D+01

 The electronic state is 5-BU.
 Alpha  occ. eigenvalues --   -0.96767  -0.83845  -0.63406  -0.58444  -0.42925
 Alpha  occ. eigenvalues --   -0.35923  -0.17858
 Alpha virt. eigenvalues --    0.23976   0.36846   0.78155
  Beta  occ. eigenvalues --   -0.79745  -0.64747  -0.42795
  Beta virt. eigenvalues --   -0.06208   0.06845   0.08826   0.31615   0.41007
  Beta virt. eigenvalues --    0.63036   0.96691

 Mulliken charges and spin densities:
               1          2
     1  H   -0.068027   0.518597
     2  H   -0.060292   0.494730
     3  H    0.081893   0.369837
     4  H    0.070672   0.333887
     5  H   -0.024246   0.282950
     6  H   -0.024246   0.282950
     7  H    0.070672   0.333887
     8  H    0.081893   0.369837
     9  H   -0.060292   0.494730
    10  H   -0.068027   0.518597
 Sum of Mulliken charges =  -0.00000   4.00000

 Dipole moment (field-independent basis, Debye):
    X=             -0.0000    Y=             -0.0000    Z=             -0.0000  Tot=              0.0000
 Quadrupole moment (field-independent basis, Debye-Ang):
   XX=            -20.3840   YY=            -14.4552   ZZ=            -12.5254
   XY=              0.2479   XZ=              0.0000   YZ=             -0.0000

 Normal termination of Gaussian 09 at Thu Feb 23 12:47:42 2017.
