 Gaussian 09, Revision E.01,
 Gaussian 09:  ES64L-G09RevE.01 30-Nov-2015

 ----------------------------------------------------------------------
 #uhf/gen scf(tight,novaracc,noincfock,fulldiag, ) stable(crhf) guess=r
 ead geom=nocrowd test
 ----------------------------------------------------------------------

 hf stability analysis of h10 triangular lattice, y= 0.9428899751596989
 7 alpha= 57.000000000000000
 ----------------------------------------------------------------------
 Symbolic Z-matrix:
 Charge =  0 Multiplicity = 5

                         Standard orientation:
 ---------------------------------------------------------------------
 Center     Atomic      Atomic             Coordinates (Angstroms)
 Number     Number       Type             X           Y           Z
 ---------------------------------------------------------------------
      1          1           0        2.054139    1.476695    0.000000
      2          1           0        2.054139    0.352428    0.000000
      3          1           0        1.027069    1.019414    0.000000
      4          1           0        1.027069   -0.104853    0.000000
      5          1           0        0.000000    0.562134    0.000000
      6          1           0       -0.000000   -0.562134    0.000000
      7          1           0       -1.027069    0.104853    0.000000
      8          1           0       -1.027069   -1.019414    0.000000
      9          1           0       -2.054139   -0.352428    0.000000
     10          1           0       -2.054139   -1.476695    0.000000
 ---------------------------------------------------------------------

 SCF Done:  E(UHF) =  -4.70899072600     A.U. after   10 cycles
 E2 =    -0.5613228538D-01 EUMP2 =    -0.47651230113845D+01

 The electronic state is 5-BU.
 Alpha  occ. eigenvalues --   -0.94687  -0.82182  -0.63949  -0.53719  -0.39069
 Alpha  occ. eigenvalues --   -0.38288  -0.15941
 Alpha virt. eigenvalues --    0.19451   0.37325   0.57913
  Beta  occ. eigenvalues --   -0.78336  -0.64746  -0.43816
  Beta virt. eigenvalues --   -0.01935   0.04002   0.13441   0.33700   0.36287
  Beta virt. eigenvalues --    0.65039   0.72879

 Mulliken charges and spin densities:
               1          2
     1  H    0.000550   0.492124
     2  H   -0.096572   0.648214
     3  H    0.024795   0.089535
     4  H    0.092775   0.464073
     5  H   -0.021547   0.306053
     6  H   -0.021547   0.306053
     7  H    0.092775   0.464073
     8  H    0.024795   0.089535
     9  H   -0.096572   0.648214
    10  H    0.000550   0.492124
 Sum of Mulliken charges =  -0.00000   4.00000

 Dipole moment (field-independent basis, Debye):
    X=             -0.0000    Y=             -0.0000    Z=             -0.0000  Tot=              0.0000
 Quadrupole moment (field-independent basis, Debye-Ang):
   XX=            -18.3136   YY=            -14.9509   ZZ=            -12.5813
   XY=             -1.0132   XZ=              0.0000   YZ=              0.0000

 Normal termination of Gaussian 09 at Thu Feb 23 12:49:57 2017.
