 Gaussian 09, Revision E.01,
 Gaussian 09:  ES64L-G09RevE.01 30-Nov-2015

 ----------------------------------------------------------------------
 #uhf/gen scf(tight,novaracc,noincfock,fulldiag, ) stable(crhf) guess=r
 ead geom=nocrowd test
 ----------------------------------------------------------------------

 hf stability analysis of h10 triangular lattice, y= 0.4363273688766223
 2 alpha= 18.250000000000000
 ----------------------------------------------------------------------
 Symbolic Z-matrix:
 Charge =  0 Multiplicity = 5

                         Standard orientation:
 ---------------------------------------------------------------------
 Center     Atomic      Atomic             Coordinates (Angstroms)
 Number     Number       Type             X           Y           Z
 ---------------------------------------------------------------------
      1          1           0        1.657519   -1.543364    0.000000
      2          1           0        1.657519   -2.936652    0.000000
      3          1           0        0.828759   -0.423360    0.000000
      4          1           0        0.828759   -1.816648    0.000000
      5          1           0       -0.000000    0.696644    0.000000
      6          1           0       -0.000000   -0.696644   -0.000000
      7          1           0       -0.828759    1.816648    0.000000
      8          1           0       -0.828759    0.423360    0.000000
      9          1           0       -1.657519    2.936652    0.000000
     10          1           0       -1.657519    1.543364    0.000000
 ---------------------------------------------------------------------

 SCF Done:  E(UHF) =  -4.82094830564     A.U. after   10 cycles
 E2 =    -0.5024329480D-01 EUMP2 =    -0.48711916004333D+01

 The electronic state is 5-BU.
 Alpha  occ. eigenvalues --   -0.86462  -0.76552  -0.65829  -0.53690  -0.38403
 Alpha  occ. eigenvalues --   -0.31531  -0.24264
 Alpha virt. eigenvalues --    0.15429   0.36066   0.51490
  Beta  occ. eigenvalues --   -0.71421  -0.64853  -0.48097
  Beta virt. eigenvalues --   -0.01037   0.16207   0.21359   0.27374   0.27488
  Beta virt. eigenvalues --    0.46985   0.69539

 Mulliken charges and spin densities:
               1          2
     1  H   -0.006639   0.205753
     2  H   -0.031862   0.960875
     3  H    0.044326   0.469995
     4  H    0.024134  -0.037129
     5  H   -0.029958   0.400506
     6  H   -0.029958   0.400506
     7  H    0.024134  -0.037129
     8  H    0.044326   0.469995
     9  H   -0.031862   0.960875
    10  H   -0.006639   0.205753
 Sum of Mulliken charges =   0.00000   4.00000

 Dipole moment (field-independent basis, Debye):
    X=             -0.0000    Y=              0.0000    Z=             -0.0000  Tot=              0.0000
 Quadrupole moment (field-independent basis, Debye-Ang):
   XX=            -14.0238   YY=            -18.5614   ZZ=            -12.6996
   XY=              2.6786   XZ=              0.0000   YZ=             -0.0000

 Normal termination of Gaussian 09 at Thu Feb 23 12:43:25 2017.
