 Gaussian 09, Revision E.01,
 Gaussian 09:  ES64L-G09RevE.01 30-Nov-2015

 ----------------------------------------------------------------------
 #uhf/gen scf(tight,novaracc,noincfock,fulldiag, ) stable(crhf) guess=r
 ead geom=nocrowd test
 ----------------------------------------------------------------------

 hf stability analysis of h10 triangular lattice, y= 1.3135898396745678
  alpha= 71.500000000000000
 ----------------------------------------------------------------------
 Symbolic Z-matrix:
 Charge =  0 Multiplicity = 5

                         Standard orientation:
 ---------------------------------------------------------------------
 Center     Atomic      Atomic             Coordinates (Angstroms)
 Number     Number       Type             X           Y           Z
 ---------------------------------------------------------------------
      1          1           0        1.667233    2.905078    0.000000
      2          1           0        1.667233    1.519907    0.000000
      3          1           0        0.833616    1.798831    0.000000
      4          1           0        0.833616    0.413661    0.000000
      5          1           0        0.000000    0.692585    0.000000
      6          1           0       -0.000000   -0.692585    0.000000
      7          1           0       -0.833616   -0.413661    0.000000
      8          1           0       -0.833616   -1.798831    0.000000
      9          1           0       -1.667233   -1.519907    0.000000
     10          1           0       -1.667233   -2.905078    0.000000
 ---------------------------------------------------------------------

 SCF Done:  E(UHF) =  -4.81656068043     A.U. after   10 cycles
 E2 =    -0.5036478175D-01 EUMP2 =    -0.48669254621771D+01

 The electronic state is 5-BU.
 Alpha  occ. eigenvalues --   -0.86612  -0.76627  -0.65795  -0.53486  -0.38094
 Alpha  occ. eigenvalues --   -0.31061  -0.24586
 Alpha virt. eigenvalues --    0.15083   0.35820   0.51256
  Beta  occ. eigenvalues --   -0.71577  -0.64868  -0.47936
  Beta virt. eigenvalues --   -0.00708   0.15749   0.21510   0.27069   0.28012
  Beta virt. eigenvalues --    0.46778   0.69459

 Mulliken charges and spin densities:
               1          2
     1  H   -0.033235   0.958338
     2  H   -0.008403   0.220017
     3  H    0.027257  -0.047485
     4  H    0.045128   0.470625
     5  H   -0.030746   0.398505
     6  H   -0.030746   0.398505
     7  H    0.045128   0.470625
     8  H    0.027257  -0.047485
     9  H   -0.008403   0.220017
    10  H   -0.033235   0.958338
 Sum of Mulliken charges =  -0.00000   4.00000

 Dipole moment (field-independent basis, Debye):
    X=             -0.0000    Y=             -0.0000    Z=             -0.0000  Tot=              0.0000
 Quadrupole moment (field-independent basis, Debye-Ang):
   XX=            -14.1062   YY=            -18.5765   ZZ=            -12.6905
   XY=             -2.7646   XZ=              0.0000   YZ=              0.0000

 Normal termination of Gaussian 09 at Thu Feb 23 12:52:23 2017.
