 Gaussian 09, Revision E.01,
 Gaussian 09:  ES64L-G09RevE.01 30-Nov-2015

 ----------------------------------------------------------------------
 #uhf/gen scf(tight,novaracc,noincfock,fulldiag, ) stable(crhf) guess=r
 ead geom=nocrowd test
 ----------------------------------------------------------------------

 hf stability analysis of h10 triangular lattice, y= 1.8095073443210954
  alpha= 80.000000000000000
 ----------------------------------------------------------------------
 Symbolic Z-matrix:
 Charge =  0 Multiplicity = 5

                         Standard orientation:
 ---------------------------------------------------------------------
 Center     Atomic      Atomic             Coordinates (Angstroms)
 Number     Number       Type             X           Y           Z
 ---------------------------------------------------------------------
      1          1           0        1.256871    4.371935    0.000000
      2          1           0        1.256871    2.534513    0.000000
      3          1           0        0.628435    2.645323    0.000000
      4          1           0        0.628435    0.807901    0.000000
      5          1           0        0.000000    0.918711    0.000000
      6          1           0       -0.000000   -0.918711    0.000000
      7          1           0       -0.628435   -0.807901    0.000000
      8          1           0       -0.628435   -2.645323    0.000000
      9          1           0       -1.256871   -2.534513    0.000000
     10          1           0       -1.256871   -4.371935    0.000000
 ---------------------------------------------------------------------

 SCF Done:  E(UHF) =  -4.62541290292     A.U. after    9 cycles
 E2 =    -0.5248030493D-01 EUMP2 =    -0.46778932078425D+01

 The electronic state is 5-BU.
 Alpha  occ. eigenvalues --   -0.82335  -0.75382  -0.68309  -0.65018  -0.47871
 Alpha  occ. eigenvalues --   -0.47622  -0.02888
 Alpha virt. eigenvalues --    0.33006   0.49862   0.56837
  Beta  occ. eigenvalues --   -0.68399  -0.67139  -0.54829
  Beta virt. eigenvalues --   -0.18884   0.15047   0.15225   0.38177   0.44403
  Beta virt. eigenvalues --    0.57488   0.72966

 Mulliken charges and spin densities:
               1          2
     1  H    0.003898   1.003828
     2  H   -0.005061   0.026340
     3  H   -0.019009   0.022447
     4  H    0.022492   0.486013
     5  H   -0.002319   0.461373
     6  H   -0.002319   0.461373
     7  H    0.022492   0.486013
     8  H   -0.019009   0.022447
     9  H   -0.005061   0.026340
    10  H    0.003898   1.003828
 Sum of Mulliken charges =   0.00000   4.00000

 Dipole moment (field-independent basis, Debye):
    X=              0.0000    Y=             -0.0000    Z=              0.0000  Tot=              0.0000
 Quadrupole moment (field-independent basis, Debye-Ang):
   XX=            -13.6951   YY=            -15.8049   ZZ=            -13.0610
   XY=             -0.2630   XZ=              0.0000   YZ=              0.0000

 Normal termination of Gaussian 09 at Thu Feb 23 12:53:49 2017.
