 Gaussian 09, Revision E.01,
 Gaussian 09:  ES64L-G09RevE.01 30-Nov-2015

 ----------------------------------------------------------------------
 #uhf/gen scf(tight,novaracc,noincfock,fulldiag, ) stable(crhf) guess=r
 ead geom=nocrowd test
 ----------------------------------------------------------------------

 hf stability analysis of h10 triangular lattice, y= 0.6929481720257152
 4 alpha= 39.750000000000000
 ----------------------------------------------------------------------
 Symbolic Z-matrix:
 Charge =  0 Multiplicity = 5

                         Standard orientation:
 ---------------------------------------------------------------------
 Center     Atomic      Atomic             Coordinates (Angstroms)
 Number     Number       Type             X           Y           Z
 ---------------------------------------------------------------------
      1          1           0        2.131070    0.146870   -0.000000
      2          1           0        2.131070   -0.936811    0.000000
      3          1           0        1.065535    0.344355   -0.000000
      4          1           0        1.065535   -0.739326    0.000000
      5          1           0        0.000000    0.541841   -0.000000
      6          1           0       -0.000000   -0.541841   -0.000000
      7          1           0       -1.065535    0.739326    0.000000
      8          1           0       -1.065535   -0.344355   -0.000000
      9          1           0       -2.131070    0.936811    0.000000
     10          1           0       -2.131070   -0.146870   -0.000000
 ---------------------------------------------------------------------

 SCF Done:  E(UHF) =  -4.71249212392     A.U. after   11 cycles
 E2 =    -0.5670799158D-01 EUMP2 =    -0.47692001155008D+01

 The electronic state is 5-BU.
 Alpha  occ. eigenvalues --   -0.96400  -0.83547  -0.63517  -0.57596  -0.42203
 Alpha  occ. eigenvalues --   -0.36315  -0.17508
 Alpha virt. eigenvalues --    0.23223   0.36772   0.73787
  Beta  occ. eigenvalues --   -0.79469  -0.64724  -0.43018
  Beta virt. eigenvalues --   -0.05426   0.06183   0.09711   0.32570   0.39633
  Beta virt. eigenvalues --    0.63343   0.91629

 Mulliken charges and spin densities:
               1          2
     1  H   -0.077454   0.564042
     2  H   -0.042307   0.470092
     3  H    0.093178   0.414416
     4  H    0.049495   0.262805
     5  H   -0.022912   0.288645
     6  H   -0.022912   0.288645
     7  H    0.049495   0.262805
     8  H    0.093178   0.414416
     9  H   -0.042307   0.470092
    10  H   -0.077454   0.564042
 Sum of Mulliken charges =  -0.00000   4.00000

 Dipole moment (field-independent basis, Debye):
    X=             -0.0000    Y=              0.0000    Z=              0.0000  Tot=              0.0000
 Quadrupole moment (field-independent basis, Debye-Ang):
   XX=            -19.8825   YY=            -14.6609   ZZ=            -12.5365
   XY=              0.8965   XZ=             -0.0000   YZ=             -0.0000

 Normal termination of Gaussian 09 at Thu Feb 23 12:47:01 2017.
