 Gaussian 09, Revision E.01,
 Gaussian 09:  ES64L-G09RevE.01 30-Nov-2015

 ----------------------------------------------------------------------
 #uhf/gen scf(tight,novaracc,noincfock,fulldiag, ) stable(crhf) guess=r
 ead geom=nocrowd test
 ----------------------------------------------------------------------

 hf stability analysis of h10 triangular lattice, y= 0.5040240137193442
 4 alpha= 23.750000000000000
 ----------------------------------------------------------------------
 Symbolic Z-matrix:
 Charge =  0 Multiplicity = 5

                         Standard orientation:
 ---------------------------------------------------------------------
 Center     Atomic      Atomic             Coordinates (Angstroms)
 Number     Number       Type             X           Y           Z
 ---------------------------------------------------------------------
      1          1           0        1.845356   -1.065224   -0.000000
      2          1           0        1.845356   -2.316690   -0.000000
      3          1           0        0.922678   -0.219745   -0.000000
      4          1           0        0.922678   -1.471212   -0.000000
      5          1           0        0.000000    0.625733    0.000000
      6          1           0       -0.000000   -0.625733    0.000000
      7          1           0       -0.922678    1.471212   -0.000000
      8          1           0       -0.922678    0.219745   -0.000000
      9          1           0       -1.845356    2.316690   -0.000000
     10          1           0       -1.845356    1.065224   -0.000000
 ---------------------------------------------------------------------

 SCF Done:  E(UHF) =  -4.71415604772     A.U. after   11 cycles
 E2 =    -0.4451076372D-01 EUMP2 =    -0.47586668114349D+01

 The electronic state is 5-BU.
 Alpha  occ. eigenvalues --   -0.89948  -0.78543  -0.65415  -0.49464  -0.37430
 Alpha  occ. eigenvalues --   -0.34605  -0.17818
 Alpha virt. eigenvalues --    0.13155   0.36689   0.43844
  Beta  occ. eigenvalues --   -0.75705  -0.66329  -0.45979
  Beta virt. eigenvalues --    0.02935   0.07706   0.20529   0.25214   0.39814
  Beta virt. eigenvalues --    0.44350   0.68641

 Mulliken charges and spin densities:
               1          2
     1  H   -0.091703   0.657879
     2  H   -0.018503   0.833577
     3  H    0.066384   0.503360
     4  H    0.083026  -0.340172
     5  H   -0.039204   0.345357
     6  H   -0.039204   0.345357
     7  H    0.083026  -0.340172
     8  H    0.066384   0.503360
     9  H   -0.018503   0.833577
    10  H   -0.091703   0.657879
 Sum of Mulliken charges =  -0.00000   4.00000

 Dipole moment (field-independent basis, Debye):
    X=             -0.0000    Y=             -0.0000    Z=              0.0000  Tot=              0.0000
 Quadrupole moment (field-independent basis, Debye-Ang):
   XX=            -16.7215   YY=            -16.3254   ZZ=            -12.5867
   XY=              2.4781   XZ=              0.0000   YZ=             -0.0000

 Normal termination of Gaussian 09 at Thu Feb 23 12:44:19 2017.
