 Gaussian 09, Revision E.01,
 Gaussian 09:  ES64L-G09RevE.01 30-Nov-2015

 ----------------------------------------------------------------------
 #uhf/gen scf(tight,novaracc,noincfock,fulldiag, ) stable(crhf) guess=r
 ead geom=nocrowd test
 ----------------------------------------------------------------------

 hf stability analysis of h10 triangular lattice, y= 1.1806129676413906
  alpha= 67.500000000000000
 ----------------------------------------------------------------------
 Symbolic Z-matrix:
 Charge =  0 Multiplicity = 5

                         Standard orientation:
 ---------------------------------------------------------------------
 Center     Atomic      Atomic             Coordinates (Angstroms)
 Number     Number       Type             X           Y           Z
 ---------------------------------------------------------------------
      1          1           0        1.807204    2.446147   -0.000000
      2          1           0        1.807204    1.168261   -0.000000
      3          1           0        0.903602    1.542545   -0.000000
      4          1           0        0.903602    0.264659   -0.000000
      5          1           0        0.000000    0.638943   -0.000000
      6          1           0       -0.000000   -0.638943   -0.000000
      7          1           0       -0.903602   -0.264659    0.000000
      8          1           0       -0.903602   -1.542545   -0.000000
      9          1           0       -1.807204   -1.168261   -0.000000
     10          1           0       -1.807204   -2.446147   -0.000000
 ---------------------------------------------------------------------

 SCF Done:  E(UHF) =  -4.73281972686     A.U. after   11 cycles
 E2 =    -0.4599144629D-01 EUMP2 =    -0.47788111731474D+01

 The electronic state is 5-BU.
 Alpha  occ. eigenvalues --   -0.89146  -0.78021  -0.65512  -0.50429  -0.35102
 Alpha  occ. eigenvalues --   -0.34823  -0.19603
 Alpha virt. eigenvalues --    0.12784   0.35305   0.45822
  Beta  occ. eigenvalues --   -0.74763  -0.66035  -0.46275
  Beta virt. eigenvalues --    0.02687   0.09327   0.21265   0.25032   0.37136
  Beta virt. eigenvalues --    0.44307   0.68799

 Mulliken charges and spin densities:
               1          2
     1  H   -0.030949   0.880464
     2  H   -0.070625   0.573579
     3  H    0.080762  -0.309283
     4  H    0.060605   0.497031
     5  H   -0.039793   0.358209
     6  H   -0.039793   0.358209
     7  H    0.060605   0.497031
     8  H    0.080762  -0.309283
     9  H   -0.070625   0.573579
    10  H   -0.030949   0.880464
 Sum of Mulliken charges =   0.00000   4.00000

 Dipole moment (field-independent basis, Debye):
    X=              0.0000    Y=             -0.0000    Z=              0.0000  Tot=              0.0000
 Quadrupole moment (field-independent basis, Debye-Ang):
   XX=            -16.1492   YY=            -17.1522   ZZ=            -12.5928
   XY=             -2.9696   XZ=             -0.0000   YZ=             -0.0000

 Normal termination of Gaussian 09 at Thu Feb 23 12:51:43 2017.
