 Gaussian 09, Revision E.01,
 Gaussian 09:  ES64L-G09RevE.01 30-Nov-2015

 ----------------------------------------------------------------------
 #uhf/gen scf(tight,novaracc,noincfock,fulldiag, ) stable(crhf) guess=r
 ead geom=nocrowd test
 ----------------------------------------------------------------------

 hf stability analysis of h10 triangular lattice, y= 0.8873592600485348
 3 alpha= 53.750000000000000
 ----------------------------------------------------------------------
 Symbolic Z-matrix:
 Charge =  0 Multiplicity = 5

                         Standard orientation:
 ---------------------------------------------------------------------
 Center     Atomic      Atomic             Coordinates (Angstroms)
 Number     Number       Type             X           Y           Z
 ---------------------------------------------------------------------
      1          1           0        2.098816    1.211922   -0.000000
      2          1           0        2.098816    0.111587   -0.000000
      3          1           0        1.049408    0.881045   -0.000000
      4          1           0        1.049408   -0.219290   -0.000000
      5          1           0       -0.000000    0.550168    0.000000
      6          1           0       -0.000000   -0.550168    0.000000
      7          1           0       -1.049408    0.219290   -0.000000
      8          1           0       -1.049408   -0.881045   -0.000000
      9          1           0       -2.098816   -0.111587   -0.000000
     10          1           0       -2.098816   -1.211922   -0.000000
 ---------------------------------------------------------------------

 SCF Done:  E(UHF) =  -4.71240881016     A.U. after   11 cycles
 E2 =    -0.5668327522D-01 EUMP2 =    -0.47690920853798D+01

 The electronic state is 5-BU.
 Alpha  occ. eigenvalues --   -0.95692  -0.82979  -0.63704  -0.55982  -0.40861
 Alpha  occ. eigenvalues --   -0.37107  -0.16823
 Alpha virt. eigenvalues --    0.21660   0.36874   0.66439
  Beta  occ. eigenvalues --   -0.78967  -0.64699  -0.43387
  Beta virt. eigenvalues --   -0.03948   0.05112   0.11323   0.34228   0.37073
  Beta virt. eigenvalues --    0.64015   0.83061

 Mulliken charges and spin densities:
               1          2
     1  H   -0.020942   0.468307
     2  H   -0.086089   0.606710
     3  H    0.032905   0.184810
     4  H    0.095646   0.442834
     5  H   -0.021520   0.297340
     6  H   -0.021520   0.297340
     7  H    0.095646   0.442834
     8  H    0.032905   0.184810
     9  H   -0.086089   0.606710
    10  H   -0.020942   0.468307
 Sum of Mulliken charges =  -0.00000   4.00000

 Dipole moment (field-independent basis, Debye):
    X=              0.0000    Y=             -0.0000    Z=              0.0000  Tot=              0.0000
 Quadrupole moment (field-independent basis, Debye-Ang):
   XX=            -19.1008   YY=            -14.8871   ZZ=            -12.5566
   XY=             -1.1162   XZ=              0.0000   YZ=              0.0000

 Normal termination of Gaussian 09 at Thu Feb 23 12:49:24 2017.
