 Gaussian 09, Revision E.01,
 Gaussian 09:  ES64L-G09RevE.01 30-Nov-2015

 ----------------------------------------------------------------------
 #uhf/gen scf(tight,novaracc,noincfock,fulldiag, ) stable(crhf) guess=r
 ead geom=nocrowd test
 ----------------------------------------------------------------------

 hf stability analysis of h10 triangular lattice, y= 0.7273541585154700
 3 alpha= 42.500000000000000
 ----------------------------------------------------------------------
 Symbolic Z-matrix:
 Charge =  0 Multiplicity = 5

                         Standard orientation:
 ---------------------------------------------------------------------
 Center     Atomic      Atomic             Coordinates (Angstroms)
 Number     Number       Type             X           Y           Z
 ---------------------------------------------------------------------
      1          1           0        2.145047    0.350643    0.000000
      2          1           0        2.145047   -0.725977    0.000000
      3          1           0        1.072523    0.444477    0.000000
      4          1           0        1.072523   -0.632144    0.000000
      5          1           0       -0.000000    0.538310   -0.000000
      6          1           0       -0.000000   -0.538310    0.000000
      7          1           0       -1.072523    0.632144    0.000000
      8          1           0       -1.072523   -0.444477    0.000000
      9          1           0       -2.145047    0.725977    0.000000
     10          1           0       -2.145047   -0.350643    0.000000
 ---------------------------------------------------------------------

 SCF Done:  E(UHF) =  -4.71176370883     A.U. after   11 cycles
 E2 =    -0.5665521645D-01 EUMP2 =    -0.47684189252863D+01

 The electronic state is 5-BU.
 Alpha  occ. eigenvalues --   -0.96701  -0.83791  -0.63427  -0.58291  -0.42794
 Alpha  occ. eigenvalues --   -0.35992  -0.17796
 Alpha virt. eigenvalues --    0.23846   0.36824   0.77341
  Beta  occ. eigenvalues --   -0.79695  -0.64743  -0.42836
  Beta virt. eigenvalues --   -0.06068   0.06720   0.08987   0.31792   0.40759
  Beta virt. eigenvalues --    0.63087   0.95748

 Mulliken charges and spin densities:
               1          2
     1  H   -0.071194   0.532122
     2  H   -0.055480   0.484946
     3  H    0.086391   0.385408
     4  H    0.064253   0.313481
     5  H   -0.023970   0.284042
     6  H   -0.023970   0.284042
     7  H    0.064253   0.313481
     8  H    0.086391   0.385408
     9  H   -0.055480   0.484946
    10  H   -0.071194   0.532122
 Sum of Mulliken charges =  -0.00000   4.00000

 Dipole moment (field-independent basis, Debye):
    X=             -0.0000    Y=             -0.0000    Z=             -0.0000  Tot=              0.0000
 Quadrupole moment (field-independent basis, Debye-Ang):
   XX=            -20.2886   YY=            -14.4974   ZZ=            -12.5274
   XY=              0.4828   XZ=             -0.0000   YZ=              0.0000

 Normal termination of Gaussian 09 at Thu Feb 23 12:47:30 2017.
