 Gaussian 09, Revision E.01,
 Gaussian 09:  ES64L-G09RevE.01 30-Nov-2015

 ----------------------------------------------------------------------
 #uhf/gen scf(tight,novaracc,noincfock,fulldiag, ) stable(crhf) guess=r
 ead geom=nocrowd test
 ----------------------------------------------------------------------

 hf stability analysis of h10 triangular lattice, y= 0.5628012212403139
 5 alpha= 28.750000000000000
 ----------------------------------------------------------------------
 Symbolic Z-matrix:
 Charge =  0 Multiplicity = 5

                         Standard orientation:
 ---------------------------------------------------------------------
 Center     Atomic      Atomic             Coordinates (Angstroms)
 Number     Number       Type             X           Y           Z
 ---------------------------------------------------------------------
      1          1           0        1.973692   -0.672334   -0.000000
      2          1           0        1.973692   -1.842426   -0.000000
      3          1           0        0.986846   -0.043644   -0.000000
      4          1           0        0.986846   -1.213736   -0.000000
      5          1           0        0.000000    0.585046   -0.000000
      6          1           0       -0.000000   -0.585046   -0.000000
      7          1           0       -0.986846    1.213736    0.000000
      8          1           0       -0.986846    0.043644   -0.000000
      9          1           0       -1.973692    1.842426    0.000000
     10          1           0       -1.973692    0.672334   -0.000000
 ---------------------------------------------------------------------

 SCF Done:  E(UHF) =  -4.69890656612     A.U. after   10 cycles
 E2 =    -0.5227815859D-01 EUMP2 =    -0.47511847247045D+01

 The electronic state is 5-BU.
 Alpha  occ. eigenvalues --   -0.92830  -0.80709  -0.64501  -0.49808  -0.40410
 Alpha  occ. eigenvalues --   -0.36269  -0.15109
 Alpha virt. eigenvalues --    0.16053   0.38760   0.46526
  Beta  occ. eigenvalues --   -0.77468  -0.65309  -0.44539
  Beta virt. eigenvalues --    0.01316   0.03413   0.16880   0.28564   0.39408
  Beta virt. eigenvalues --    0.57996   0.66869

 Mulliken charges and spin densities:
               1          2
     1  H   -0.112095   0.706169
     2  H    0.016918   0.596637
     3  H    0.084181   0.489650
     4  H    0.037751  -0.109002
     5  H   -0.026754   0.316547
     6  H   -0.026754   0.316547
     7  H    0.037751  -0.109002
     8  H    0.084181   0.489650
     9  H    0.016918   0.596637
    10  H   -0.112095   0.706169
 Sum of Mulliken charges =   0.00000   4.00000

 Dipole moment (field-independent basis, Debye):
    X=              0.0000    Y=             -0.0000    Z=              0.0000  Tot=              0.0000
 Quadrupole moment (field-independent basis, Debye-Ang):
   XX=            -17.5724   YY=            -14.8462   ZZ=            -12.6052
   XY=              0.9028   XZ=              0.0000   YZ=             -0.0000

 Normal termination of Gaussian 09 at Thu Feb 23 12:45:09 2017.
