 Gaussian 09, Revision E.01,
 Gaussian 09:  ES64L-G09RevE.01 30-Nov-2015

 ----------------------------------------------------------------------
 #uhf/gen scf(tight,novaracc,noincfock,fulldiag, ) stable(crhf) guess=r
 ead geom=nocrowd test
 ----------------------------------------------------------------------

 hf stability analysis of h10 triangular lattice, y= 1.6137717412076256
  alpha= 77.500000000000000
 ----------------------------------------------------------------------
 Symbolic Z-matrix:
 Charge =  0 Multiplicity = 5

                         Standard orientation:
 ---------------------------------------------------------------------
 Center     Atomic      Atomic             Coordinates (Angstroms)
 Number     Number       Type             X           Y           Z
 ---------------------------------------------------------------------
      1          1           0        1.397137    3.822646    0.000000
      2          1           0        1.397137    2.169692    0.000000
      3          1           0        0.698568    2.324561    0.000000
      4          1           0        0.698568    0.671608    0.000000
      5          1           0        0.000000    0.826477    0.000000
      6          1           0       -0.000000   -0.826477    0.000000
      7          1           0       -0.698568   -0.671608    0.000000
      8          1           0       -0.698568   -2.324561    0.000000
      9          1           0       -1.397137   -2.169692    0.000000
     10          1           0       -1.397137   -3.822646    0.000000
 ---------------------------------------------------------------------

 SCF Done:  E(UHF) =  -4.78565822354     A.U. after    9 cycles
 E2 =    -0.4860454651D-01 EUMP2 =    -0.48342627700518D+01

 The electronic state is 5-BU.
 Alpha  occ. eigenvalues --   -0.83322  -0.75192  -0.67146  -0.60433  -0.45548
 Alpha  occ. eigenvalues --   -0.44345  -0.10961
 Alpha virt. eigenvalues --    0.26602   0.44534   0.55200
  Beta  occ. eigenvalues --   -0.68679  -0.65793  -0.52788
  Beta virt. eigenvalues --   -0.12248   0.16752   0.17433   0.30089   0.37733
  Beta virt. eigenvalues --    0.53364   0.71753

 Mulliken charges and spin densities:
               1          2
     1  H   -0.001876   0.997794
     2  H   -0.000717   0.052666
     3  H   -0.015228   0.030994
     4  H    0.028644   0.476420
     5  H   -0.010823   0.442126
     6  H   -0.010823   0.442126
     7  H    0.028644   0.476420
     8  H   -0.015228   0.030994
     9  H   -0.000717   0.052666
    10  H   -0.001876   0.997794
 Sum of Mulliken charges =  -0.00000   4.00000

 Dipole moment (field-independent basis, Debye):
    X=             -0.0000    Y=              0.0000    Z=              0.0000  Tot=              0.0000
 Quadrupole moment (field-independent basis, Debye-Ang):
   XX=            -13.4557   YY=            -16.7794   ZZ=            -12.9491
   XY=             -0.7320   XZ=              0.0000   YZ=              0.0000

 Normal termination of Gaussian 09 at Thu Feb 23 12:53:23 2017.
