 Gaussian 09, Revision E.01,
 Gaussian 09:  ES64L-G09RevE.01 30-Nov-2015

 ----------------------------------------------------------------------
 #uhf/gen scf(tight,novaracc,noincfock,fulldiag, ) stable(crhf) guess=r
 ead geom=nocrowd test
 ----------------------------------------------------------------------

 hf stability analysis of h10 triangular lattice, y= 0.9384058608233425
 4 alpha= 56.750000000000000
 ----------------------------------------------------------------------
 Symbolic Z-matrix:
 Charge =  0 Multiplicity = 5

                         Standard orientation:
 ---------------------------------------------------------------------
 Center     Atomic      Atomic             Coordinates (Angstroms)
 Number     Number       Type             X           Y           Z
 ---------------------------------------------------------------------
      1          1           0        2.058086    1.455937    0.000000
      2          1           0        2.058086    0.333826    0.000000
      3          1           0        1.029043    1.008496    0.000000
      4          1           0        1.029043   -0.113615   -0.000000
      5          1           0       -0.000000    0.561055    0.000000
      6          1           0       -0.000000   -0.561055    0.000000
      7          1           0       -1.029043    0.113615    0.000000
      8          1           0       -1.029043   -1.008496    0.000000
      9          1           0       -2.058086   -0.333826    0.000000
     10          1           0       -2.058086   -1.455937    0.000000
 ---------------------------------------------------------------------

 SCF Done:  E(UHF) =  -4.70941388192     A.U. after   10 cycles
 E2 =    -0.5621397924D-01 EUMP2 =    -0.47656278611661D+01

 The electronic state is 5-BU.
 Alpha  occ. eigenvalues --   -0.94777  -0.82253  -0.63927  -0.53919  -0.39223
 Alpha  occ. eigenvalues --   -0.38181  -0.16012
 Alpha virt. eigenvalues --    0.19642   0.37275   0.58598
  Beta  occ. eigenvalues --   -0.78388  -0.64736  -0.43780
  Beta virt. eigenvalues --   -0.02110   0.04082   0.13259   0.33988   0.36114
  Beta virt. eigenvalues --    0.64947   0.73714

 Mulliken charges and spin densities:
               1          2
     1  H   -0.001028   0.489061
     2  H   -0.095667   0.644910
     3  H    0.025020   0.098092
     4  H    0.093137   0.462530
     5  H   -0.021462   0.305407
     6  H   -0.021462   0.305407
     7  H    0.093137   0.462530
     8  H    0.025020   0.098092
     9  H   -0.095667   0.644910
    10  H   -0.001028   0.489061
 Sum of Mulliken charges =   0.00000   4.00000

 Dipole moment (field-independent basis, Debye):
    X=             -0.0000    Y=             -0.0000    Z=             -0.0000  Tot=              0.0000
 Quadrupole moment (field-independent basis, Debye-Ang):
   XX=            -18.3710   YY=            -14.9535   ZZ=            -12.5793
   XY=             -1.0281   XZ=              0.0000   YZ=              0.0000

 Normal termination of Gaussian 09 at Thu Feb 23 12:49:54 2017.
