 Gaussian 09, Revision E.01,
 Gaussian 09:  ES64L-G09RevE.01 30-Nov-2015

 ----------------------------------------------------------------------
 #uhf/gen scf(tight,novaracc,noincfock,fulldiag, ) stable(crhf) guess=r
 ead geom=nocrowd test
 ----------------------------------------------------------------------

 hf stability analysis of h10 triangular lattice, y= 0.6328681913590388
 2 alpha= 34.750000000000000
 ----------------------------------------------------------------------
 Symbolic Z-matrix:
 Charge =  0 Multiplicity = 5

                         Standard orientation:
 ---------------------------------------------------------------------
 Center     Atomic      Atomic             Coordinates (Angstroms)
 Number     Number       Type             X           Y           Z
 ---------------------------------------------------------------------
      1          1           0        2.079977   -0.222521   -0.000000
      2          1           0        2.079977   -1.332822   -0.000000
      3          1           0        1.039988    0.166315   -0.000000
      4          1           0        1.039988   -0.943986   -0.000000
      5          1           0        0.000000    0.555151    0.000000
      6          1           0       -0.000000   -0.555151   -0.000000
      7          1           0       -1.039988    0.943986   -0.000000
      8          1           0       -1.039988   -0.166315   -0.000000
      9          1           0       -2.079977    1.332822   -0.000000
     10          1           0       -2.079977    0.222521   -0.000000
 ---------------------------------------------------------------------

 SCF Done:  E(UHF) =  -4.71136793995     A.U. after   11 cycles
 E2 =    -0.5654161132D-01 EUMP2 =    -0.47679095512679D+01

 The electronic state is 5-BU.
 Alpha  occ. eigenvalues --   -0.95272  -0.82645  -0.63806  -0.55031  -0.40094
 Alpha  occ. eigenvalues --   -0.37594  -0.16434
 Alpha virt. eigenvalues --    0.20720   0.37031   0.62629
  Beta  occ. eigenvalues --   -0.78690  -0.64704  -0.43577
  Beta virt. eigenvalues --   -0.03092   0.04590   0.12232   0.35126   0.35621
  Beta virt. eigenvalues --    0.64439   0.78560

 Mulliken charges and spin densities:
               1          2
     1  H   -0.090577   0.625527
     2  H   -0.010904   0.475397
     3  H    0.094846   0.453020
     4  H    0.027911   0.144640
     5  H   -0.021276   0.301415
     6  H   -0.021276   0.301415
     7  H    0.027911   0.144640
     8  H    0.094846   0.453020
     9  H   -0.010904   0.475397
    10  H   -0.090577   0.625527
 Sum of Mulliken charges =  -0.00000   4.00000

 Dipole moment (field-independent basis, Debye):
    X=              0.0000    Y=             -0.0000    Z=              0.0000  Tot=              0.0000
 Quadrupole moment (field-independent basis, Debye-Ang):
   XX=            -18.7307   YY=            -14.9419   ZZ=            -12.5676
   XY=              1.0980   XZ=             -0.0000   YZ=              0.0000

 Normal termination of Gaussian 09 at Thu Feb 23 12:46:09 2017.
