 Gaussian 09, Revision E.01,
 Gaussian 09:  ES64L-G09RevE.01 30-Nov-2015

 ----------------------------------------------------------------------
 #uhf/gen scf(tight,novaracc,noincfock,fulldiag, ) stable(crhf) guess=r
 ead geom=nocrowd test
 ----------------------------------------------------------------------

 hf stability analysis of h10 triangular lattice, y= 0.5569753137506021
 6 alpha= 28.250000000000000
 ----------------------------------------------------------------------
 Symbolic Z-matrix:
 Charge =  0 Multiplicity = 5

                         Standard orientation:
 ---------------------------------------------------------------------
 Center     Atomic      Atomic             Coordinates (Angstroms)
 Number     Number       Type             X           Y           Z
 ---------------------------------------------------------------------
      1          1           0        1.962538   -0.710604    0.000000
      2          1           0        1.962538   -1.887346    0.000000
      3          1           0        0.981269   -0.061116    0.000000
      4          1           0        0.981269   -1.237859    0.000000
      5          1           0        0.000000    0.588371    0.000000
      6          1           0       -0.000000   -0.588371   -0.000000
      7          1           0       -0.981269    1.237859    0.000000
      8          1           0       -0.981269    0.061116    0.000000
      9          1           0       -1.962538    1.887346    0.000000
     10          1           0       -1.962538    0.710604    0.000000
 ---------------------------------------------------------------------

 SCF Done:  E(UHF) =  -4.69788011770     A.U. after   10 cycles
 E2 =    -0.5137636458D-01 EUMP2 =    -0.47492564822766D+01

 The electronic state is 5-BU.
 Alpha  occ. eigenvalues --   -0.92571  -0.80504  -0.64595  -0.49366  -0.40613
 Alpha  occ. eigenvalues --   -0.35963  -0.15125
 Alpha virt. eigenvalues --    0.15681   0.39044   0.45306
  Beta  occ. eigenvalues --   -0.77369  -0.65442  -0.44656
  Beta virt. eigenvalues --    0.01655   0.03554   0.17300   0.28009   0.39766
  Beta virt. eigenvalues --    0.56226   0.67098

 Mulliken charges and spin densities:
               1          2
     1  H   -0.113299   0.712003
     2  H    0.016447   0.617155
     3  H    0.082913   0.492480
     4  H    0.041890  -0.139661
     5  H   -0.027951   0.318024
     6  H   -0.027951   0.318024
     7  H    0.041890  -0.139661
     8  H    0.082913   0.492480
     9  H    0.016447   0.617155
    10  H   -0.113299   0.712003
 Sum of Mulliken charges =  -0.00000   4.00000

 Dipole moment (field-independent basis, Debye):
    X=              0.0000    Y=             -0.0000    Z=             -0.0000  Tot=              0.0000
 Quadrupole moment (field-independent basis, Debye-Ang):
   XX=            -17.5193   YY=            -14.8635   ZZ=            -12.6054
   XY=              0.9536   XZ=              0.0000   YZ=             -0.0000

 Normal termination of Gaussian 09 at Thu Feb 23 12:45:04 2017.
