 Gaussian 09, Revision E.01,
 Gaussian 09:  ES64L-G09RevE.01 30-Nov-2015

 ----------------------------------------------------------------------
 #uhf/gen scf(tight,novaracc,noincfock,fulldiag, ) stable(crhf) guess=r
 ead geom=nocrowd test
 ----------------------------------------------------------------------

 hf stability analysis of h10 triangular lattice, y= 0.7698484628422243
 0 alpha= 45.750000000000000
 ----------------------------------------------------------------------
 Symbolic Z-matrix:
 Charge =  0 Multiplicity = 5

                         Standard orientation:
 ---------------------------------------------------------------------
 Center     Atomic      Atomic             Coordinates (Angstroms)
 Number     Number       Type             X           Y           Z
 ---------------------------------------------------------------------
      1          1           0        2.148772    0.593645    0.000000
      2          1           0        2.148772   -0.481109    0.000000
      3          1           0        1.074386    0.565511    0.000000
      4          1           0        1.074386   -0.509243    0.000000
      5          1           0        0.000000    0.537377    0.000000
      6          1           0       -0.000000   -0.537377    0.000000
      7          1           0       -1.074386    0.509243    0.000000
      8          1           0       -1.074386   -0.565511    0.000000
      9          1           0       -2.148772    0.481109    0.000000
     10          1           0       -2.148772   -0.593645    0.000000
 ---------------------------------------------------------------------

 SCF Done:  E(UHF) =  -4.71148422078     A.U. after   10 cycles
 E2 =    -0.5663604325D-01 EUMP2 =    -0.47681202640238D+01

 The electronic state is 5-BU.
 Alpha  occ. eigenvalues --   -0.96781  -0.83856  -0.63401  -0.58476  -0.42953
 Alpha  occ. eigenvalues --   -0.35908  -0.17871
 Alpha virt. eigenvalues --    0.24004   0.36851   0.78330
  Beta  occ. eigenvalues --   -0.79756  -0.64748  -0.42786
  Beta virt. eigenvalues --   -0.06239   0.06872   0.08791   0.31577   0.41060
  Beta virt. eigenvalues --    0.63025   0.96894

 Mulliken charges and spin densities:
               1          2
     1  H   -0.062025   0.499086
     2  H   -0.066650   0.513443
     3  H    0.073115   0.341595
     4  H    0.079868   0.363164
     5  H   -0.024307   0.282712
     6  H   -0.024307   0.282712
     7  H    0.079868   0.363164
     8  H    0.073115   0.341595
     9  H   -0.066650   0.513443
    10  H   -0.062025   0.499086
 Sum of Mulliken charges =  -0.00000   4.00000

 Dipole moment (field-independent basis, Debye):
    X=             -0.0000    Y=             -0.0000    Z=             -0.0000  Tot=              0.0000
 Quadrupole moment (field-independent basis, Debye-Ang):
   XX=            -20.4047   YY=            -14.4459   ZZ=            -12.5250
   XY=             -0.1496   XZ=             -0.0000   YZ=             -0.0000

 Normal termination of Gaussian 09 at Thu Feb 23 12:48:03 2017.
