 Gaussian 09, Revision E.01,
 Gaussian 09:  ES64L-G09RevE.01 30-Nov-2015

 ----------------------------------------------------------------------
 #uhf/gen scf(tight,novaracc,noincfock,fulldiag, ) stable(crhf) guess=r
 ead geom=nocrowd test
 ----------------------------------------------------------------------

 hf stability analysis of h10 triangular lattice, y= 1.1002000313062268
  alpha= 64.500000000000000
 ----------------------------------------------------------------------
 Symbolic Z-matrix:
 Charge =  0 Multiplicity = 5

                         Standard orientation:
 ---------------------------------------------------------------------
 Center     Atomic      Atomic             Coordinates (Angstroms)
 Number     Number       Type             X           Y           Z
 ---------------------------------------------------------------------
      1          1           0        1.894593    2.143683    0.000000
      2          1           0        1.894593    0.924740    0.000000
      3          1           0        0.947297    1.376577    0.000000
      4          1           0        0.947297    0.157634    0.000000
      5          1           0       -0.000000    0.609472    0.000000
      6          1           0       -0.000000   -0.609472    0.000000
      7          1           0       -0.947297   -0.157634    0.000000
      8          1           0       -0.947297   -1.376577    0.000000
      9          1           0       -1.894593   -0.924740    0.000000
     10          1           0       -1.894593   -2.143683    0.000000
 ---------------------------------------------------------------------

 SCF Done:  E(UHF) =  -4.69990436512     A.U. after   10 cycles
 E2 =    -0.4574130020D-01 EUMP2 =    -0.47456456653149D+01

 The electronic state is 5-BU.
 Alpha  occ. eigenvalues --   -0.91024  -0.79308  -0.65153  -0.48461  -0.39925
 Alpha  occ. eigenvalues --   -0.34770  -0.16136
 Alpha virt. eigenvalues --    0.13959   0.39469   0.41458
  Beta  occ. eigenvalues --   -0.76625  -0.66229  -0.45466
  Beta virt. eigenvalues --    0.02768   0.05679   0.19413   0.25804   0.41161
  Beta virt. eigenvalues --    0.47304   0.68206

 Mulliken charges and spin densities:
               1          2
     1  H    0.000212   0.751509
     2  H   -0.109519   0.714344
     3  H    0.070890  -0.300827
     4  H    0.074078   0.503969
     5  H   -0.035660   0.331006
     6  H   -0.035660   0.331006
     7  H    0.074078   0.503969
     8  H    0.070890  -0.300827
     9  H   -0.109519   0.714344
    10  H    0.000212   0.751509
 Sum of Mulliken charges =  -0.00000   4.00000

 Dipole moment (field-independent basis, Debye):
    X=              0.0000    Y=              0.0000    Z=             -0.0000  Tot=              0.0000
 Quadrupole moment (field-independent basis, Debye-Ang):
   XX=            -17.2006   YY=            -15.4258   ZZ=            -12.5931
   XY=             -1.7044   XZ=              0.0000   YZ=              0.0000

 Normal termination of Gaussian 09 at Thu Feb 23 12:51:13 2017.
