 Gaussian 09, Revision E.01,
 Gaussian 09:  ES64L-G09RevE.01 30-Nov-2015

 ----------------------------------------------------------------------
 #uhf/gen scf(tight,novaracc,noincfock,fulldiag, ) stable(crhf) guess=r
 ead geom=nocrowd test
 ----------------------------------------------------------------------

 hf stability analysis of h10 triangular lattice, y= 0.8753112166669652
 1 alpha= 53.000000000000000
 ----------------------------------------------------------------------
 Symbolic Z-matrix:
 Charge =  0 Multiplicity = 5

                         Standard orientation:
 ---------------------------------------------------------------------
 Center     Atomic      Atomic             Coordinates (Angstroms)
 Number     Number       Type             X           Y           Z
 ---------------------------------------------------------------------
      1          1           0        2.107102    1.152206   -0.000000
      2          1           0        2.107102    0.056198   -0.000000
      3          1           0        1.053551    0.850105   -0.000000
      4          1           0        1.053551   -0.245903   -0.000000
      5          1           0        0.000000    0.548004    0.000000
      6          1           0       -0.000000   -0.548004    0.000000
      7          1           0       -1.053551    0.245903   -0.000000
      8          1           0       -1.053551   -0.850105   -0.000000
      9          1           0       -2.107102   -0.056198   -0.000000
     10          1           0       -2.107102   -1.152206   -0.000000
 ---------------------------------------------------------------------

 SCF Done:  E(UHF) =  -4.71264806301     A.U. after   11 cycles
 E2 =    -0.5671270272D-01 EUMP2 =    -0.47693607657309D+01

 The electronic state is 5-BU.
 Alpha  occ. eigenvalues --   -0.95876  -0.83126  -0.63658  -0.56398  -0.41202
 Alpha  occ. eigenvalues --   -0.36898  -0.16999
 Alpha virt. eigenvalues --    0.22071   0.36825   0.68222
  Beta  occ. eigenvalues --   -0.79093  -0.64702  -0.43298
  Beta virt. eigenvalues --   -0.04327   0.05366   0.10916   0.33818   0.37723
  Beta virt. eigenvalues --    0.63834   0.85150

 Mulliken charges and spin densities:
               1          2
     1  H   -0.025846   0.466745
     2  H   -0.084055   0.597440
     3  H    0.035997   0.203110
     4  H    0.095657   0.437374
     5  H   -0.021753   0.295331
     6  H   -0.021753   0.295331
     7  H    0.095657   0.437374
     8  H    0.035997   0.203110
     9  H   -0.084055   0.597440
    10  H   -0.025846   0.466745
 Sum of Mulliken charges =  -0.00000   4.00000

 Dipole moment (field-independent basis, Debye):
    X=              0.0000    Y=              0.0000    Z=              0.0000  Tot=              0.0000
 Quadrupole moment (field-independent basis, Debye-Ang):
   XX=            -19.2828   YY=            -14.8465   ZZ=            -12.5515
   XY=             -1.1010   XZ=              0.0000   YZ=              0.0000

 Normal termination of Gaussian 09 at Thu Feb 23 12:49:16 2017.
