 Gaussian 09, Revision E.01,
 Gaussian 09:  ES64L-G09RevE.01 30-Nov-2015

 ----------------------------------------------------------------------
 #uhf/gen scf(tight,novaracc,noincfock,fulldiag, ) stable(crhf) guess=r
 ead geom=nocrowd test
 ----------------------------------------------------------------------

 hf stability analysis of h10 triangular lattice, y= 0.7631583969428945
 6 alpha= 45.250000000000000
 ----------------------------------------------------------------------
 Symbolic Z-matrix:
 Charge =  0 Multiplicity = 5

                         Standard orientation:
 ---------------------------------------------------------------------
 Center     Atomic      Atomic             Coordinates (Angstroms)
 Number     Number       Type             X           Y           Z
 ---------------------------------------------------------------------
      1          1           0        2.149099    0.556050    0.000000
      2          1           0        2.149099   -0.518540    0.000000
      3          1           0        1.074549    0.546673    0.000000
      4          1           0        1.074549   -0.527918    0.000000
      5          1           0        0.000000    0.537295    0.000000
      6          1           0       -0.000000   -0.537295    0.000000
      7          1           0       -1.074549    0.527918    0.000000
      8          1           0       -1.074549   -0.546673    0.000000
      9          1           0       -2.149099    0.518540    0.000000
     10          1           0       -2.149099   -0.556050    0.000000
 ---------------------------------------------------------------------

 SCF Done:  E(UHF) =  -4.71145788596     A.U. after    9 cycles
 E2 =    -0.5663426403D-01 EUMP2 =    -0.47680921499871D+01

 The electronic state is 5-BU.
 Alpha  occ. eigenvalues --   -0.96788  -0.83862  -0.63399  -0.58492  -0.42967
 Alpha  occ. eigenvalues --   -0.35901  -0.17877
 Alpha virt. eigenvalues --    0.24017   0.36854   0.78418
  Beta  occ. eigenvalues --   -0.79762  -0.64748  -0.42781
  Beta virt. eigenvalues --   -0.06254   0.06885   0.08774   0.31558   0.41086
  Beta virt. eigenvalues --    0.63019   0.96996

 Mulliken charges and spin densities:
               1          2
     1  H   -0.063658   0.503669
     2  H   -0.065197   0.508461
     3  H    0.075470   0.349044
     4  H    0.077724   0.356233
     5  H   -0.024338   0.282593
     6  H   -0.024338   0.282593
     7  H    0.077724   0.356233
     8  H    0.075470   0.349044
     9  H   -0.065197   0.508461
    10  H   -0.063658   0.503669
 Sum of Mulliken charges =  -0.00000   4.00000

 Dipole moment (field-independent basis, Debye):
    X=              0.0000    Y=              0.0000    Z=             -0.0000  Tot=              0.0000
 Quadrupole moment (field-independent basis, Debye-Ang):
   XX=            -20.4151   YY=            -14.4412   ZZ=            -12.5248
   XY=             -0.0500   XZ=              0.0000   YZ=              0.0000

 Normal termination of Gaussian 09 at Thu Feb 23 12:47:57 2017.
