 Gaussian 09, Revision E.01,
 Gaussian 09:  ES64L-G09RevE.01 30-Nov-2015

 ----------------------------------------------------------------------
 #uhf/gen scf(tight,novaracc,noincfock,fulldiag, ) stable(crhf) guess=r
 ead geom=nocrowd test
 ----------------------------------------------------------------------

 hf stability analysis of h10 triangular lattice, y= 1.1064166633763877
  alpha= 64.750000000000000
 ----------------------------------------------------------------------
 Symbolic Z-matrix:
 Charge =  0 Multiplicity = 5

                         Standard orientation:
 ---------------------------------------------------------------------
 Center     Atomic      Atomic             Coordinates (Angstroms)
 Number     Number       Type             X           Y           Z
 ---------------------------------------------------------------------
      1          1           0        1.887851    2.167872    0.000000
      2          1           0        1.887851    0.944576    0.000000
      3          1           0        0.943926    1.389760    0.000000
      4          1           0        0.943926    0.166464    0.000000
      5          1           0        0.000000    0.611648    0.000000
      6          1           0       -0.000000   -0.611648   -0.000000
      7          1           0       -0.943926   -0.166464    0.000000
      8          1           0       -0.943926   -1.389760   -0.000000
      9          1           0       -1.887851   -0.944576   -0.000000
     10          1           0       -1.887851   -2.167872   -0.000000
 ---------------------------------------------------------------------

 SCF Done:  E(UHF) =  -4.70115555678     A.U. after   10 cycles
 E2 =    -0.4535908419D-01 EUMP2 =    -0.47465146409680D+01

 The electronic state is 5-BU.
 Alpha  occ. eigenvalues --   -0.90874  -0.79198  -0.65199  -0.48551  -0.39651
 Alpha  occ. eigenvalues --   -0.34715  -0.16322
 Alpha virt. eigenvalues --    0.13830   0.39022   0.41760
  Beta  occ. eigenvalues --   -0.76522  -0.66276  -0.45545
  Beta virt. eigenvalues --    0.02819   0.05949   0.19582   0.25687   0.41167
  Beta virt. eigenvalues --    0.46653   0.68284

 Mulliken charges and spin densities:
               1          2
     1  H   -0.002262   0.764048
     2  H   -0.107853   0.710029
     3  H    0.073358  -0.311223
     4  H    0.073062   0.504399
     5  H   -0.036305   0.332747
     6  H   -0.036305   0.332747
     7  H    0.073062   0.504399
     8  H    0.073358  -0.311223
     9  H   -0.107853   0.710029
    10  H   -0.002262   0.764048
 Sum of Mulliken charges =  -0.00000   4.00000

 Dipole moment (field-independent basis, Debye):
    X=              0.0000    Y=             -0.0000    Z=             -0.0000  Tot=              0.0000
 Quadrupole moment (field-independent basis, Debye-Ang):
   XX=            -17.1528   YY=            -15.5281   ZZ=            -12.5916
   XY=             -1.8086   XZ=              0.0000   YZ=             -0.0000

 Normal termination of Gaussian 09 at Thu Feb 23 12:51:16 2017.
