 Gaussian 09, Revision E.01,
 Gaussian 09:  ES64L-G09RevE.01 30-Nov-2015

 ----------------------------------------------------------------------
 #uhf/gen scf(tight,novaracc,noincfock,fulldiag, ) stable(crhf) guess=r
 ead geom=nocrowd test
 ----------------------------------------------------------------------

 hf stability analysis of h10 triangular lattice, y= 0.6476646814092581
 5 alpha= 36.000000000000000
 ----------------------------------------------------------------------
 Symbolic Z-matrix:
 Charge =  0 Multiplicity = 5

                         Standard orientation:
 ---------------------------------------------------------------------
 Center     Atomic      Atomic             Coordinates (Angstroms)
 Number     Number       Type             X           Y           Z
 ---------------------------------------------------------------------
      1          1           0        2.095887   -0.130058    0.000000
      2          1           0        2.095887   -1.231931    0.000000
      3          1           0        1.047943    0.210439    0.000000
      4          1           0        1.047943   -0.891434    0.000000
      5          1           0       -0.000000    0.550936    0.000000
      6          1           0       -0.000000   -0.550936    0.000000
      7          1           0       -1.047943    0.891434    0.000000
      8          1           0       -1.047943   -0.210439    0.000000
      9          1           0       -2.095887    1.231931    0.000000
     10          1           0       -2.095887    0.130058    0.000000
 ---------------------------------------------------------------------

 SCF Done:  E(UHF) =  -4.71229091024     A.U. after   11 cycles
 E2 =    -0.5666840931D-01 EUMP2 =    -0.47689593195440D+01

 The electronic state is 5-BU.
 Alpha  occ. eigenvalues --   -0.95627  -0.82928  -0.63720  -0.55834  -0.40741
 Alpha  occ. eigenvalues --   -0.37181  -0.16762
 Alpha virt. eigenvalues --    0.21514   0.36895   0.65825
  Beta  occ. eigenvalues --   -0.78923  -0.64699  -0.43417
  Beta virt. eigenvalues --   -0.03815   0.05026   0.11466   0.34371   0.36845
  Beta virt. eigenvalues --    0.64080   0.82339

 Mulliken charges and spin densities:
               1          2
     1  H   -0.086797   0.609817
     2  H   -0.019284   0.469103
     3  H    0.095583   0.444594
     4  H    0.031954   0.178469
     5  H   -0.021457   0.298017
     6  H   -0.021457   0.298017
     7  H    0.031954   0.178469
     8  H    0.095583   0.444594
     9  H   -0.019284   0.469103
    10  H   -0.086797   0.609817
 Sum of Mulliken charges =  -0.00000   4.00000

 Dipole moment (field-independent basis, Debye):
    X=              0.0000    Y=              0.0000    Z=              0.0000  Tot=              0.0000
 Quadrupole moment (field-independent basis, Debye-Ang):
   XX=            -19.0394   YY=            -14.8988   ZZ=            -12.5583
   XY=              1.1174   XZ=              0.0000   YZ=              0.0000

 Normal termination of Gaussian 09 at Thu Feb 23 12:46:22 2017.
