 Gaussian 09, Revision E.01,
 Gaussian 09:  ES64L-G09RevE.01 30-Nov-2015

 ----------------------------------------------------------------------
 #rhf/gen scf(symm,tight,novaracc,noincfock,fulldiag) stable(crhf) gues
 s=read geom=nocrowd test
 ----------------------------------------------------------------------

 ----------------------------------------------------------------------
 hf stability analysis of h8 triangular lattice, y= 0.74668647900714824
 ----------------------------------------------------------------------
 Symbolic Z-matrix:
 Charge =  0 Multiplicity = 1

                         Standard orientation:
 ---------------------------------------------------------------------
 Center     Atomic      Atomic             Coordinates (Angstroms)
 Number     Number       Type             X           Y           Z
 ---------------------------------------------------------------------
      1          1           0        0.773216    1.493373   -0.000000
      2          1           0        1.546433    0.746686   -0.000000
      3          1           0        0.000000    0.746686   -0.000000
      4          1           0        0.773216    0.000000   -0.000000
      5          1           0       -0.773216    0.000000   -0.000000
      6          1           0       -0.000000   -0.746686   -0.000000
      7          1           0       -1.546433   -0.746686   -0.000000
      8          1           0       -0.773216   -1.493373   -0.000000
 ---------------------------------------------------------------------

 SCF Done:  E(RHF) =  -3.97757837741     A.U. after    8 cycles
 E2 =    -0.8287960307D-01 EUMP2 =    -0.40604579804763D+01

 The electronic state is 1-AG.
 Alpha  occ. eigenvalues --   -0.85230  -0.66461  -0.41065  -0.39671
 Alpha virt. eigenvalues --    0.03909   0.26337   0.37024   0.83626

 Mulliken charges:
               1
     1  H    0.031140
     2  H    0.010311
     3  H   -0.037725
     4  H   -0.003727
     5  H   -0.003727
     6  H   -0.037725
     7  H    0.010311
     8  H    0.031140
 Sum of Mulliken charges =   0.00000

 Dipole moment (field-independent basis, Debye):
    X=              0.0000    Y=              0.0000    Z=             -0.0000  Tot=              0.0000
 Quadrupole moment (field-independent basis, Debye-Ang):
   XX=            -11.6199   YY=            -11.4630   ZZ=            -10.4395
   XY=              0.1433   XZ=              0.0000   YZ=              0.0000

 Normal termination of Gaussian 09 at Fri Feb 10 11:31:56 2017.
