 Gaussian 09, Revision E.01,
 Gaussian 09:  ES64L-G09RevE.01 30-Nov-2015

 ----------------------------------------------------------------------
 #rhf/gen scf(symm,tight,novaracc,noincfock,fulldiag) stable(crhf) gues
 s=read geom=nocrowd test
 ----------------------------------------------------------------------

 ---------------------------------------------------------------------
 hf stability analysis of h8 triangular lattice, y= 1.0644781770328475
 ---------------------------------------------------------------------
 Symbolic Z-matrix:
 Charge =  0 Multiplicity = 1

                         Standard orientation:
 ---------------------------------------------------------------------
 Center     Atomic      Atomic             Coordinates (Angstroms)
 Number     Number       Type             X           Y           Z
 ---------------------------------------------------------------------
      1          1           0        2.128956    0.542379   -0.000000
      2          1           0        1.064478    1.084757   -0.000000
      3          1           0        1.064478    0.000000   -0.000000
      4          1           0        0.000000    0.542379    0.000000
      5          1           0       -0.000000   -0.542379    0.000000
      6          1           0       -1.064478    0.000000   -0.000000
      7          1           0       -1.064478   -1.084757   -0.000000
      8          1           0       -2.128956   -0.542379   -0.000000
 ---------------------------------------------------------------------

 SCF Done:  E(RHF) =  -3.92326832210     A.U. after    9 cycles
 E2 =    -0.8375614526D-01 EUMP2 =    -0.40070244673537D+01

 The electronic state is 1-AG.
 Alpha  occ. eigenvalues --   -0.81442  -0.66612  -0.41326  -0.30465
 Alpha virt. eigenvalues --    0.10652   0.10673   0.44254   0.49559

 Mulliken charges:
               1
     1  H   -0.012864
     2  H    0.081449
     3  H    0.155497
     4  H   -0.224083
     5  H   -0.224083
     6  H    0.155497
     7  H    0.081449
     8  H   -0.012864
 Sum of Mulliken charges =  -0.00000

 Dipole moment (field-independent basis, Debye):
    X=             -0.0000    Y=              0.0000    Z=             -0.0000  Tot=              0.0000
 Quadrupole moment (field-independent basis, Debye-Ang):
   XX=             -9.5182   YY=            -11.8199   ZZ=            -10.5785
   XY=              1.3249   XZ=              0.0000   YZ=             -0.0000

 Normal termination of Gaussian 09 at Fri Feb 10 11:32:33 2017.
