 Gaussian 09, Revision E.01,
 Gaussian 09:  ES64L-G09RevE.01 30-Nov-2015

 ----------------------------------------------------------------------
 #rhf/gen scf(symm,tight,novaracc,noincfock,fulldiag) stable(crhf) gues
 s=read geom=nocrowd test
 ----------------------------------------------------------------------

 ----------------------------------------------------------------------
 hf stability analysis of h8 triangular lattice, y= 0.36509151747647400
 ----------------------------------------------------------------------
 Symbolic Z-matrix:
 Charge =  0 Multiplicity = 1

                         Standard orientation:
 ---------------------------------------------------------------------
 Center     Atomic      Atomic             Coordinates (Angstroms)
 Number     Number       Type             X           Y           Z
 ---------------------------------------------------------------------
      1          1           0        1.581385    0.730183    0.000000
      2          1           0        3.162770    0.365092    0.000000
      3          1           0        0.000000    0.365092    0.000000
      4          1           0        1.581385    0.000000    0.000000
      5          1           0       -1.581385    0.000000    0.000000
      6          1           0       -0.000000   -0.365092   -0.000000
      7          1           0       -3.162770   -0.365092    0.000000
      8          1           0       -1.581385   -0.730183    0.000000
 ---------------------------------------------------------------------

 SCF Done:  E(RHF) =  -3.88450540036     A.U. after    8 cycles
 E2 =    -0.3379482216D+00 EUMP2 =    -0.42224536219218D+01

 The electronic state is 1-AG.
 Alpha  occ. eigenvalues --   -0.76584  -0.67491  -0.54704  -0.17948
 Alpha virt. eigenvalues --   -0.07250   0.24150   0.39644   0.58692

 Mulliken charges:
               1
     1  H    0.031006
     2  H   -0.086411
     3  H    0.018536
     4  H    0.036869
     5  H    0.036869
     6  H    0.018536
     7  H   -0.086411
     8  H    0.031006
 Sum of Mulliken charges =   0.00000

 Dipole moment (field-independent basis, Debye):
    X=              0.0000    Y=              0.0000    Z=             -0.0000  Tot=              0.0000
 Quadrupole moment (field-independent basis, Debye-Ang):
   XX=            -20.7830   YY=             -9.2803   ZZ=            -10.4703
   XY=             -1.2089   XZ=             -0.0000   YZ=             -0.0000

 Normal termination of Gaussian 09 at Fri Feb 10 11:31:01 2017.
