 Gaussian 09, Revision E.01,
 Gaussian 09:  ES64L-G09RevE.01 30-Nov-2015

 ----------------------------------------------------------------------
 #rhf/gen scf(symm,tight,novaracc,noincfock,fulldiag) stable(crhf) gues
 s=read geom=nocrowd test
 ----------------------------------------------------------------------

 ---------------------------------------------------------------------
 hf stability analysis of h8 triangular lattice, y= 1.7234297938777567
 ---------------------------------------------------------------------
 Symbolic Z-matrix:
 Charge =  0 Multiplicity = 1

                         Standard orientation:
 ---------------------------------------------------------------------
 Center     Atomic      Atomic             Coordinates (Angstroms)
 Number     Number       Type             X           Y           Z
 ---------------------------------------------------------------------
      1          1           0        3.446860    0.335001   -0.000000
      2          1           0        1.723430    0.670002   -0.000000
      3          1           0        1.723430    0.000000   -0.000000
      4          1           0        0.000000    0.335001    0.000000
      5          1           0       -0.000000   -0.335001    0.000000
      6          1           0       -1.723430    0.000000   -0.000000
      7          1           0       -1.723430   -0.670002    0.000000
      8          1           0       -3.446860   -0.335001   -0.000000
 ---------------------------------------------------------------------

 SCF Done:  E(RHF) =  -3.87891174059     A.U. after    7 cycles
 E2 =    -0.4462212757D+00 EUMP2 =    -0.43251330163045D+01

 The electronic state is 1-AG.
 Alpha  occ. eigenvalues --   -0.74567  -0.67628  -0.57936  -0.19274
 Alpha virt. eigenvalues --   -0.10591   0.31484   0.45030   0.61985

 Mulliken charges:
               1
     1  H   -0.040012
     2  H    0.015493
     3  H    0.016628
     4  H    0.007891
     5  H    0.007891
     6  H    0.016628
     7  H    0.015493
     8  H   -0.040012
 Sum of Mulliken charges =  -0.00000

 Dipole moment (field-independent basis, Debye):
    X=              0.0000    Y=             -0.0000    Z=              0.0000  Tot=              0.0000
 Quadrupole moment (field-independent basis, Debye-Ang):
   XX=            -17.4204   YY=             -9.4625   ZZ=            -10.5273
   XY=             -0.6991   XZ=              0.0000   YZ=             -0.0000

 Normal termination of Gaussian 09 at Fri Feb 10 11:33:03 2017.
