 Gaussian 09, Revision E.01,
 Gaussian 09:  ES64L-G09RevE.01 30-Nov-2015

 ----------------------------------------------------------------------
 #rhf/gen scf(symm,tight,novaracc,noincfock,fulldiag) stable(crhf) gues
 s=read geom=nocrowd test
 ----------------------------------------------------------------------

 ----------------------------------------------------------------------
 hf stability analysis of h8 triangular lattice, y= 0.68376095798003989
 ----------------------------------------------------------------------
 Symbolic Z-matrix:
 Charge =  0 Multiplicity = 1

                         Standard orientation:
 ---------------------------------------------------------------------
 Center     Atomic      Atomic             Coordinates (Angstroms)
 Number     Number       Type             X           Y           Z
 ---------------------------------------------------------------------
      1          1           0        0.844374    1.367522    0.000000
      2          1           0        1.688749    0.683761    0.000000
      3          1           0        0.000000    0.683761    0.000000
      4          1           0        0.844374    0.000000    0.000000
      5          1           0       -0.844374    0.000000   -0.000000
      6          1           0       -0.000000   -0.683761   -0.000000
      7          1           0       -1.688749   -0.683761   -0.000000
      8          1           0       -0.844374   -1.367522   -0.000000
 ---------------------------------------------------------------------

 SCF Done:  E(RHF) =  -3.97749909914     A.U. after    9 cycles
 E2 =    -0.8130981253D-01 EUMP2 =    -0.40588089116693D+01

 The electronic state is 1-AG.
 Alpha  occ. eigenvalues --   -0.84879  -0.66577  -0.40011  -0.39899
 Alpha virt. eigenvalues --    0.04617   0.23387   0.39534   0.77805

 Mulliken charges:
               1
     1  H    0.079617
     2  H   -0.031030
     3  H   -0.119758
     4  H    0.071171
     5  H    0.071171
     6  H   -0.119758
     7  H   -0.031030
     8  H    0.079617
 Sum of Mulliken charges =  -0.00000

 Dipole moment (field-independent basis, Debye):
    X=              0.0000    Y=              0.0000    Z=             -0.0000  Tot=              0.0000
 Quadrupole moment (field-independent basis, Debye-Ang):
   XX=            -11.8609   YY=            -11.1627   ZZ=            -10.4590
   XY=              0.3674   XZ=             -0.0000   YZ=              0.0000

 Normal termination of Gaussian 09 at Fri Feb 10 11:31:47 2017.
