 Gaussian 09, Revision E.01,
 Gaussian 09:  ES64L-G09RevE.01 30-Nov-2015

 ----------------------------------------------------------------------
 #rhf/gen scf(symm,tight,novaracc,noincfock,fulldiag) stable(crhf) gues
 s=read geom=nocrowd test
 ----------------------------------------------------------------------

 ----------------------------------------------------------------------
 hf stability analysis of h8 triangular lattice, y= 0.65959430708758449
 ----------------------------------------------------------------------
 Symbolic Z-matrix:
 Charge =  0 Multiplicity = 1

                         Standard orientation:
 ---------------------------------------------------------------------
 Center     Atomic      Atomic             Coordinates (Angstroms)
 Number     Number       Type             X           Y           Z
 ---------------------------------------------------------------------
      1          1           0        0.875311    1.319189    0.000000
      2          1           0        1.750622    0.659594    0.000000
      3          1           0       -0.000000    0.659594    0.000000
      4          1           0        0.875311    0.000000    0.000000
      5          1           0       -0.875311    0.000000    0.000000
      6          1           0       -0.000000   -0.659594    0.000000
      7          1           0       -1.750622   -0.659594    0.000000
      8          1           0       -0.875311   -1.319189    0.000000
 ---------------------------------------------------------------------

 SCF Done:  E(RHF) =  -3.97634958509     A.U. after    9 cycles
 E2 =    -0.8050280855D-01 EUMP2 =    -0.40568523936383D+01

 The electronic state is 1-AG.
 Alpha  occ. eigenvalues --   -0.84583  -0.66645  -0.40072  -0.39148
 Alpha virt. eigenvalues --    0.05201   0.21550   0.41038   0.73524

 Mulliken charges:
               1
     1  H    0.093457
     2  H   -0.039929
     3  H   -0.147752
     4  H    0.094223
     5  H    0.094223
     6  H   -0.147752
     7  H   -0.039929
     8  H    0.093457
 Sum of Mulliken charges =  -0.00000

 Dipole moment (field-independent basis, Debye):
    X=             -0.0000    Y=              0.0000    Z=              0.0000  Tot=              0.0000
 Quadrupole moment (field-independent basis, Debye-Ang):
   XX=            -11.8144   YY=            -11.1296   ZZ=            -10.4737
   XY=              0.5272   XZ=             -0.0000   YZ=              0.0000

 Normal termination of Gaussian 09 at Fri Feb 10 11:31:43 2017.
