 Gaussian 09, Revision E.01,
 Gaussian 09:  ES64L-G09RevE.01 30-Nov-2015

 ----------------------------------------------------------------------
 #rhf/gen scf(symm,tight,novaracc,noincfock,fulldiag) stable(crhf) gues
 s=read geom=nocrowd test
 ----------------------------------------------------------------------

 ----------------------------------------------------------------------
 hf stability analysis of h8 triangular lattice, y= 0.47076959408630886
 ----------------------------------------------------------------------
 Symbolic Z-matrix:
 Charge =  0 Multiplicity = 1

                         Standard orientation:
 ---------------------------------------------------------------------
 Center     Atomic      Atomic             Coordinates (Angstroms)
 Number     Number       Type             X           Y           Z
 ---------------------------------------------------------------------
      1          1           0        1.226397    0.941539   -0.000000
      2          1           0        2.452793    0.470770   -0.000000
      3          1           0        0.000000    0.470770   -0.000000
      4          1           0        1.226397    0.000000   -0.000000
      5          1           0       -1.226397    0.000000   -0.000000
      6          1           0       -0.000000   -0.470770    0.000000
      7          1           0       -2.452793   -0.470770   -0.000000
      8          1           0       -1.226397   -0.941539   -0.000000
 ---------------------------------------------------------------------

 SCF Done:  E(RHF) =  -3.83225647273     A.U. after   10 cycles
 E2 =    -0.1018171376D+00 EUMP2 =    -0.39340736102880D+01

 The electronic state is 1-AG.
 Alpha  occ. eigenvalues --   -0.79964  -0.66958  -0.43518  -0.21908
 Alpha virt. eigenvalues --    0.07003   0.11150   0.28463   0.52432

 Mulliken charges:
               1
     1  H    0.042531
     2  H   -0.072693
     3  H   -0.161284
     4  H    0.191446
     5  H    0.191446
     6  H   -0.161284
     7  H   -0.072693
     8  H    0.042531
 Sum of Mulliken charges =   0.00000

 Dipole moment (field-independent basis, Debye):
    X=              0.0000    Y=              0.0000    Z=             -0.0000  Tot=              0.0000
 Quadrupole moment (field-independent basis, Debye-Ang):
   XX=            -13.0585   YY=            -11.3903   ZZ=            -10.5581
   XY=              0.0113   XZ=             -0.0000   YZ=              0.0000

 Normal termination of Gaussian 09 at Fri Feb 10 11:31:13 2017.
