 Gaussian 09, Revision E.01,
 Gaussian 09:  ES64L-G09RevE.01 30-Nov-2015

 ----------------------------------------------------------------------
 #rhf/gen scf(symm,tight,novaracc,noincfock,fulldiag) stable(crhf) gues
 s=read geom=nocrowd test
 ----------------------------------------------------------------------

 ----------------------------------------------------------------------
 hf stability analysis of h8 triangular lattice, y= 0.67162153325915808
 ----------------------------------------------------------------------
 Symbolic Z-matrix:
 Charge =  0 Multiplicity = 1

                         Standard orientation:
 ---------------------------------------------------------------------
 Center     Atomic      Atomic             Coordinates (Angstroms)
 Number     Number       Type             X           Y           Z
 ---------------------------------------------------------------------
      1          1           0        0.859636    1.343243    0.000000
      2          1           0        1.719273    0.671622   -0.000000
      3          1           0       -0.000000    0.671622    0.000000
      4          1           0        0.859636    0.000000   -0.000000
      5          1           0       -0.859636    0.000000   -0.000000
      6          1           0       -0.000000   -0.671622    0.000000
      7          1           0       -1.719273   -0.671622   -0.000000
      8          1           0       -0.859636   -1.343243    0.000000
 ---------------------------------------------------------------------

 SCF Done:  E(RHF) =  -3.97708408066     A.U. after    9 cycles
 E2 =    -0.8089067665D-01 EUMP2 =    -0.40579747573140D+01

 The electronic state is 1-AG.
 Alpha  occ. eigenvalues --   -0.84743  -0.66611  -0.39980  -0.39612
 Alpha virt. eigenvalues --    0.04887   0.22497   0.40268   0.75779

 Mulliken charges:
               1
     1  H    0.087099
     2  H   -0.036136
     3  H   -0.134235
     4  H    0.083273
     5  H    0.083273
     6  H   -0.134235
     7  H   -0.036136
     8  H    0.087099
 Sum of Mulliken charges =   0.00000

 Dipole moment (field-independent basis, Debye):
    X=              0.0000    Y=             -0.0000    Z=             -0.0000  Tot=              0.0000
 Quadrupole moment (field-independent basis, Debye-Ang):
   XX=            -11.8517   YY=            -11.1384   ZZ=            -10.4659
   XY=              0.4437   XZ=              0.0000   YZ=             -0.0000

 Normal termination of Gaussian 09 at Fri Feb 10 11:31:45 2017.
