 Gaussian 09, Revision E.01,
 Gaussian 09:  ES64L-G09RevE.01 30-Nov-2015

 ----------------------------------------------------------------------
 #rhf/gen scf(symm,tight,novaracc,noincfock,fulldiag) stable(crhf) gues
 s=read geom=nocrowd test
 ----------------------------------------------------------------------

 ---------------------------------------------------------------------
 hf stability analysis of h8 triangular lattice, y= 2.0268354180156947
 ---------------------------------------------------------------------
 Symbolic Z-matrix:
 Charge =  0 Multiplicity = 1

                         Standard orientation:
 ---------------------------------------------------------------------
 Center     Atomic      Atomic             Coordinates (Angstroms)
 Number     Number       Type             X           Y           Z
 ---------------------------------------------------------------------
      1          1           0        4.053671    0.284853   -0.000000
      2          1           0        2.026835    0.569706   -0.000000
      3          1           0        2.026835    0.000000   -0.000000
      4          1           0        0.000000    0.284853    0.000000
      5          1           0       -0.000000   -0.284853    0.000000
      6          1           0       -2.026835    0.000000   -0.000000
      7          1           0       -2.026835   -0.569706   -0.000000
      8          1           0       -4.053671   -0.284853   -0.000000
 ---------------------------------------------------------------------

 SCF Done:  E(RHF) =  -3.76806320791     A.U. after    7 cycles
 E2 =    -0.6185982637D+00 EUMP2 =    -0.43866614715992D+01

 The electronic state is 1-AG.
 Alpha  occ. eigenvalues --   -0.73096  -0.69265  -0.64334  -0.20710
 Alpha virt. eigenvalues --   -0.14030   0.44085   0.54210   0.66528

 Mulliken charges:
               1
     1  H   -0.004603
     2  H    0.002696
     3  H    0.001094
     4  H    0.000813
     5  H    0.000813
     6  H    0.001094
     7  H    0.002696
     8  H   -0.004603
 Sum of Mulliken charges =  -0.00000

 Dipole moment (field-independent basis, Debye):
    X=              0.0000    Y=             -0.0000    Z=              0.0000  Tot=              0.0000
 Quadrupole moment (field-independent basis, Debye-Ang):
   XX=            -13.5367   YY=             -9.8334   ZZ=            -10.6612
   XY=             -0.2221   XZ=              0.0000   YZ=             -0.0000

 Normal termination of Gaussian 09 at Fri Feb 10 11:33:08 2017.
