 Gaussian 09, Revision E.01,
 Gaussian 09:  ES64L-G09RevE.01 30-Nov-2015

 ----------------------------------------------------------------------
 #rhf/gen scf(symm,tight,novaracc,noincfock,fulldiag) stable(crhf) gues
 s=read geom=nocrowd test
 ----------------------------------------------------------------------

 ----------------------------------------------------------------------
 hf stability analysis of h8 triangular lattice, y= 0.48297479998608267
 ----------------------------------------------------------------------
 Symbolic Z-matrix:
 Charge =  0 Multiplicity = 1

                         Standard orientation:
 ---------------------------------------------------------------------
 Center     Atomic      Atomic             Coordinates (Angstroms)
 Number     Number       Type             X           Y           Z
 ---------------------------------------------------------------------
      1          1           0        1.195405    0.965950    0.000000
      2          1           0        2.390809    0.482975    0.000000
      3          1           0        0.000000    0.482975    0.000000
      4          1           0        1.195405    0.000000    0.000000
      5          1           0       -1.195405    0.000000   -0.000000
      6          1           0       -0.000000   -0.482975   -0.000000
      7          1           0       -2.390809   -0.482975   -0.000000
      8          1           0       -1.195405   -0.965950   -0.000000
 ---------------------------------------------------------------------

 SCF Done:  E(RHF) =  -3.84621278898     A.U. after   11 cycles
 E2 =    -0.9718889396D-01 EUMP2 =    -0.39434016829426D+01

 The electronic state is 1-AG.
 Alpha  occ. eigenvalues --   -0.79873  -0.66719  -0.42752  -0.23455
 Alpha virt. eigenvalues --    0.06844   0.12304   0.30015   0.52473

 Mulliken charges:
               1
     1  H    0.041343
     2  H   -0.041580
     3  H   -0.191443
     4  H    0.191680
     5  H    0.191680
     6  H   -0.191443
     7  H   -0.041580
     8  H    0.041343
 Sum of Mulliken charges =  -0.00000

 Dipole moment (field-independent basis, Debye):
    X=              0.0000    Y=             -0.0000    Z=             -0.0000  Tot=              0.0000
 Quadrupole moment (field-independent basis, Debye-Ang):
   XX=            -10.9441   YY=            -11.7605   ZZ=            -10.5817
   XY=              0.5225   XZ=              0.0000   YZ=             -0.0000

 Normal termination of Gaussian 09 at Fri Feb 10 11:31:15 2017.
