 Gaussian 09, Revision E.01,
 Gaussian 09:  ES64L-G09RevE.01 30-Nov-2015

 ----------------------------------------------------------------------
 #rhf/gen scf(symm,tight,novaracc,noincfock,fulldiag) stable(crhf) gues
 s=read geom=nocrowd test
 ----------------------------------------------------------------------

 ----------------------------------------------------------------------
 hf stability analysis of h8 triangular lattice, y= 0.90804277598219907
 ----------------------------------------------------------------------
 Symbolic Z-matrix:
 Charge =  0 Multiplicity = 1

                         Standard orientation:
 ---------------------------------------------------------------------
 Center     Atomic      Atomic             Coordinates (Angstroms)
 Number     Number       Type             X           Y           Z
 ---------------------------------------------------------------------
      1          1           0        1.816086    0.635818    0.000000
      2          1           0        0.908043    1.271637    0.000000
      3          1           0        0.908043    0.000000    0.000000
      4          1           0        0.000000    0.635818    0.000000
      5          1           0       -0.000000   -0.635818    0.000000
      6          1           0       -0.908043    0.000000   -0.000000
      7          1           0       -0.908043   -1.271637   -0.000000
      8          1           0       -1.816086   -0.635818   -0.000000
 ---------------------------------------------------------------------

 SCF Done:  E(RHF) =  -3.97348638625     A.U. after    9 cycles
 E2 =    -0.7993644265D-01 EUMP2 =    -0.40534228288991D+01

 The electronic state is 1-AG.
 Alpha  occ. eigenvalues --   -0.84183  -0.66705  -0.40283  -0.38015
 Alpha virt. eigenvalues --    0.05965   0.19527   0.42654   0.68443

 Mulliken charges:
               1
     1  H   -0.043403
     2  H    0.102360
     3  H    0.112647
     4  H   -0.171604
     5  H   -0.171604
     6  H    0.112647
     7  H    0.102360
     8  H   -0.043403
 Sum of Mulliken charges =   0.00000

 Dipole moment (field-independent basis, Debye):
    X=              0.0000    Y=              0.0000    Z=              0.0000  Tot=              0.0000
 Quadrupole moment (field-independent basis, Debye-Ang):
   XX=            -11.6424   YY=            -11.1608   ZZ=            -10.4915
   XY=              0.7094   XZ=             -0.0000   YZ=              0.0000

 Normal termination of Gaussian 09 at Fri Feb 10 11:32:18 2017.
