 Gaussian 09, Revision E.01,
 Gaussian 09:  ES64L-G09RevE.01 30-Nov-2015

 ----------------------------------------------------------------------
 #rhf/gen scf(symm,tight,novaracc,noincfock,fulldiag) stable(crhf) gues
 s=read geom=nocrowd test
 ----------------------------------------------------------------------

 ----------------------------------------------------------------------
 hf stability analysis of h8 triangular lattice, y= 0.58898815944976501
 ----------------------------------------------------------------------
 Symbolic Z-matrix:
 Charge =  0 Multiplicity = 1

                         Standard orientation:
 ---------------------------------------------------------------------
 Center     Atomic      Atomic             Coordinates (Angstroms)
 Number     Number       Type             X           Y           Z
 ---------------------------------------------------------------------
      1          1           0        0.980241    1.177976   -0.000000
      2          1           0        1.960482    0.588988   -0.000000
      3          1           0        0.000000    0.588988   -0.000000
      4          1           0        0.980241    0.000000    0.000000
      5          1           0       -0.980241    0.000000   -0.000000
      6          1           0       -0.000000   -0.588988   -0.000000
      7          1           0       -1.960482   -0.588988   -0.000000
      8          1           0       -0.980241   -1.177976   -0.000000
 ---------------------------------------------------------------------

 SCF Done:  E(RHF) =  -3.95852380596     A.U. after    9 cycles
 E2 =    -0.8031364349D-01 EUMP2 =    -0.40388374494502D+01

 The electronic state is 1-AG.
 Alpha  occ. eigenvalues --   -0.83039  -0.66741  -0.40779  -0.34872
 Alpha virt. eigenvalues --    0.08036   0.15152   0.46072   0.56756

 Mulliken charges:
               1
     1  H    0.103269
     2  H   -0.034645
     3  H   -0.206085
     4  H    0.137462
     5  H    0.137462
     6  H   -0.206085
     7  H   -0.034645
     8  H    0.103269
 Sum of Mulliken charges =  -0.00000

 Dipole moment (field-independent basis, Debye):
    X=              0.0000    Y=              0.0000    Z=             -0.0000  Tot=              0.0000
 Quadrupole moment (field-independent basis, Debye-Ang):
   XX=            -10.8440   YY=            -11.4079   ZZ=            -10.5338
   XY=              1.0815   XZ=              0.0000   YZ=              0.0000

 Normal termination of Gaussian 09 at Fri Feb 10 11:31:32 2017.
