 Gaussian 09, Revision E.01,
 Gaussian 09:  ES64L-G09RevE.01 30-Nov-2015

 ----------------------------------------------------------------------
 #rhf/gen scf(symm,tight,novaracc,noincfock,fulldiag) stable(crhf) gues
 s=read geom=nocrowd test
 ----------------------------------------------------------------------

 ---------------------------------------------------------------------
 hf stability analysis of h8 triangular lattice, y= 1.8095073443210954
 ---------------------------------------------------------------------
 Symbolic Z-matrix:
 Charge =  0 Multiplicity = 1

                         Standard orientation:
 ---------------------------------------------------------------------
 Center     Atomic      Atomic             Coordinates (Angstroms)
 Number     Number       Type             X           Y           Z
 ---------------------------------------------------------------------
      1          1           0        3.619015    0.319065   -0.000000
      2          1           0        1.809507    0.638130    0.000000
      3          1           0        1.809507    0.000000   -0.000000
      4          1           0       -0.000000    0.319065    0.000000
      5          1           0       -0.000000   -0.319065    0.000000
      6          1           0       -1.809507    0.000000   -0.000000
      7          1           0       -1.809507   -0.638130    0.000000
      8          1           0       -3.619015   -0.319065   -0.000000
 ---------------------------------------------------------------------

 SCF Done:  E(RHF) =  -3.85987713499     A.U. after    7 cycles
 E2 =    -0.5035000373D+00 EUMP2 =    -0.43633771723139D+01

 The electronic state is 1-AG.
 Alpha  occ. eigenvalues --   -0.73836  -0.67953  -0.59865  -0.19856
 Alpha virt. eigenvalues --   -0.11949   0.35418   0.47910   0.63522

 Mulliken charges:
               1
     1  H   -0.023565
     2  H    0.009758
     3  H    0.009485
     4  H    0.004322
     5  H    0.004322
     6  H    0.009485
     7  H    0.009758
     8  H   -0.023565
 Sum of Mulliken charges =  -0.00000

 Dipole moment (field-independent basis, Debye):
    X=             -0.0000    Y=             -0.0000    Z=              0.0000  Tot=              0.0000
 Quadrupole moment (field-independent basis, Debye-Ang):
   XX=            -15.9029   YY=             -9.5741   ZZ=            -10.5653
   XY=             -0.4994   XZ=              0.0000   YZ=             -0.0000

 Normal termination of Gaussian 09 at Fri Feb 10 11:33:05 2017.
