 Gaussian 09, Revision E.01,
 Gaussian 09:  ES64L-G09RevE.01 30-Nov-2015

 ----------------------------------------------------------------------
 #rhf/gen scf(symm,tight,novaracc,noincfock,fulldiag) stable(crhf) gues
 s=read geom=nocrowd test
 ----------------------------------------------------------------------

 ----------------------------------------------------------------------
 hf stability analysis of h10 triangular lattice, y= 2.5688804782633659
 ----------------------------------------------------------------------
 Symbolic Z-matrix:
 Charge =  0 Multiplicity = 1

                         Standard orientation:
 ---------------------------------------------------------------------
 Center     Atomic      Atomic             Coordinates (Angstroms)
 Number     Number       Type             X           Y           Z
 ---------------------------------------------------------------------
      1          1           0        0.000000    0.224748    5.137761
      2          1           0        0.000000    0.449496    2.568880
      3          1           0        0.000000    0.000000    2.568880
      4          1           0        0.000000    0.224748    0.000000
      5          1           0        0.000000    0.000000   -2.568880
      6          1           0       -0.000000   -0.224748   -5.137761
      7          1           0       -0.000000   -0.224748   -0.000000
      8          1           0       -0.000000   -0.449496   -2.568880
      9          1           0       -0.000000   -0.224748    5.137761
     10          1           0       -0.000000   -0.449496    2.568880
     11          1           0        0.000000    0.449496   -2.568880
     12          1           0        0.000000    0.224748   -5.137761
 ---------------------------------------------------------------------

 SCF Done:  E(RHF) =  -4.18461475994     A.U. after    8 cycles
 E2 =    -0.2953946716D+00 EUMP2 =    -0.44800094315319D+01

 The electronic state is 1-AG.
 Alpha  occ. eigenvalues --   -0.95385  -0.95136  -0.73429  -0.73312  -0.73311
 Alpha  occ. eigenvalues --   -0.09826
 Alpha virt. eigenvalues --    0.00501   0.66269   0.66615   0.67505   1.66926
 Alpha virt. eigenvalues --    1.66961

 Mulliken charges:
               1
     1  H   -0.001228
     2  H    0.385394
     3  H   -0.762461
     4  H   -0.005871
     5  H   -0.762461
     6  H   -0.001228
     7  H   -0.005871
     8  H    0.385394
     9  H   -0.001228
    10  H    0.385394
    11  H    0.385394
    12  H   -0.001228
 Sum of Mulliken charges =   0.00000

 Dipole moment (field-independent basis, Debye):
    X=             -0.0000    Y=              0.0000    Z=              0.0000  Tot=              0.0000
 Quadrupole moment (field-independent basis, Debye-Ang):
   XX=            -15.4673   YY=            -16.4413   ZZ=            -16.6926
   XY=             -0.0000   XZ=              0.0000   YZ=              0.0000

 Normal termination of Gaussian 09 at Fri Feb 17 15:18:13 2017.
