 Gaussian 09, Revision E.01,
 Gaussian 09:  ES64L-G09RevE.01 30-Nov-2015

 ----------------------------------------------------------------------
 #rhf/gen scf(symm,tight,novaracc,noincfock,fulldiag) stable(crhf) gues
 s=read geom=nocrowd test
 ----------------------------------------------------------------------

 ----------------------------------------------------------------------
 hf stability analysis of h12 triangular lattice, y= 2.3437412473608381
 ----------------------------------------------------------------------
 Symbolic Z-matrix:
 Charge =  0 Multiplicity = 1

                         Standard orientation:
 ---------------------------------------------------------------------
 Center     Atomic      Atomic             Coordinates (Angstroms)
 Number     Number       Type             X           Y           Z
 ---------------------------------------------------------------------
      1          1           0        0.489975    5.840130   -0.000000
      2          1           0        0.000000    3.534977    0.000000
      3          1           0        0.489975    3.483478   -0.000000
      4          1           0        0.000000    1.178326    0.000000
      5          1           0       -0.489975    1.229824    0.000000
      6          1           0       -0.489975   -1.126827    0.000000
      7          1           0       -0.489975   -3.483478    0.000000
      8          1           0       -0.000000   -1.178326    0.000000
      9          1           0        0.489975    1.126827    0.000000
     10          1           0        0.489975   -1.229824    0.000000
     11          1           0       -0.000000   -3.534977    0.000000
     12          1           0       -0.489975   -5.840130    0.000000
 ---------------------------------------------------------------------

 SCF Done:  E(RHF) =  -4.59462476116     A.U. after   11 cycles
 E2 =    -0.7766979573D+00 EUMP2 =    -0.53713227184571D+01

 The electronic state is 1-AG.
 Alpha  occ. eigenvalues --   -0.97980  -0.96583  -0.72423  -0.72406  -0.23269
 Alpha  occ. eigenvalues --   -0.18739
 Alpha virt. eigenvalues --   -0.13683   0.02258   0.61526   0.61713   1.36917
 Alpha virt. eigenvalues --    1.48440

 Mulliken charges:
               1
     1  H   -0.094701
     2  H   -0.002863
     3  H   -0.001542
     4  H   -0.638307
     5  H    0.367790
     6  H    0.369623
     7  H   -0.001542
     8  H   -0.638307
     9  H    0.369623
    10  H    0.367790
    11  H   -0.002863
    12  H   -0.094701
 Sum of Mulliken charges =  -0.00000

 Dipole moment (field-independent basis, Debye):
    X=              0.0000    Y=             -0.0000    Z=              0.0000  Tot=              0.0000
 Quadrupole moment (field-independent basis, Debye-Ang):
   XX=            -16.3854   YY=            -47.0367   ZZ=            -15.5643
   XY=             -2.8603   XZ=              0.0000   YZ=              0.0000

 Normal termination of Gaussian 09 at Fri Feb 17 15:09:40 2017.
