 Gaussian 09, Revision E.01,
 Gaussian 09:  ES64L-G09RevE.01 30-Nov-2015

 ----------------------------------------------------------------------
 #rhf/gen scf(symm,tight,novaracc,noincfock,fulldiag) stable(crhf) gues
 s=read geom=nocrowd test
 ----------------------------------------------------------------------

 ----------------------------------------------------------------------
 hf stability analysis of h12 triangular lattice, y= 1.6306791826473761
 ----------------------------------------------------------------------
 Symbolic Z-matrix:
 Charge =  0 Multiplicity = 1

                         Standard orientation:
 ---------------------------------------------------------------------
 Center     Atomic      Atomic             Coordinates (Angstroms)
 Number     Number       Type             X           Y           Z
 ---------------------------------------------------------------------
      1          1           0        0.691987    4.021437   -0.000000
      2          1           0        0.000000    2.503010   -0.000000
      3          1           0        0.691987    2.352764   -0.000000
      4          1           0        0.000000    0.834337   -0.000000
      5          1           0       -0.691987    0.984582   -0.000000
      6          1           0       -0.691987   -0.684091    0.000000
      7          1           0       -0.691987   -2.352764   -0.000000
      8          1           0       -0.000000   -0.834337   -0.000000
      9          1           0        0.691987    0.684091    0.000000
     10          1           0        0.691987   -0.984582   -0.000000
     11          1           0       -0.000000   -2.503010   -0.000000
     12          1           0       -0.691987   -4.021437   -0.000000
 ---------------------------------------------------------------------

 SCF Done:  E(RHF) =  -5.69987982126     A.U. after   13 cycles
 E2 =    -0.6107742353D+00 EUMP2 =    -0.63106540566045D+01

 The electronic state is 1-AG.
 Alpha  occ. eigenvalues --   -0.89042  -0.78025  -0.65132  -0.60486  -0.37247
 Alpha  occ. eigenvalues --   -0.17314
 Alpha virt. eigenvalues --   -0.10237   0.02168   0.44463   0.47702   0.75850
 Alpha virt. eigenvalues --    0.98292

 Mulliken charges:
               1
     1  H   -0.043074
     2  H   -0.003211
     3  H    0.022160
     4  H   -0.235718
     5  H    0.158190
     6  H    0.101654
     7  H    0.022160
     8  H   -0.235718
     9  H    0.101654
    10  H    0.158190
    11  H   -0.003211
    12  H   -0.043074
 Sum of Mulliken charges =  -0.00000

 Dipole moment (field-independent basis, Debye):
    X=             -0.0000    Y=             -0.0000    Z=              0.0000  Tot=              0.0000
 Quadrupole moment (field-independent basis, Debye-Ang):
   XX=            -15.7018   YY=            -24.8428   ZZ=            -15.3592
   XY=             -2.3877   XZ=             -0.0000   YZ=             -0.0000

 Normal termination of Gaussian 09 at Fri Feb 17 15:08:29 2017.
