 Gaussian 09, Revision E.01,
 Gaussian 09:  ES64L-G09RevE.01 30-Nov-2015

 ----------------------------------------------------------------------
 #rhf/gen scf(symm,tight,novaracc,noincfock,fulldiag) stable(crhf) gues
 s=read geom=nocrowd test
 ----------------------------------------------------------------------

 hf stability analysis of h12 triangular lattice, y= 0.7210052279144877
 3
 ----------------------------------------------------------------------
 Symbolic Z-matrix:
 Charge =  0 Multiplicity = 1

                         Standard orientation:
 ---------------------------------------------------------------------
 Center     Atomic      Atomic             Coordinates (Angstroms)
 Number     Number       Type             X           Y           Z
 ---------------------------------------------------------------------
      1          1           0        1.071623    1.503656    0.000000
      2          1           0        0.000000    1.616288    0.000000
      3          1           0        1.071623    0.426131    0.000000
      4          1           0        0.000000    0.538763    0.000000
      5          1           0       -1.071623    1.728920    0.000000
      6          1           0       -1.071623    0.651395    0.000000
      7          1           0       -1.071623   -0.426131   -0.000000
      8          1           0       -0.000000   -0.538763    0.000000
      9          1           0        1.071623   -0.651395    0.000000
     10          1           0        1.071623   -1.728920    0.000000
     11          1           0       -0.000000   -1.616288    0.000000
     12          1           0       -1.071623   -1.503656   -0.000000
 ---------------------------------------------------------------------

 SCF Done:  E(RHF) =  -5.69561048833     A.U. after   15 cycles
 E2 =    -0.1240699074D+00 EUMP2 =    -0.58196803957429D+01

 The electronic state is 1-AG.
 Alpha  occ. eigenvalues --   -1.00888  -0.78917  -0.68902  -0.50825  -0.46865
 Alpha  occ. eigenvalues --   -0.19513
 Alpha virt. eigenvalues --   -0.02747   0.09955   0.21881   0.43498   0.55057
 Alpha virt. eigenvalues --    0.91701

 Mulliken charges:
               1
     1  H   -0.068557
     2  H    0.075881
     3  H    0.125514
     4  H    0.057422
     5  H   -0.254607
     6  H    0.064346
     7  H    0.125514
     8  H    0.057422
     9  H    0.064346
    10  H   -0.254607
    11  H    0.075881
    12  H   -0.068557
 Sum of Mulliken charges =  -0.00000

 Dipole moment (field-independent basis, Debye):
    X=              0.0000    Y=             -0.0000    Z=             -0.0000  Tot=              0.0000
 Quadrupole moment (field-independent basis, Debye-Ang):
   XX=            -17.9264   YY=            -27.5426   ZZ=            -15.0892
   XY=              4.3931   XZ=             -0.0000   YZ=              0.0000

 Normal termination of Gaussian 09 at Thu Feb 16 18:52:36 2017.
