 Gaussian 09, Revision E.01,
 Gaussian 09:  ES64L-G09RevE.01 30-Nov-2015

 ----------------------------------------------------------------------
 #rhf/gen scf(symm,tight,novaracc,noincfock,fulldiag) stable(crhf) gues
 s=read geom=nocrowd test
 ----------------------------------------------------------------------

 hf stability analysis of h12 triangular lattice, y= 0.6655948165158517
 3
 ----------------------------------------------------------------------
 Symbolic Z-matrix:
 Charge =  0 Multiplicity = 1

                         Standard orientation:
 ---------------------------------------------------------------------
 Center     Atomic      Atomic             Coordinates (Angstroms)
 Number     Number       Type             X           Y           Z
 ---------------------------------------------------------------------
      1          1           0        1.056104    1.357056   -0.000000
      2          1           0        0.000000    1.640039   -0.000000
      3          1           0        1.056104    0.263697   -0.000000
      4          1           0        0.000000    0.546680   -0.000000
      5          1           0       -1.056104    1.923021   -0.000000
      6          1           0       -1.056104    0.829662   -0.000000
      7          1           0       -1.056104   -0.263697   -0.000000
      8          1           0       -0.000000   -0.546680   -0.000000
      9          1           0        1.056104   -0.829662    0.000000
     10          1           0        1.056104   -1.923021   -0.000000
     11          1           0       -0.000000   -1.640039   -0.000000
     12          1           0       -1.056104   -1.357056   -0.000000
 ---------------------------------------------------------------------

 SCF Done:  E(RHF) =  -5.78397966041     A.U. after   14 cycles
 E2 =    -0.1181231330D+00 EUMP2 =    -0.59021027934100D+01

 The electronic state is 1-AG.
 Alpha  occ. eigenvalues --   -1.00359  -0.79138  -0.68268  -0.52602  -0.44508
 Alpha  occ. eigenvalues --   -0.23342
 Alpha virt. eigenvalues --   -0.00707   0.14150   0.24108   0.37049   0.57314
 Alpha virt. eigenvalues --    0.80906

 Mulliken charges:
               1
     1  H   -0.065418
     2  H    0.098572
     3  H    0.135486
     4  H    0.016701
     5  H   -0.258333
     6  H    0.072993
     7  H    0.135486
     8  H    0.016701
     9  H    0.072993
    10  H   -0.258333
    11  H    0.098572
    12  H   -0.065418
 Sum of Mulliken charges =   0.00000

 Dipole moment (field-independent basis, Debye):
    X=             -0.0000    Y=              0.0000    Z=              0.0000  Tot=              0.0000
 Quadrupole moment (field-independent basis, Debye-Ang):
   XX=            -17.6955   YY=            -28.3529   ZZ=            -15.1761
   XY=              4.7096   XZ=             -0.0000   YZ=             -0.0000

 Normal termination of Gaussian 09 at Fri Feb 17 14:59:59 2017.
