 Gaussian 09, Revision E.01,
 Gaussian 09:  ES64L-G09RevE.01 30-Nov-2015

 ----------------------------------------------------------------------
 #rhf/gen scf(symm,tight,novaracc,noincfock,fulldiag) stable(crhf) gues
 s=read geom=nocrowd test
 ----------------------------------------------------------------------

 hf stability analysis of h12 triangular lattice, y= 0.5247684832164858
 4
 ----------------------------------------------------------------------
 Symbolic Z-matrix:
 Charge =  0 Multiplicity = 1

                         Standard orientation:
 ---------------------------------------------------------------------
 Center     Atomic      Atomic             Coordinates (Angstroms)
 Number     Number       Type             X           Y           Z
 ---------------------------------------------------------------------
      1          1           0        0.947297    1.061309   -0.000000
      2          1           0        0.000000    1.828414   -0.000000
      3          1           0        0.947297   -0.157634   -0.000000
      4          1           0        0.000000    0.609471   -0.000000
      5          1           0       -0.947297    2.595520   -0.000000
      6          1           0       -0.947297    1.376577   -0.000000
      7          1           0       -0.947297    0.157634   -0.000000
      8          1           0       -0.000000   -0.609471    0.000000
      9          1           0        0.947297   -1.376577    0.000000
     10          1           0        0.947297   -2.595520    0.000000
     11          1           0       -0.000000   -1.828414    0.000000
     12          1           0       -0.947297   -1.061309    0.000000
 ---------------------------------------------------------------------

 SCF Done:  E(RHF) =  -5.96472792950     A.U. after   13 cycles
 E2 =    -0.1110926364D+00 EUMP2 =    -0.60758205658779D+01

 The electronic state is 1-AG.
 Alpha  occ. eigenvalues --   -0.93510  -0.78282  -0.57790  -0.56765  -0.35199
 Alpha  occ. eigenvalues --   -0.34214
 Alpha virt. eigenvalues --    0.13862   0.21666   0.23951   0.34734   0.50363
 Alpha virt. eigenvalues --    0.55116

 Mulliken charges:
               1
     1  H   -0.077448
     2  H    0.074486
     3  H   -0.008186
     4  H   -0.020265
     5  H   -0.039271
     6  H    0.070683
     7  H   -0.008186
     8  H   -0.020265
     9  H    0.070683
    10  H   -0.039271
    11  H    0.074486
    12  H   -0.077448
 Sum of Mulliken charges =  -0.00000

 Dipole moment (field-independent basis, Debye):
    X=             -0.0000    Y=              0.0000    Z=              0.0000  Tot=              0.0000
 Quadrupole moment (field-independent basis, Debye-Ang):
   XX=            -17.9574   YY=            -19.5015   ZZ=            -15.4179
   XY=             -0.6246   XZ=              0.0000   YZ=              0.0000

 Normal termination of Gaussian 09 at Fri Feb 17 14:57:29 2017.
