 Gaussian 09, Revision E.01,
 Gaussian 09:  ES64L-G09RevE.01 30-Nov-2015

 ----------------------------------------------------------------------
 #rhf/gen scf(symm,tight,novaracc,noincfock,fulldiag) stable(crhf) gues
 s=read geom=nocrowd test
 ----------------------------------------------------------------------

 ----------------------------------------------------------------------
 hf stability analysis of h12 triangular lattice, y= 1.4552307619668963
 ----------------------------------------------------------------------
 Symbolic Z-matrix:
 Charge =  0 Multiplicity = 1

                         Standard orientation:
 ---------------------------------------------------------------------
 Center     Atomic      Atomic             Coordinates (Angstroms)
 Number     Number       Type             X           Y           Z
 ---------------------------------------------------------------------
      1          1           0        0.765542    3.562148   -0.000000
      2          1           0        0.000000    2.262515   -0.000000
      3          1           0        0.765542    2.053805   -0.000000
      4          1           0        0.000000    0.754172   -0.000000
      5          1           0       -0.765542    0.962883   -0.000000
      6          1           0       -0.765542   -0.545461   -0.000000
      7          1           0       -0.765542   -2.053805   -0.000000
      8          1           0       -0.000000   -0.754172   -0.000000
      9          1           0        0.765542    0.545461   -0.000000
     10          1           0        0.765542   -0.962883   -0.000000
     11          1           0       -0.000000   -2.262515   -0.000000
     12          1           0       -0.765542   -3.562148   -0.000000
 ---------------------------------------------------------------------

 SCF Done:  E(RHF) =  -5.75356833981     A.U. after   14 cycles
 E2 =    -0.2727308436D+00 EUMP2 =    -0.60262991834282D+01

 The electronic state is 1-AG.
 Alpha  occ. eigenvalues --   -0.87849  -0.75805  -0.62449  -0.52555  -0.40645
 Alpha  occ. eigenvalues --   -0.16115
 Alpha virt. eigenvalues --   -0.04623  -0.00169   0.39003   0.44829   0.62013
 Alpha virt. eigenvalues --    0.85527

 Mulliken charges:
               1
     1  H   -0.022284
     2  H    0.059434
     3  H    0.001992
     4  H   -0.163976
     5  H    0.059217
     6  H    0.065617
     7  H    0.001992
     8  H   -0.163976
     9  H    0.065617
    10  H    0.059217
    11  H    0.059434
    12  H   -0.022284
 Sum of Mulliken charges =  -0.00000

 Dipole moment (field-independent basis, Debye):
    X=              0.0000    Y=              0.0000    Z=             -0.0000  Tot=              0.0000
 Quadrupole moment (field-independent basis, Debye-Ang):
   XX=            -16.0835   YY=            -19.8495   ZZ=            -15.2778
   XY=             -1.8697   XZ=             -0.0000   YZ=             -0.0000

 Normal termination of Gaussian 09 at Fri Feb 17 15:07:51 2017.
