 Gaussian 09, Revision E.01,
 Gaussian 09:  ES64L-G09RevE.01 30-Nov-2015

 ----------------------------------------------------------------------
 #rhf/gen scf(symm,tight,novaracc,noincfock,fulldiag) stable(crhf) gues
 s=read geom=nocrowd test
 ----------------------------------------------------------------------

 hf stability analysis of h12 triangular lattice, y= 0.6123199016056329
 9
 ----------------------------------------------------------------------
 Symbolic Z-matrix:
 Charge =  0 Multiplicity = 1

                         Standard orientation:
 ---------------------------------------------------------------------
 Center     Atomic      Atomic             Coordinates (Angstroms)
 Number     Number       Type             X           Y           Z
 ---------------------------------------------------------------------
      1          1           0        1.027069    1.229120   -0.000000
      2          1           0        0.000000    1.686401    0.000000
      3          1           0        1.027069    0.104853   -0.000000
      4          1           0        0.000000    0.562134    0.000000
      5          1           0       -1.027069    2.143682    0.000000
      6          1           0       -1.027069    1.019414    0.000000
      7          1           0       -1.027069   -0.104853   -0.000000
      8          1           0       -0.000000   -0.562134    0.000000
      9          1           0        1.027069   -1.019414    0.000000
     10          1           0        1.027069   -2.143682    0.000000
     11          1           0       -0.000000   -1.686401    0.000000
     12          1           0       -1.027069   -1.229120    0.000000
 ---------------------------------------------------------------------

 SCF Done:  E(RHF) =  -5.87568058048     A.U. after   14 cycles
 E2 =    -0.1146088436D+00 EUMP2 =    -0.59902894240862D+01

 The electronic state is 1-AG.
 Alpha  occ. eigenvalues --   -0.98939  -0.79292  -0.65556  -0.54712  -0.41422
 Alpha  occ. eigenvalues --   -0.27772
 Alpha virt. eigenvalues --    0.04387   0.18304   0.29008   0.29930   0.57849
 Alpha virt. eigenvalues --    0.64965

 Mulliken charges:
               1
     1  H   -0.061030
     2  H    0.094881
     3  H    0.099307
     4  H    0.000254
     5  H   -0.201428
     6  H    0.068015
     7  H    0.099307
     8  H    0.000254
     9  H    0.068015
    10  H   -0.201428
    11  H    0.094881
    12  H   -0.061030
 Sum of Mulliken charges =  -0.00000

 Dipole moment (field-independent basis, Debye):
    X=              0.0000    Y=             -0.0000    Z=             -0.0000  Tot=              0.0000
 Quadrupole moment (field-independent basis, Debye-Ang):
   XX=            -17.7293   YY=            -27.2861   ZZ=            -15.2657
   XY=              3.5974   XZ=             -0.0000   YZ=              0.0000

 Normal termination of Gaussian 09 at Thu Feb 16 18:52:13 2017.
