 Gaussian 09, Revision E.01,
 Gaussian 09:  ES64L-G09RevE.01 30-Nov-2015

 ----------------------------------------------------------------------
 #rhf/gen scf(symm,tight,novaracc,noincfock,fulldiag) stable(crhf) gues
 s=read geom=nocrowd test
 ----------------------------------------------------------------------

 hf stability analysis of h12 triangular lattice, y= 0.2756983987278234
 2
 ----------------------------------------------------------------------
 Symbolic Z-matrix:
 Charge =  0 Multiplicity = 1

                         Standard orientation:
 ---------------------------------------------------------------------
 Center     Atomic      Atomic             Coordinates (Angstroms)
 Number     Number       Type             X           Y           Z
 ---------------------------------------------------------------------
      1          1           0        0.546680    1.128075   -0.000000
      2          1           0        0.000000    3.168311    0.000000
      3          1           0        0.546680   -0.984132   -0.000000
      4          1           0        0.000000    1.056104    0.000000
      5          1           0       -0.546680    5.208547    0.000000
      6          1           0       -0.546680    3.096339    0.000000
      7          1           0       -0.546680    0.984132    0.000000
      8          1           0       -0.000000   -1.056104    0.000000
      9          1           0        0.546680   -3.096339    0.000000
     10          1           0        0.546680   -5.208547    0.000000
     11          1           0       -0.000000   -3.168311    0.000000
     12          1           0       -0.546680   -1.128075    0.000000
 ---------------------------------------------------------------------

 SCF Done:  E(RHF) =  -5.08409304193     A.U. after   12 cycles
 E2 =    -0.8774078981D+00 EUMP2 =    -0.59615009400038D+01

 The electronic state is 1-AG.
 Alpha  occ. eigenvalues --   -0.91429  -0.87258  -0.70061  -0.69863  -0.25971
 Alpha  occ. eigenvalues --   -0.20075
 Alpha virt. eigenvalues --   -0.14923   0.04549   0.56373   0.56920   1.18782
 Alpha virt. eigenvalues --    1.33844

 Mulliken charges:
               1
     1  H    0.242003
     2  H   -0.004676
     3  H    0.235084
     4  H   -0.458537
     5  H   -0.012737
     6  H   -0.001137
     7  H    0.235084
     8  H   -0.458537
     9  H   -0.001137
    10  H   -0.012737
    11  H   -0.004676
    12  H    0.242003
 Sum of Mulliken charges =  -0.00000

 Dipole moment (field-independent basis, Debye):
    X=             -0.0000    Y=             -0.0000    Z=             -0.0000  Tot=              0.0000
 Quadrupole moment (field-independent basis, Debye-Ang):
   XX=            -16.4365   YY=            -21.1187   ZZ=            -15.5170
   XY=              0.8454   XZ=              0.0000   YZ=             -0.0000

 Normal termination of Gaussian 09 at Fri Feb 17 14:53:44 2017.
