 Gaussian 09, Revision E.01,
 Gaussian 09:  ES64L-G09RevE.01 30-Nov-2015

 ----------------------------------------------------------------------
 #rhf/gen scf(symm,tight,novaracc,noincfock,fulldiag) stable(crhf) gues
 s=read geom=nocrowd test
 ----------------------------------------------------------------------

 ----------------------------------------------------------------------
 hf stability analysis of h12 triangular lattice, y= 1.6845675376176648
 ----------------------------------------------------------------------
 Symbolic Z-matrix:
 Charge =  0 Multiplicity = 1

                         Standard orientation:
 ---------------------------------------------------------------------
 Center     Atomic      Atomic             Coordinates (Angstroms)
 Number     Number       Type             X           Y           Z
 ---------------------------------------------------------------------
      1          1           0        0.671697    4.161038   -0.000000
      2          1           0        0.000000    2.578618   -0.000000
      3          1           0        0.671697    2.441959   -0.000000
      4          1           0        0.000000    0.859539   -0.000000
      5          1           0       -0.671697    0.996198   -0.000000
      6          1           0       -0.671697   -0.722881    0.000000
      7          1           0       -0.671697   -2.441959   -0.000000
      8          1           0       -0.000000   -0.859539   -0.000000
      9          1           0        0.671697    0.722881    0.000000
     10          1           0        0.671697   -0.996198   -0.000000
     11          1           0       -0.000000   -2.578618   -0.000000
     12          1           0       -0.671697   -4.161038   -0.000000
 ---------------------------------------------------------------------

 SCF Done:  E(RHF) =  -5.65875192544     A.U. after   12 cycles
 E2 =    -0.6574219376D+00 EUMP2 =    -0.63161738630283D+01

 The electronic state is 1-AG.
 Alpha  occ. eigenvalues --   -0.88929  -0.78634  -0.65766  -0.62252  -0.35650
 Alpha  occ. eigenvalues --   -0.17973
 Alpha virt. eigenvalues --   -0.11299   0.02770   0.46034   0.48712   0.81045
 Alpha virt. eigenvalues --    1.02734

 Mulliken charges:
               1
     1  H   -0.031642
     2  H   -0.004238
     3  H    0.015304
     4  H   -0.256089
     5  H    0.161183
     6  H    0.115482
     7  H    0.015304
     8  H   -0.256089
     9  H    0.115482
    10  H    0.161183
    11  H   -0.004238
    12  H   -0.031642
 Sum of Mulliken charges =  -0.00000

 Dipole moment (field-independent basis, Debye):
    X=              0.0000    Y=             -0.0000    Z=              0.0000  Tot=              0.0000
 Quadrupole moment (field-independent basis, Debye-Ang):
   XX=            -15.8070   YY=            -23.5973   ZZ=            -15.3854
   XY=             -1.9909   XZ=             -0.0000   YZ=             -0.0000

 Normal termination of Gaussian 09 at Fri Feb 17 15:08:38 2017.
