 Gaussian 09, Revision E.01,
 Gaussian 09:  ES64L-G09RevE.01 30-Nov-2015

 ----------------------------------------------------------------------
 #rhf/gen scf(symm,tight,novaracc,noincfock,fulldiag) stable(crhf) gues
 s=read geom=nocrowd test
 ----------------------------------------------------------------------

 hf stability analysis of h12 triangular lattice, y= 0.9754198370359219
 4
 ----------------------------------------------------------------------
 Symbolic Z-matrix:
 Charge =  0 Multiplicity = 1

                         Standard orientation:
 ---------------------------------------------------------------------
 Center     Atomic      Atomic             Coordinates (Angstroms)
 Number     Number       Type             X           Y           Z
 ---------------------------------------------------------------------
      1          1           0        1.012043    2.238276    0.000000
      2          1           0        0.000000    1.711439    0.000000
      3          1           0        1.012043    1.097316    0.000000
      4          1           0        0.000000    0.570480    0.000000
      5          1           0       -1.012043    1.184603    0.000000
      6          1           0       -1.012043    0.043643    0.000000
      7          1           0       -1.012043   -1.097316    0.000000
      8          1           0       -0.000000   -0.570480    0.000000
      9          1           0        1.012043   -0.043643   -0.000000
     10          1           0        1.012043   -1.184603    0.000000
     11          1           0       -0.000000   -1.711439    0.000000
     12          1           0       -1.012043   -2.238276    0.000000
 ---------------------------------------------------------------------

 SCF Done:  E(RHF) =  -5.90688798682     A.U. after   13 cycles
 E2 =    -0.1135791715D+00 EUMP2 =    -0.60204671582718D+01

 The electronic state is 1-AG.
 Alpha  occ. eigenvalues --   -0.98017  -0.79227  -0.63963  -0.55495  -0.40020
 Alpha  occ. eigenvalues --   -0.29537
 Alpha virt. eigenvalues --    0.07303   0.19757   0.25754   0.33224   0.57521
 Alpha virt. eigenvalues --    0.58335

 Mulliken charges:
               1
     1  H   -0.169510
     2  H    0.090362
     3  H    0.067229
     4  H   -0.004946
     5  H   -0.060089
     6  H    0.076953
     7  H    0.067229
     8  H   -0.004946
     9  H    0.076953
    10  H   -0.060089
    11  H    0.090362
    12  H   -0.169510
 Sum of Mulliken charges =   0.00000

 Dipole moment (field-independent basis, Debye):
    X=              0.0000    Y=              0.0000    Z=             -0.0000  Tot=              0.0000
 Quadrupole moment (field-independent basis, Debye-Ang):
   XX=            -17.7526   YY=            -26.2517   ZZ=            -15.3009
   XY=             -2.8618   XZ=              0.0000   YZ=             -0.0000

 Normal termination of Gaussian 09 at Fri Feb 17 15:04:29 2017.
