 Gaussian 09, Revision E.01,
 Gaussian 09:  ES64L-G09RevE.01 30-Nov-2015

 ----------------------------------------------------------------------
 #rhf/gen scf(symm,tight,novaracc,noincfock,fulldiag) stable(crhf) gues
 s=read geom=nocrowd test
 ----------------------------------------------------------------------

 hf stability analysis of h12 triangular lattice, y= 0.4615146431802063
 0
 ----------------------------------------------------------------------
 Symbolic Z-matrix:
 Charge =  0 Multiplicity = 1

                         Standard orientation:
 ---------------------------------------------------------------------
 Center     Atomic      Atomic             Coordinates (Angstroms)
 Number     Number       Type             X           Y           Z
 ---------------------------------------------------------------------
      1          1           0        0.865978    0.986179    0.000000
      2          1           0        0.000000    2.000109    0.000000
      3          1           0        0.865978   -0.347227    0.000000
      4          1           0        0.000000    0.666703    0.000000
      5          1           0       -0.865978    3.014039    0.000000
      6          1           0       -0.865978    1.680633    0.000000
      7          1           0       -0.865978    0.347227    0.000000
      8          1           0       -0.000000   -0.666703    0.000000
      9          1           0        0.865978   -1.680633   -0.000000
     10          1           0        0.865978   -3.014039   -0.000000
     11          1           0       -0.000000   -2.000109    0.000000
     12          1           0       -0.865978   -0.986179    0.000000
 ---------------------------------------------------------------------

 SCF Done:  E(RHF) =  -5.90826687025     A.U. after   14 cycles
 E2 =    -0.1100547397D+00 EUMP2 =    -0.60183216099555D+01

 The electronic state is 1-AG.
 Alpha  occ. eigenvalues --   -0.87019  -0.76071  -0.59312  -0.47635  -0.39377
 Alpha  occ. eigenvalues --   -0.26498
 Alpha virt. eigenvalues --    0.03816   0.14412   0.30551   0.38235   0.55092
 Alpha virt. eigenvalues --    0.70138

 Mulliken charges:
               1
     1  H   -0.119558
     2  H    0.051790
     3  H   -0.096408
     4  H   -0.032771
     5  H    0.114609
     6  H    0.082339
     7  H   -0.096408
     8  H   -0.032771
     9  H    0.082339
    10  H    0.114609
    11  H    0.051790
    12  H   -0.119558
 Sum of Mulliken charges =  -0.00000

 Dipole moment (field-independent basis, Debye):
    X=              0.0000    Y=              0.0000    Z=             -0.0000  Tot=              0.0000
 Quadrupole moment (field-independent basis, Debye-Ang):
   XX=            -18.2816   YY=             -5.7768   ZZ=            -15.5066
   XY=             -5.1214   XZ=              0.0000   YZ=              0.0000

 Normal termination of Gaussian 09 at Fri Feb 17 14:56:22 2017.
