 Gaussian 09, Revision E.01,
 Gaussian 09:  ES64L-G09RevE.01 30-Nov-2015

 ----------------------------------------------------------------------
 #rhf/gen scf(symm,tight,novaracc,noincfock,fulldiag) stable(crhf) gues
 s=read geom=nocrowd test
 ----------------------------------------------------------------------

 hf stability analysis of h12 triangular lattice, y= 0.5628012212403139
 5
 ----------------------------------------------------------------------
 Symbolic Z-matrix:
 Charge =  0 Multiplicity = 1

                         Standard orientation:
 ---------------------------------------------------------------------
 Center     Atomic      Atomic             Coordinates (Angstroms)
 Number     Number       Type             X           Y           Z
 ---------------------------------------------------------------------
      1          1           0        0.986846    1.126448    0.000000
      2          1           0        0.000000    1.755138    0.000000
      3          1           0        0.986846   -0.043644    0.000000
      4          1           0        0.000000    0.585046    0.000000
      5          1           0       -0.986846    2.383828    0.000000
      6          1           0       -0.986846    1.213736    0.000000
      7          1           0       -0.986846    0.043644    0.000000
      8          1           0       -0.000000   -0.585046    0.000000
      9          1           0        0.986846   -1.213736   -0.000000
     10          1           0        0.986846   -2.383828   -0.000000
     11          1           0       -0.000000   -1.755138    0.000000
     12          1           0       -0.986846   -1.126448    0.000000
 ---------------------------------------------------------------------

 SCF Done:  E(RHF) =  -5.94244538370     A.U. after   13 cycles
 E2 =    -0.1123335536D+00 EUMP2 =    -0.60547789372828D+01

 The electronic state is 1-AG.
 Alpha  occ. eigenvalues --   -0.96348  -0.78970  -0.61209  -0.56553  -0.37755
 Alpha  occ. eigenvalues --   -0.32041
 Alpha virt. eigenvalues --    0.12246   0.21182   0.21703   0.38315   0.49440
 Alpha virt. eigenvalues --    0.56631

 Mulliken charges:
               1
     1  H   -0.063216
     2  H    0.083490
     3  H    0.041289
     4  H   -0.011947
     5  H   -0.117483
     6  H    0.067867
     7  H    0.041289
     8  H   -0.011947
     9  H    0.067867
    10  H   -0.117483
    11  H    0.083490
    12  H   -0.063216
 Sum of Mulliken charges =  -0.00000

 Dipole moment (field-independent basis, Debye):
    X=             -0.0000    Y=              0.0000    Z=              0.0000  Tot=              0.0000
 Quadrupole moment (field-independent basis, Debye-Ang):
   XX=            -17.8143   YY=            -24.0463   ZZ=            -15.3520
   XY=              1.5405   XZ=              0.0000   YZ=             -0.0000

 Normal termination of Gaussian 09 at Fri Feb 17 14:58:09 2017.
