 Gaussian 09, Revision E.01,
 Gaussian 09:  ES64L-G09RevE.01 30-Nov-2015

 ----------------------------------------------------------------------
 #rhf/gen scf(symm,tight,novaracc,noincfock,fulldiag) stable(crhf) gues
 s=read geom=nocrowd test
 ----------------------------------------------------------------------

 hf stability analysis of h12 triangular lattice, y= 0.3577645550249273
 8
 ----------------------------------------------------------------------
 Symbolic Z-matrix:
 Charge =  0 Multiplicity = 1

                         Standard orientation:
 ---------------------------------------------------------------------
 Center     Atomic      Atomic             Coordinates (Angstroms)
 Number     Number       Type             X           Y           Z
 ---------------------------------------------------------------------
      1          1           0        0.698568    0.981345    0.000000
      2          1           0        0.000000    2.479430    0.000000
      3          1           0        0.698568   -0.671608    0.000000
      4          1           0        0.000000    0.826477    0.000000
      5          1           0       -0.698568    3.977514    0.000000
      6          1           0       -0.698568    2.324561    0.000000
      7          1           0       -0.698568    0.671608    0.000000
      8          1           0       -0.000000   -0.826477    0.000000
      9          1           0        0.698568   -2.324561   -0.000000
     10          1           0        0.698568   -3.977514   -0.000000
     11          1           0       -0.000000   -2.479430    0.000000
     12          1           0       -0.698568   -0.981345    0.000000
 ---------------------------------------------------------------------

 SCF Done:  E(RHF) =  -5.71059906860     A.U. after   13 cycles
 E2 =    -0.5943030237D+00 EUMP2 =    -0.63049020922737D+01

 The electronic state is 1-AG.
 Alpha  occ. eigenvalues --   -0.89090  -0.77860  -0.64930  -0.59882  -0.37755
 Alpha  occ. eigenvalues --   -0.17090
 Alpha virt. eigenvalues --   -0.09862   0.01956   0.43956   0.47388   0.74232
 Alpha virt. eigenvalues --    0.96886

 Mulliken charges:
               1
     1  H    0.157620
     2  H   -0.002991
     3  H    0.096905
     4  H   -0.229490
     5  H   -0.047024
     6  H    0.024979
     7  H    0.096905
     8  H   -0.229490
     9  H    0.024979
    10  H   -0.047024
    11  H   -0.002991
    12  H    0.157620
 Sum of Mulliken charges =  -0.00000

 Dipole moment (field-independent basis, Debye):
    X=             -0.0000    Y=             -0.0000    Z=              0.0000  Tot=              0.0000
 Quadrupole moment (field-independent basis, Debye-Ang):
   XX=            -15.6700   YY=            -25.2211   ZZ=            -15.3507
   XY=              2.5169   XZ=              0.0000   YZ=             -0.0000

 Normal termination of Gaussian 09 at Fri Feb 17 14:54:42 2017.
