 Gaussian 09, Revision E.01,
 Gaussian 09:  ES64L-G09RevE.01 30-Nov-2015

 ----------------------------------------------------------------------
 #rhf/gen scf(symm,tight,novaracc,noincfock,fulldiag) stable(crhf) gues
 s=read geom=nocrowd test
 ----------------------------------------------------------------------

 hf stability analysis of h12 triangular lattice, y= 0.2514560395575198
 3
 ----------------------------------------------------------------------
 Symbolic Z-matrix:
 Charge =  0 Multiplicity = 1

                         Standard orientation:
 ---------------------------------------------------------------------
 Center     Atomic      Atomic             Coordinates (Angstroms)
 Number     Number       Type             X           Y           Z
 ---------------------------------------------------------------------
      1          1           0        0.499923    1.209629    0.000000
      2          1           0        0.000000    3.464636    0.000000
      3          1           0        0.499923   -1.100128    0.000000
      4          1           0        0.000000    1.154879    0.000000
      5          1           0       -0.499923    5.719642    0.000000
      6          1           0       -0.499923    3.409885   -0.000000
      7          1           0       -0.499923    1.100128   -0.000000
      8          1           0       -0.000000   -1.154879    0.000000
      9          1           0        0.499923   -3.409885    0.000000
     10          1           0        0.499923   -5.719642    0.000000
     11          1           0       -0.000000   -3.464636    0.000000
     12          1           0       -0.499923   -1.209629    0.000000
 ---------------------------------------------------------------------

 SCF Done:  E(RHF) =  -4.69334320240     A.U. after   10 cycles
 E2 =    -0.7916585763D+00 EUMP2 =    -0.54850017787386D+01

 The electronic state is 1-AG.
 Alpha  occ. eigenvalues --   -0.96745  -0.94912  -0.72010  -0.71982  -0.23780
 Alpha  occ. eigenvalues --   -0.19008
 Alpha virt. eigenvalues --   -0.13926   0.02630   0.60566   0.60795   1.33435
 Alpha virt. eigenvalues --    1.45571

 Mulliken charges:
               1
     1  H    0.345347
     2  H   -0.003164
     3  H    0.342110
     4  H   -0.602399
     5  H   -0.080279
     6  H   -0.001614
     7  H    0.342110
     8  H   -0.602399
     9  H   -0.001614
    10  H   -0.080279
    11  H   -0.003164
    12  H    0.345347
 Sum of Mulliken charges =  -0.00000

 Dipole moment (field-independent basis, Debye):
    X=             -0.0000    Y=             -0.0000    Z=              0.0000  Tot=              0.0000
 Quadrupole moment (field-independent basis, Debye-Ang):
   XX=            -16.4045   YY=            -41.5870   ZZ=            -15.5586
   XY=              2.5551   XZ=             -0.0000   YZ=              0.0000

 Normal termination of Gaussian 09 at Fri Feb 17 14:53:30 2017.
