 Gaussian 09, Revision E.01,
 Gaussian 09:  ES64L-G09RevE.01 30-Nov-2015

 ----------------------------------------------------------------------
 #rhf/gen scf(symm,tight,novaracc,noincfock,fulldiag) stable(crhf) gues
 s=read geom=nocrowd test
 ----------------------------------------------------------------------

 hf stability analysis of h12 triangular lattice, y= 0.5159090308841330
 9
 ----------------------------------------------------------------------
 Symbolic Z-matrix:
 Charge =  0 Multiplicity = 1

                         Standard orientation:
 ---------------------------------------------------------------------
 Center     Atomic      Atomic             Coordinates (Angstroms)
 Number     Number       Type             X           Y           Z
 ---------------------------------------------------------------------
      1          1           0        0.937039    1.048124    0.000000
      2          1           0       -0.000000    1.848431    0.000000
      3          1           0        0.937039   -0.184163    0.000000
      4          1           0       -0.000000    0.616144    0.000000
      5          1           0       -0.937039    2.648737   -0.000000
      6          1           0       -0.937039    1.416450   -0.000000
      7          1           0       -0.937039    0.184163    0.000000
      8          1           0       -0.000000   -0.616144    0.000000
      9          1           0        0.937039   -1.416450   -0.000000
     10          1           0        0.937039   -2.648737   -0.000000
     11          1           0       -0.000000   -1.848431    0.000000
     12          1           0       -0.937039   -1.048124    0.000000
 ---------------------------------------------------------------------

 SCF Done:  E(RHF) =  -5.96475585037     A.U. after   13 cycles
 E2 =    -0.1108643579D+00 EUMP2 =    -0.60756202082723D+01

 The electronic state is 1-AG.
 Alpha  occ. eigenvalues --   -0.92736  -0.78056  -0.58048  -0.55593  -0.35900
 Alpha  occ. eigenvalues --   -0.33280
 Alpha virt. eigenvalues --    0.12553   0.23728   0.24263   0.32449   0.52640
 Alpha virt. eigenvalues --    0.54791

 Mulliken charges:
               1
     1  H   -0.082393
     2  H    0.072285
     3  H   -0.019936
     4  H   -0.022069
     5  H   -0.019428
     6  H    0.071541
     7  H   -0.019936
     8  H   -0.022069
     9  H    0.071541
    10  H   -0.019428
    11  H    0.072285
    12  H   -0.082393
 Sum of Mulliken charges =   0.00000

 Dipole moment (field-independent basis, Debye):
    X=              0.0000    Y=             -0.0000    Z=             -0.0000  Tot=              0.0000
 Quadrupole moment (field-independent basis, Debye-Ang):
   XX=            -18.0003   YY=            -18.1030   ZZ=            -15.4326
   XY=             -1.1934   XZ=              0.0000   YZ=             -0.0000

 Normal termination of Gaussian 09 at Fri Feb 17 14:57:19 2017.
