 Gaussian 09, Revision E.01,
 Gaussian 09:  ES64L-G09RevE.01 30-Nov-2015

 ----------------------------------------------------------------------
 #rhf/gen scf(symm,tight,novaracc,noincfock,fulldiag) stable(crhf) gues
 s=read geom=nocrowd test
 ----------------------------------------------------------------------

 ----------------------------------------------------------------------
 hf stability analysis of h12 triangular lattice, y= 1.7649657119256603
 ----------------------------------------------------------------------
 Symbolic Z-matrix:
 Charge =  0 Multiplicity = 1

                         Standard orientation:
 ---------------------------------------------------------------------
 Center     Atomic      Atomic             Coordinates (Angstroms)
 Number     Number       Type             X           Y           Z
 ---------------------------------------------------------------------
      1          1           0        0.643279    4.368334   -0.000000
      2          1           0        0.000000    2.692535   -0.000000
      3          1           0        0.643279    2.573311   -0.000000
      4          1           0        0.000000    0.897512   -0.000000
      5          1           0       -0.643279    1.016736   -0.000000
      6          1           0       -0.643279   -0.778287    0.000000
      7          1           0       -0.643279   -2.573311   -0.000000
      8          1           0       -0.000000   -0.897512   -0.000000
      9          1           0        0.643279    0.778287    0.000000
     10          1           0        0.643279   -1.016736   -0.000000
     11          1           0       -0.000000   -2.692535   -0.000000
     12          1           0       -0.643279   -4.368334   -0.000000
 ---------------------------------------------------------------------

 SCF Done:  E(RHF) =  -5.57925672042     A.U. after   12 cycles
 E2 =    -0.7176024364D+00 EUMP2 =    -0.62968591568104D+01

 The electronic state is 1-AG.
 Alpha  occ. eigenvalues --   -0.88956  -0.79827  -0.66689  -0.64478  -0.33410
 Alpha  occ. eigenvalues --   -0.18759
 Alpha virt. eigenvalues --   -0.12544   0.03459   0.48264   0.50254   0.88749
 Alpha virt. eigenvalues --    1.09180

 Mulliken charges:
               1
     1  H   -0.019200
     2  H   -0.005440
     3  H    0.008599
     4  H   -0.288864
     5  H    0.169194
     6  H    0.135711
     7  H    0.008599
     8  H   -0.288864
     9  H    0.135711
    10  H    0.169194
    11  H   -0.005440
    12  H   -0.019200
 Sum of Mulliken charges =   0.00000

 Dipole moment (field-independent basis, Debye):
    X=              0.0000    Y=             -0.0000    Z=              0.0000  Tot=              0.0000
 Quadrupole moment (field-independent basis, Debye-Ang):
   XX=            -15.9631   YY=            -21.9783   ZZ=            -15.4216
   XY=             -1.5092   XZ=             -0.0000   YZ=             -0.0000

 Normal termination of Gaussian 09 at Fri Feb 17 15:08:49 2017.
