 Gaussian 09, Revision E.01,
 Gaussian 09:  ES64L-G09RevE.01 30-Nov-2015

 ----------------------------------------------------------------------
 #rhf/gen scf(symm,tight,novaracc,noincfock,fulldiag) stable(crhf) gues
 s=read geom=nocrowd test
 ----------------------------------------------------------------------

 hf stability analysis of h12 triangular lattice, y= 0.5860779187036555
 5
 ----------------------------------------------------------------------
 Symbolic Z-matrix:
 Charge =  0 Multiplicity = 1

                         Standard orientation:
 ---------------------------------------------------------------------
 Center     Atomic      Atomic             Coordinates (Angstroms)
 Number     Number       Type             X           Y           Z
 ---------------------------------------------------------------------
      1          1           0        1.007358    1.172448   -0.000000
      2          1           0        0.000000    1.719399    0.000000
      3          1           0        1.007358    0.026182   -0.000000
      4          1           0        0.000000    0.573133    0.000000
      5          1           0       -1.007358    2.266350    0.000000
      6          1           0       -1.007358    1.120084    0.000000
      7          1           0       -1.007358   -0.026182   -0.000000
      8          1           0       -0.000000   -0.573133    0.000000
      9          1           0        1.007358   -1.120084    0.000000
     10          1           0        1.007358   -2.266350    0.000000
     11          1           0       -0.000000   -1.719399    0.000000
     12          1           0       -1.007358   -1.172448   -0.000000
 ---------------------------------------------------------------------

 SCF Done:  E(RHF) =  -5.91496993889     A.U. after   14 cycles
 E2 =    -0.1133093988D+00 EUMP2 =    -0.60282793377197D+01

 The electronic state is 1-AG.
 Alpha  occ. eigenvalues --   -0.97717  -0.79192  -0.63457  -0.55713  -0.39593
 Alpha  occ. eigenvalues --   -0.30040
 Alpha virt. eigenvalues --    0.08226   0.20156   0.24823   0.34245   0.56456
 Alpha virt. eigenvalues --    0.57378

 Mulliken charges:
               1
     1  H   -0.060232
     2  H    0.088999
     3  H    0.070091
     4  H   -0.006385
     5  H   -0.159678
     6  H    0.067206
     7  H    0.070091
     8  H   -0.006385
     9  H    0.067206
    10  H   -0.159678
    11  H    0.088999
    12  H   -0.060232
 Sum of Mulliken charges =   0.00000

 Dipole moment (field-independent basis, Debye):
    X=             -0.0000    Y=              0.0000    Z=             -0.0000  Tot=              0.0000
 Quadrupole moment (field-independent basis, Debye-Ang):
   XX=            -17.7619   YY=            -25.8838   ZZ=            -15.3111
   XY=              2.6225   XZ=              0.0000   YZ=             -0.0000

 Normal termination of Gaussian 09 at Fri Feb 17 14:58:33 2017.
