 Gaussian 09, Revision E.01,
 Gaussian 09:  ES64L-G09RevE.01 30-Nov-2015

 ----------------------------------------------------------------------
 #rhf/gen scf(symm,tight,novaracc,noincfock,fulldiag) stable(crhf) gues
 s=read geom=nocrowd test
 ----------------------------------------------------------------------

 ----------------------------------------------------------------------
 hf stability analysis of h12 triangular lattice, y= 2.3945089138952178
 ----------------------------------------------------------------------
 Symbolic Z-matrix:
 Charge =  0 Multiplicity = 1

                         Standard orientation:
 ---------------------------------------------------------------------
 Center     Atomic      Atomic             Coordinates (Angstroms)
 Number     Number       Type             X           Y           Z
 ---------------------------------------------------------------------
      1          1           0        0.479802    5.968231    0.000000
      2          1           0        0.000000    3.609927    0.000000
      3          1           0        0.479802    3.561613    0.000000
      4          1           0        0.000000    1.203309    0.000000
      5          1           0       -0.479802    1.251622    0.000000
      6          1           0       -0.479802   -1.154995   -0.000000
      7          1           0       -0.479802   -3.561613   -0.000000
      8          1           0       -0.000000   -1.203309    0.000000
      9          1           0        0.479802    1.154995    0.000000
     10          1           0        0.479802   -1.251622    0.000000
     11          1           0       -0.000000   -3.609927    0.000000
     12          1           0       -0.479802   -5.968231    0.000000
 ---------------------------------------------------------------------

 SCF Done:  E(RHF) =  -4.48768362417     A.U. after   11 cycles
 E2 =    -0.7595671631D+00 EUMP2 =    -0.52472507873129D+01

 The electronic state is 1-AG.
 Alpha  occ. eigenvalues --   -0.99357  -0.98374  -0.72855  -0.72846  -0.22782
 Alpha  occ. eigenvalues --   -0.18422
 Alpha virt. eigenvalues --   -0.13383   0.01842   0.62523   0.62674   1.40549
 Alpha virt. eigenvalues --    1.51452

 Mulliken charges:
               1
     1  H   -0.110801
     2  H   -0.002419
     3  H   -0.001559
     4  H   -0.677839
     5  H    0.395014
     6  H    0.397604
     7  H   -0.001559
     8  H   -0.677839
     9  H    0.397604
    10  H    0.395014
    11  H   -0.002419
    12  H   -0.110801
 Sum of Mulliken charges =   0.00000

 Dipole moment (field-independent basis, Debye):
    X=              0.0000    Y=             -0.0000    Z=              0.0000  Tot=              0.0000
 Quadrupole moment (field-independent basis, Debye-Ang):
   XX=            -16.3712   YY=            -53.5037   ZZ=            -15.5714
   XY=             -3.2749   XZ=             -0.0000   YZ=             -0.0000

 Normal termination of Gaussian 09 at Fri Feb 17 15:09:43 2017.
