 Gaussian 09, Revision E.01,
 Gaussian 09:  ES64L-G09RevE.01 30-Nov-2015

 ----------------------------------------------------------------------
 #rhf/gen scf(symm,tight,novaracc,noincfock,fulldiag) stable(crhf) gues
 s=read geom=nocrowd test
 ----------------------------------------------------------------------

 hf stability analysis of h12 triangular lattice, y= 0.9900233955345416
 6
 ----------------------------------------------------------------------
 Symbolic Z-matrix:
 Charge =  0 Multiplicity = 1

                         Standard orientation:
 ---------------------------------------------------------------------
 Center     Atomic      Atomic             Coordinates (Angstroms)
 Number     Number       Type             X           Y           Z
 ---------------------------------------------------------------------
      1          1           0        1.004950    2.280573   -0.000000
      2          1           0        0.000000    1.723520   -0.000000
      3          1           0        1.004950    1.131559   -0.000000
      4          1           0        0.000000    0.574507   -0.000000
      5          1           0       -1.004950    1.166467   -0.000000
      6          1           0       -1.004950    0.017454   -0.000000
      7          1           0       -1.004950   -1.131559   -0.000000
      8          1           0       -0.000000   -0.574507   -0.000000
      9          1           0        1.004950   -0.017454   -0.000000
     10          1           0        1.004950   -1.166467   -0.000000
     11          1           0       -0.000000   -1.723520   -0.000000
     12          1           0       -1.004950   -2.280573   -0.000000
 ---------------------------------------------------------------------

 SCF Done:  E(RHF) =  -5.91884712420     A.U. after   13 cycles
 E2 =    -0.1131784256D+00 EUMP2 =    -0.60320255498267D+01

 The electronic state is 1-AG.
 Alpha  occ. eigenvalues --   -0.97560  -0.79171  -0.63196  -0.55821  -0.39375
 Alpha  occ. eigenvalues --   -0.30292
 Alpha virt. eigenvalues --    0.08702   0.20354   0.24358   0.34764   0.55525
 Alpha virt. eigenvalues --    0.57300

 Mulliken charges:
               1
     1  H   -0.154652
     2  H    0.088312
     3  H    0.067226
     4  H   -0.007098
     5  H   -0.060387
     6  H    0.066599
     7  H    0.067226
     8  H   -0.007098
     9  H    0.066599
    10  H   -0.060387
    11  H    0.088312
    12  H   -0.154652
 Sum of Mulliken charges =  -0.00000

 Dipole moment (field-independent basis, Debye):
    X=             -0.0000    Y=             -0.0000    Z=              0.0000  Tot=              0.0000
 Quadrupole moment (field-independent basis, Debye-Ang):
   XX=            -17.7671   YY=            -25.6870   ZZ=            -15.3162
   XY=             -2.4981   XZ=              0.0000   YZ=              0.0000

 Normal termination of Gaussian 09 at Fri Feb 17 15:04:39 2017.
