 Gaussian 09, Revision E.01,
 Gaussian 09:  ES64L-G09RevE.01 30-Nov-2015

 ----------------------------------------------------------------------
 #rhf/gen scf(symm,tight,novaracc,noincfock,fulldiag) stable(crhf) gues
 s=read geom=nocrowd test
 ----------------------------------------------------------------------

 hf stability analysis of h12 triangular lattice, y= 0.5453026111479248
 9
 ----------------------------------------------------------------------
 Symbolic Z-matrix:
 Charge =  0 Multiplicity = 1

                         Standard orientation:
 ---------------------------------------------------------------------
 Center     Atomic      Atomic             Coordinates (Angstroms)
 Number     Number       Type             X           Y           Z
 ---------------------------------------------------------------------
      1          1           0        0.969567    1.094832   -0.000000
      2          1           0        0.000000    1.786417   -0.000000
      3          1           0        0.969567   -0.096113    0.000000
      4          1           0        0.000000    0.595472   -0.000000
      5          1           0       -0.969567    2.478003   -0.000000
      6          1           0       -0.969567    1.287058   -0.000000
      7          1           0       -0.969567    0.096113    0.000000
      8          1           0       -0.000000   -0.595472   -0.000000
      9          1           0        0.969567   -1.287058   -0.000000
     10          1           0        0.969567   -2.478003   -0.000000
     11          1           0       -0.000000   -1.786417   -0.000000
     12          1           0       -0.969567   -1.094832   -0.000000
 ---------------------------------------------------------------------

 SCF Done:  E(RHF) =  -5.95674693925     A.U. after   13 cycles
 E2 =    -0.1117086217D+00 EUMP2 =    -0.60684555609809D+01

 The electronic state is 1-AG.
 Alpha  occ. eigenvalues --   -0.95137  -0.78708  -0.59283  -0.57146  -0.36216
 Alpha  occ. eigenvalues --   -0.33517
 Alpha virt. eigenvalues --    0.15002   0.19160   0.22810   0.39185   0.46951
 Alpha virt. eigenvalues --    0.55943

 Mulliken charges:
               1
     1  H   -0.068298
     2  H    0.079374
     3  H    0.018755
     4  H   -0.015896
     5  H   -0.082901
     6  H    0.068967
     7  H    0.018755
     8  H   -0.015896
     9  H    0.068967
    10  H   -0.082901
    11  H    0.079374
    12  H   -0.068298
 Sum of Mulliken charges =   0.00000

 Dipole moment (field-independent basis, Debye):
    X=              0.0000    Y=             -0.0000    Z=              0.0000  Tot=              0.0000
 Quadrupole moment (field-independent basis, Debye-Ang):
   XX=            -17.8713   YY=            -22.2231   ZZ=            -15.3828
   XY=              0.6024   XZ=             -0.0000   YZ=              0.0000

 Normal termination of Gaussian 09 at Fri Feb 17 14:57:50 2017.
