 Gaussian 09, Revision E.01,
 Gaussian 09:  ES64L-G09RevE.01 30-Nov-2015

 ----------------------------------------------------------------------
 #rhf/gen scf(symm,tight,novaracc,noincfock,fulldiag) stable(crhf) gues
 s=read geom=nocrowd test
 ----------------------------------------------------------------------

 ----------------------------------------------------------------------
 hf stability analysis of h12 triangular lattice, y= 1.9654877006520655
 ----------------------------------------------------------------------
 Symbolic Z-matrix:
 Charge =  0 Multiplicity = 1

                         Standard orientation:
 ---------------------------------------------------------------------
 Center     Atomic      Atomic             Coordinates (Angstroms)
 Number     Number       Type             X           Y           Z
 ---------------------------------------------------------------------
      1          1           0        0.581035    4.881455   -0.000000
      2          1           0        0.000000    2.980975   -0.000000
      3          1           0        0.581035    2.894139   -0.000000
      4          1           0        0.000000    0.993658   -0.000000
      5          1           0       -0.581035    1.080495   -0.000000
      6          1           0       -0.581035   -0.906822    0.000000
      7          1           0       -0.581035   -2.894139   -0.000000
      8          1           0       -0.000000   -0.993658   -0.000000
      9          1           0        0.581035    0.906822   -0.000000
     10          1           0        0.581035   -1.080495   -0.000000
     11          1           0       -0.000000   -2.980975   -0.000000
     12          1           0       -0.581035   -4.881455   -0.000000
 ---------------------------------------------------------------------

 SCF Done:  E(RHF) =  -5.30424621949     A.U. after   14 cycles
 E2 =    -0.8405826400D+00 EUMP2 =    -0.61448288594513D+01

 The electronic state is 1-AG.
 Alpha  occ. eigenvalues --   -0.89881  -0.83869  -0.68809  -0.68248  -0.28485
 Alpha  occ. eigenvalues --   -0.19917
 Alpha virt. eigenvalues --   -0.14476   0.04506   0.53381   0.54300   1.07542
 Alpha virt. eigenvalues --    1.24654

 Mulliken charges:
               1
     1  H   -0.004624
     2  H   -0.005732
     3  H    0.000834
     4  H   -0.384540
     5  H    0.203961
     6  H    0.190101
     7  H    0.000834
     8  H   -0.384540
     9  H    0.190101
    10  H    0.203961
    11  H   -0.005732
    12  H   -0.004624
 Sum of Mulliken charges =   0.00000

 Dipole moment (field-independent basis, Debye):
    X=             -0.0000    Y=             -0.0000    Z=             -0.0000  Tot=              0.0000
 Quadrupole moment (field-independent basis, Debye-Ang):
   XX=            -16.3034   YY=            -19.3036   ZZ=            -15.4890
   XY=             -0.7762   XZ=              0.0000   YZ=             -0.0000

 Normal termination of Gaussian 09 at Fri Feb 17 15:09:11 2017.
