 Gaussian 09, Revision E.01,
 Gaussian 09:  ES64L-G09RevE.01 30-Nov-2015

 ----------------------------------------------------------------------
 #rhf/gen scf(symm,tight,novaracc,noincfock,fulldiag) stable(crhf) gues
 s=read geom=nocrowd test
 ----------------------------------------------------------------------

 ----------------------------------------------------------------------
 hf stability analysis of h12 triangular lattice, y= 1.0820123021402799
 ----------------------------------------------------------------------
 Symbolic Z-matrix:
 Charge =  0 Multiplicity = 1

                         Standard orientation:
 ---------------------------------------------------------------------
 Center     Atomic      Atomic             Coordinates (Angstroms)
 Number     Number       Type             X           Y           Z
 ---------------------------------------------------------------------
      1          1           0        0.957124    2.544069   -0.000000
      2          1           0        0.000000    1.809642   -0.000000
      3          1           0        0.957124    1.337641   -0.000000
      4          1           0        0.000000    0.603214   -0.000000
      5          1           0       -0.957124    1.075215   -0.000000
      6          1           0       -0.957124   -0.131213    0.000000
      7          1           0       -0.957124   -1.337641   -0.000000
      8          1           0       -0.000000   -0.603214   -0.000000
      9          1           0        0.957124    0.131213    0.000000
     10          1           0        0.957124   -1.075215   -0.000000
     11          1           0       -0.000000   -1.809642   -0.000000
     12          1           0       -0.957124   -2.544069   -0.000000
 ---------------------------------------------------------------------

 SCF Done:  E(RHF) =  -5.96258220928     A.U. after   12 cycles
 E2 =    -0.1113420450D+00 EUMP2 =    -0.60739242543279D+01

 The electronic state is 1-AG.
 Alpha  occ. eigenvalues --   -0.94237  -0.78481  -0.57880  -0.57521  -0.35101
 Alpha  occ. eigenvalues --   -0.34485
 Alpha virt. eigenvalues --    0.14931   0.19944   0.23499   0.36990   0.48416
 Alpha virt. eigenvalues --    0.55465

 Mulliken charges:
               1
     1  H   -0.058416
     2  H    0.076608
     3  H    0.069899
     4  H   -0.018422
     5  H   -0.073107
     6  H    0.003439
     7  H    0.069899
     8  H   -0.018422
     9  H    0.003439
    10  H   -0.073107
    11  H    0.076608
    12  H   -0.058416
 Sum of Mulliken charges =  -0.00000

 Dipole moment (field-independent basis, Debye):
    X=             -0.0000    Y=              0.0000    Z=             -0.0000  Tot=              0.0000
 Quadrupole moment (field-independent basis, Debye-Ang):
   XX=            -17.9180   YY=            -20.7548   ZZ=            -15.4030
   XY=              0.0815   XZ=              0.0000   YZ=              0.0000

 Normal termination of Gaussian 09 at Fri Feb 17 15:05:33 2017.
