 Gaussian 09, Revision E.01,
 Gaussian 09:  ES64L-G09RevE.01 30-Nov-2015

 ----------------------------------------------------------------------
 #rhf/gen scf(symm,tight,novaracc,noincfock,fulldiag) stable(crhf) gues
 s=read geom=nocrowd test
 ----------------------------------------------------------------------

 hf stability analysis of h12 triangular lattice, y= 0.7178473640090998
 8
 ----------------------------------------------------------------------
 Symbolic Z-matrix:
 Charge =  0 Multiplicity = 1

                         Standard orientation:
 ---------------------------------------------------------------------
 Center     Atomic      Atomic             Coordinates (Angstroms)
 Number     Number       Type             X           Y           Z
 ---------------------------------------------------------------------
      1          1           0        1.071111    1.495023   -0.000000
      2          1           0        0.000000    1.617061    0.000000
      3          1           0        1.071111    0.416983   -0.000000
      4          1           0        0.000000    0.539020    0.000000
      5          1           0       -1.071111    1.739098    0.000000
      6          1           0       -1.071111    0.661058    0.000000
      7          1           0       -1.071111   -0.416983   -0.000000
      8          1           0       -0.000000   -0.539020   -0.000000
      9          1           0        1.071111   -0.661058    0.000000
     10          1           0        1.071111   -1.739098    0.000000
     11          1           0       -0.000000   -1.617061   -0.000000
     12          1           0       -1.071111   -1.495023   -0.000000
 ---------------------------------------------------------------------

 SCF Done:  E(RHF) =  -5.69998724497     A.U. after   15 cycles
 E2 =    -0.1236758225D+00 EUMP2 =    -0.58236630674868D+01

 The electronic state is 1-AG.
 Alpha  occ. eigenvalues --   -1.00831  -0.78909  -0.68897  -0.50886  -0.46757
 Alpha  occ. eigenvalues --   -0.19694
 Alpha virt. eigenvalues --   -0.02663   0.10177   0.21949   0.43247   0.55214
 Alpha virt. eigenvalues --    0.91344

 Mulliken charges:
               1
     1  H   -0.067012
     2  H    0.077421
     3  H    0.127215
     4  H    0.053556
     5  H   -0.256511
     6  H    0.065331
     7  H    0.127215
     8  H    0.053556
     9  H    0.065331
    10  H   -0.256511
    11  H    0.077421
    12  H   -0.067012
 Sum of Mulliken charges =   0.00000

 Dipole moment (field-independent basis, Debye):
    X=             -0.0000    Y=             -0.0000    Z=             -0.0000  Tot=              0.0000
 Quadrupole moment (field-independent basis, Debye-Ang):
   XX=            -17.8791   YY=            -27.6099   ZZ=            -15.0932
   XY=              4.4743   XZ=              0.0000   YZ=             -0.0000

 Normal termination of Gaussian 09 at Fri Feb 17 15:00:57 2017.
