 Gaussian 09, Revision E.01,
 Gaussian 09:  ES64L-G09RevE.01 30-Nov-2015

 ----------------------------------------------------------------------
 #rhf/gen scf(symm,tight,novaracc,noincfock,fulldiag) stable(crhf) gues
 s=read geom=nocrowd test
 ----------------------------------------------------------------------

 hf stability analysis of h12 triangular lattice, y= 0.7147002101552084
 6
 ----------------------------------------------------------------------
 Symbolic Z-matrix:
 Charge =  0 Multiplicity = 1

                         Standard orientation:
 ---------------------------------------------------------------------
 Center     Atomic      Atomic             Coordinates (Angstroms)
 Number     Number       Type             X           Y           Z
 ---------------------------------------------------------------------
      1          1           0        1.070558    1.486448   -0.000000
      2          1           0        0.000000    1.617896   -0.000000
      3          1           0        1.070558    0.407851    0.000000
      4          1           0        0.000000    0.539299   -0.000000
      5          1           0       -1.070558    1.749344   -0.000000
      6          1           0       -1.070558    0.670747   -0.000000
      7          1           0       -1.070558   -0.407851    0.000000
      8          1           0       -0.000000   -0.539299   -0.000000
      9          1           0        1.070558   -0.670747   -0.000000
     10          1           0        1.070558   -1.749344   -0.000000
     11          1           0       -0.000000   -1.617896   -0.000000
     12          1           0       -1.070558   -1.486448    0.000000
 ---------------------------------------------------------------------

 SCF Done:  E(RHF) =  -5.70446090144     A.U. after   15 cycles
 E2 =    -0.1232856384D+00 EUMP2 =    -0.58277465398752D+01

 The electronic state is 1-AG.
 Alpha  occ. eigenvalues --   -1.00784  -0.78905  -0.68893  -0.50955  -0.46645
 Alpha  occ. eigenvalues --   -0.19880
 Alpha virt. eigenvalues --   -0.02582   0.10400   0.22019   0.42975   0.55369
 Alpha virt. eigenvalues --    0.90950

 Mulliken charges:
               1
     1  H   -0.065886
     2  H    0.079055
     3  H    0.128807
     4  H    0.049971
     5  H   -0.258263
     6  H    0.066317
     7  H    0.128807
     8  H    0.049971
     9  H    0.066317
    10  H   -0.258263
    11  H    0.079055
    12  H   -0.065886
 Sum of Mulliken charges =  -0.00000

 Dipole moment (field-independent basis, Debye):
    X=             -0.0000    Y=             -0.0000    Z=              0.0000  Tot=              0.0000
 Quadrupole moment (field-independent basis, Debye-Ang):
   XX=            -17.8397   YY=            -27.6783   ZZ=            -15.0975
   XY=              4.5434   XZ=             -0.0000   YZ=              0.0000

 Normal termination of Gaussian 09 at Fri Feb 17 15:00:54 2017.
