 Gaussian 09, Revision E.01,
 Gaussian 09:  ES64L-G09RevE.01 30-Nov-2015

 ----------------------------------------------------------------------
 #rhf/gen scf(symm,tight,novaracc,noincfock,fulldiag) stable(crhf) gues
 s=read geom=nocrowd test
 ----------------------------------------------------------------------

 ----------------------------------------------------------------------
 hf stability analysis of h12 triangular lattice, y= 1.8574471710024862
 ----------------------------------------------------------------------
 Symbolic Z-matrix:
 Charge =  0 Multiplicity = 1

                         Standard orientation:
 ---------------------------------------------------------------------
 Center     Atomic      Atomic             Coordinates (Angstroms)
 Number     Number       Type             X           Y           Z
 ---------------------------------------------------------------------
      1          1           0        0.613134    4.605584    0.000000
      2          1           0        0.000000    2.824913    0.000000
      3          1           0        0.613134    2.722309    0.000000
      4          1           0        0.000000    0.941638    0.000000
      5          1           0       -0.613134    1.044241   -0.000000
      6          1           0       -0.613134   -0.839034   -0.000000
      7          1           0       -0.613134   -2.722309    0.000000
      8          1           0       -0.000000   -0.941638    0.000000
      9          1           0        0.613134    0.839034   -0.000000
     10          1           0        0.613134   -1.044241    0.000000
     11          1           0       -0.000000   -2.824913    0.000000
     12          1           0       -0.613134   -4.605584    0.000000
 ---------------------------------------------------------------------

 SCF Done:  E(RHF) =  -5.46450189623     A.U. after   13 cycles
 E2 =    -0.7779950801D+00 EUMP2 =    -0.62424969763430D+01

 The electronic state is 1-AG.
 Alpha  occ. eigenvalues --   -0.89252  -0.81557  -0.67703  -0.66487  -0.31037
 Alpha  occ. eigenvalues --   -0.19411
 Alpha virt. eigenvalues --   -0.13599   0.04026   0.50692   0.52090   0.97488
 Alpha virt. eigenvalues --    1.16390

 Mulliken charges:
               1
     1  H   -0.010291
     2  H   -0.005955
     3  H    0.003906
     4  H   -0.330538
     5  H    0.182897
     6  H    0.159981
     7  H    0.003906
     8  H   -0.330538
     9  H    0.159981
    10  H    0.182897
    11  H   -0.005955
    12  H   -0.010291
 Sum of Mulliken charges =  -0.00000

 Dipole moment (field-independent basis, Debye):
    X=              0.0000    Y=              0.0000    Z=             -0.0000  Tot=              0.0000
 Quadrupole moment (field-independent basis, Debye-Ang):
   XX=            -16.1309   YY=            -20.5288   ZZ=            -15.4571
   XY=             -1.1037   XZ=             -0.0000   YZ=             -0.0000

 Normal termination of Gaussian 09 at Fri Feb 17 15:09:00 2017.
