 Gaussian 09, Revision E.01,
 Gaussian 09:  ES64L-G09RevE.01 30-Nov-2015

 ----------------------------------------------------------------------
 #rhf/gen scf(symm,tight,novaracc,noincfock,fulldiag) stable(crhf) gues
 s=read geom=nocrowd test
 ----------------------------------------------------------------------

 hf stability analysis of h12 triangular lattice, y= 0.4646099728787273
 0
 ----------------------------------------------------------------------
 Symbolic Z-matrix:
 Charge =  0 Multiplicity = 1

                         Standard orientation:
 ---------------------------------------------------------------------
 Center     Atomic      Atomic             Coordinates (Angstroms)
 Number     Number       Type             X           Y           Z
 ---------------------------------------------------------------------
      1          1           0        0.870374    0.988755    0.000000
      2          1           0        0.000000    1.990006    0.000000
      3          1           0        0.870374   -0.337916    0.000000
      4          1           0        0.000000    0.663335    0.000000
      5          1           0       -0.870374    2.991258    0.000000
      6          1           0       -0.870374    1.664587    0.000000
      7          1           0       -0.870374    0.337916    0.000000
      8          1           0       -0.000000   -0.663335    0.000000
      9          1           0        0.870374   -1.664587   -0.000000
     10          1           0        0.870374   -2.991258    0.000000
     11          1           0       -0.000000   -1.990006    0.000000
     12          1           0       -0.870374   -0.988755    0.000000
 ---------------------------------------------------------------------

 SCF Done:  E(RHF) =  -5.91446815946     A.U. after   15 cycles
 E2 =    -0.1100409642D+00 EUMP2 =    -0.60245091236724D+01

 The electronic state is 1-AG.
 Alpha  occ. eigenvalues --   -0.87385  -0.76210  -0.59255  -0.48079  -0.39265
 Alpha  occ. eigenvalues --   -0.26934
 Alpha virt. eigenvalues --    0.04312   0.15273   0.30303   0.37452   0.54848
 Alpha virt. eigenvalues --    0.69013

 Mulliken charges:
               1
     1  H   -0.117709
     2  H    0.053812
     3  H   -0.091542
     4  H   -0.032146
     5  H    0.106640
     6  H    0.080946
     7  H   -0.091542
     8  H   -0.032146
     9  H    0.080946
    10  H    0.106640
    11  H    0.053812
    12  H   -0.117709
 Sum of Mulliken charges =   0.00000

 Dipole moment (field-independent basis, Debye):
    X=              0.0000    Y=              0.0000    Z=             -0.0000  Tot=              0.0000
 Quadrupole moment (field-independent basis, Debye-Ang):
   XX=            -18.2701   YY=             -6.6653   ZZ=            -15.5036
   XY=             -4.8841   XZ=              0.0000   YZ=              0.0000

 Normal termination of Gaussian 09 at Fri Feb 17 14:56:25 2017.
