 Gaussian 09, Revision E.01,
 Gaussian 09:  ES64L-G09RevE.01 30-Nov-2015

 ----------------------------------------------------------------------
 #rhf/gen scf(symm,tight,novaracc,noincfock,fulldiag) stable(crhf) gues
 s=read geom=nocrowd test
 ----------------------------------------------------------------------

 ----------------------------------------------------------------------
 hf stability analysis of h12 triangular lattice, y= 1.0365814879045478
 ----------------------------------------------------------------------
 Symbolic Z-matrix:
 Charge =  0 Multiplicity = 1

                         Standard orientation:
 ---------------------------------------------------------------------
 Center     Atomic      Atomic             Coordinates (Angstroms)
 Number     Number       Type             X           Y           Z
 ---------------------------------------------------------------------
      1          1           0        0.981269    2.414601    0.000000
      2          1           0        0.000000    1.765114    0.000000
      3          1           0        0.981269    1.237859    0.000000
      4          1           0        0.000000    0.588371    0.000000
      5          1           0       -0.981269    1.115626    0.000000
      6          1           0       -0.981269   -0.061116    0.000000
      7          1           0       -0.981269   -1.237859    0.000000
      8          1           0       -0.000000   -0.588371    0.000000
      9          1           0        0.981269    0.061116   -0.000000
     10          1           0        0.981269   -1.115626   -0.000000
     11          1           0       -0.000000   -1.765114    0.000000
     12          1           0       -0.981269   -2.414601    0.000000
 ---------------------------------------------------------------------

 SCF Done:  E(RHF) =  -5.94788806175     A.U. after   13 cycles
 E2 =    -0.1121151269D+00 EUMP2 =    -0.60600031886878D+01

 The electronic state is 1-AG.
 Alpha  occ. eigenvalues --   -0.95962  -0.78892  -0.60590  -0.56755  -0.37258
 Alpha  occ. eigenvalues --   -0.32536
 Alpha virt. eigenvalues --    0.13280   0.20348   0.22078   0.39079   0.48074
 Alpha virt. eigenvalues --    0.56410

 Mulliken charges:
               1
     1  H   -0.106236
     2  H    0.082117
     3  H    0.068187
     4  H   -0.013285
     5  H   -0.064628
     6  H    0.033845
     7  H    0.068187
     8  H   -0.013285
     9  H    0.033845
    10  H   -0.064628
    11  H    0.082117
    12  H   -0.106236
 Sum of Mulliken charges =  -0.00000

 Dipole moment (field-independent basis, Debye):
    X=              0.0000    Y=              0.0000    Z=             -0.0000  Tot=              0.0000
 Quadrupole moment (field-independent basis, Debye-Ang):
   XX=            -17.8315   YY=            -23.4851   ZZ=            -15.3623
   XY=             -1.2396   XZ=              0.0000   YZ=              0.0000

 Normal termination of Gaussian 09 at Fri Feb 17 15:05:09 2017.
