 Gaussian 09, Revision E.01,
 Gaussian 09:  ES64L-G09RevE.01 30-Nov-2015

 ----------------------------------------------------------------------
 #rhf/gen scf(symm,tight,novaracc,noincfock,fulldiag) stable(crhf) gues
 s=read geom=nocrowd test
 ----------------------------------------------------------------------

 ----------------------------------------------------------------------
 hf stability analysis of h12 triangular lattice, y= 1.0311871763068714
 ----------------------------------------------------------------------
 Symbolic Z-matrix:
 Charge =  0 Multiplicity = 1

                         Standard orientation:
 ---------------------------------------------------------------------
 Center     Atomic      Atomic             Coordinates (Angstroms)
 Number     Number       Type             X           Y           Z
 ---------------------------------------------------------------------
      1          1           0        0.984080    2.399140    0.000000
      2          1           0        0.000000    1.760071    0.000000
      3          1           0        0.984080    1.225759    0.000000
      4          1           0        0.000000    0.586690    0.000000
      5          1           0       -0.984080    1.121002    0.000000
      6          1           0       -0.984080   -0.052379    0.000000
      7          1           0       -0.984080   -1.225759    0.000000
      8          1           0       -0.000000   -0.586690    0.000000
      9          1           0        0.984080    0.052379   -0.000000
     10          1           0        0.984080   -1.121002   -0.000000
     11          1           0       -0.000000   -1.760071    0.000000
     12          1           0       -0.984080   -2.399140    0.000000
 ---------------------------------------------------------------------

 SCF Done:  E(RHF) =  -5.94524632838     A.U. after   13 cycles
 E2 =    -0.1122230713D+00 EUMP2 =    -0.60574693997109D+01

 The electronic state is 1-AG.
 Alpha  occ. eigenvalues --   -0.96157  -0.78932  -0.60902  -0.56655  -0.37508
 Alpha  occ. eigenvalues --   -0.32289
 Alpha virt. eigenvalues --    0.12766   0.20756   0.21891   0.38731   0.48716
 Alpha virt. eigenvalues --    0.56521

 Mulliken charges:
               1
     1  H   -0.111895
     2  H    0.082803
     3  H    0.068021
     4  H   -0.012619
     5  H   -0.063887
     6  H    0.037576
     7  H    0.068021
     8  H   -0.012619
     9  H    0.037576
    10  H   -0.063887
    11  H    0.082803
    12  H   -0.111895
 Sum of Mulliken charges =   0.00000

 Dipole moment (field-independent basis, Debye):
    X=             -0.0000    Y=             -0.0000    Z=             -0.0000  Tot=              0.0000
 Quadrupole moment (field-independent basis, Debye-Ang):
   XX=            -17.8227   YY=            -23.7712   ZZ=            -15.3572
   XY=             -1.3916   XZ=              0.0000   YZ=              0.0000

 Normal termination of Gaussian 09 at Fri Feb 17 15:05:03 2017.
