 Gaussian 09, Revision E.01,
 Gaussian 09:  ES64L-G09RevE.01 30-Nov-2015

 ----------------------------------------------------------------------
 #rhf/gen scf(symm,tight,novaracc,noincfock,fulldiag) stable(crhf) gues
 s=read geom=nocrowd test
 ----------------------------------------------------------------------

 ----------------------------------------------------------------------
 hf stability analysis of h12 triangular lattice, y= 1.5658605742718710
 ----------------------------------------------------------------------
 Symbolic Z-matrix:
 Charge =  0 Multiplicity = 1

                         Standard orientation:
 ---------------------------------------------------------------------
 Center     Atomic      Atomic             Coordinates (Angstroms)
 Number     Number       Type             X           Y           Z
 ---------------------------------------------------------------------
      1          1           0        0.717792    3.852695   -0.000000
      2          1           0        0.000000    2.413027   -0.000000
      3          1           0        0.717792    2.244010   -0.000000
      4          1           0        0.000000    0.804342   -0.000000
      5          1           0       -0.717792    0.973360    0.000000
      6          1           0       -0.717792   -0.635325    0.000000
      7          1           0       -0.717792   -2.244010    0.000000
      8          1           0       -0.000000   -0.804342    0.000000
      9          1           0        0.717792    0.635325    0.000000
     10          1           0        0.717792   -0.973360    0.000000
     11          1           0       -0.000000   -2.413027    0.000000
     12          1           0       -0.717792   -3.852695    0.000000
 ---------------------------------------------------------------------

 SCF Done:  E(RHF) =  -5.73508880020     A.U. after   16 cycles
 E2 =    -0.5342424892D+00 EUMP2 =    -0.62693312894453D+01

 The electronic state is 1-AG.
 Alpha  occ. eigenvalues --   -0.89109  -0.77368  -0.64333  -0.57978  -0.39074
 Alpha  occ. eigenvalues --   -0.16504
 Alpha virt. eigenvalues --   -0.08703   0.01365   0.42485   0.46517   0.69872
 Alpha virt. eigenvalues --    0.93028

 Mulliken charges:
               1
     1  H   -0.055554
     2  H   -0.003837
     3  H    0.036551
     4  H   -0.211229
     5  H    0.155417
     6  H    0.078653
     7  H    0.036551
     8  H   -0.211229
     9  H    0.078653
    10  H    0.155417
    11  H   -0.003837
    12  H   -0.055554
 Sum of Mulliken charges =   0.00000

 Dipole moment (field-independent basis, Debye):
    X=              0.0000    Y=             -0.0000    Z=              0.0000  Tot=              0.0000
 Quadrupole moment (field-independent basis, Debye-Ang):
   XX=            -15.5960   YY=            -25.7247   ZZ=            -15.3272
   XY=             -2.7662   XZ=              0.0000   YZ=              0.0000

 Normal termination of Gaussian 09 at Fri Feb 17 15:08:17 2017.
