 Gaussian 09, Revision E.01,
 Gaussian 09:  ES64L-G09RevE.01 30-Nov-2015

 ----------------------------------------------------------------------
 #rhf/gen scf(symm,tight,novaracc,noincfock,fulldiag) stable(crhf) gues
 s=read geom=nocrowd test
 ----------------------------------------------------------------------

 hf stability analysis of h12 triangular lattice, y= 0.6898774187181774
 3
 ----------------------------------------------------------------------
 Symbolic Z-matrix:
 Charge =  0 Multiplicity = 1

                         Standard orientation:
 ---------------------------------------------------------------------
 Center     Atomic      Atomic             Coordinates (Angstroms)
 Number     Number       Type             X           Y           Z
 ---------------------------------------------------------------------
      1          1           0        1.064653    1.419922   -0.000000
      2          1           0        0.000000    1.626869   -0.000000
      3          1           0        1.064653    0.335342   -0.000000
      4          1           0        0.000000    0.542290   -0.000000
      5          1           0       -1.064653    1.833817   -0.000000
      6          1           0       -1.064653    0.749237   -0.000000
      7          1           0       -1.064653   -0.335342   -0.000000
      8          1           0       -0.000000   -0.542290   -0.000000
      9          1           0        1.064653   -0.749237    0.000000
     10          1           0        1.064653   -1.833817   -0.000000
     11          1           0       -0.000000   -1.626869   -0.000000
     12          1           0       -1.064653   -1.419922   -0.000000
 ---------------------------------------------------------------------

 SCF Done:  E(RHF) =  -5.74284150114     A.U. after   15 cycles
 E2 =    -0.1204093298D+00 EUMP2 =    -0.58632508309575D+01

 The electronic state is 1-AG.
 Alpha  occ. eigenvalues --   -1.00585  -0.78989  -0.68763  -0.51695  -0.45658
 Alpha  occ. eigenvalues --   -0.21520
 Alpha virt. eigenvalues --   -0.01873   0.12238   0.22772   0.40281   0.56478
 Alpha virt. eigenvalues --    0.86675

 Mulliken charges:
               1
     1  H   -0.064432
     2  H    0.091657
     3  H    0.136920
     4  H    0.029027
     5  H   -0.265349
     6  H    0.072177
     7  H    0.136920
     8  H    0.029027
     9  H    0.072177
    10  H   -0.265349
    11  H    0.091657
    12  H   -0.064432
 Sum of Mulliken charges =  -0.00000

 Dipole moment (field-independent basis, Debye):
    X=             -0.0000    Y=              0.0000    Z=              0.0000  Tot=              0.0000
 Quadrupole moment (field-independent basis, Debye-Ang):
   XX=            -17.7025   YY=            -28.1617   ZZ=            -15.1357
   XY=              4.7996   XZ=             -0.0000   YZ=             -0.0000

 Normal termination of Gaussian 09 at Fri Feb 17 15:00:29 2017.
