 Gaussian 09, Revision E.01,
 Gaussian 09:  ES64L-G09RevE.01 30-Nov-2015

 ----------------------------------------------------------------------
 #rhf/gen scf(symm,tight,novaracc,noincfock,fulldiag) stable(crhf) gues
 s=read geom=nocrowd test
 ----------------------------------------------------------------------

 hf stability analysis of h12 triangular lattice, y= 0.7337491795890599
 4
 ----------------------------------------------------------------------
 Symbolic Z-matrix:
 Charge =  0 Multiplicity = 1

                         Standard orientation:
 ---------------------------------------------------------------------
 Center     Atomic      Atomic             Coordinates (Angstroms)
 Number     Number       Type             X           Y           Z
 ---------------------------------------------------------------------
      1          1           0        1.073260    1.538772   -0.000000
      2          1           0        0.000000    1.613822   -0.000000
      3          1           0        1.073260    0.462891   -0.000000
      4          1           0        0.000000    0.537941   -0.000000
      5          1           0       -1.073260    1.688871   -0.000000
      6          1           0       -1.073260    0.612990   -0.000000
      7          1           0       -1.073260   -0.462891    0.000000
      8          1           0       -0.000000   -0.537941    0.000000
      9          1           0        1.073260   -0.612990   -0.000000
     10          1           0        1.073260   -1.688871   -0.000000
     11          1           0       -0.000000   -1.613822    0.000000
     12          1           0       -1.073260   -1.538772    0.000000
 ---------------------------------------------------------------------

 SCF Done:  E(RHF) =  -5.67932117160     A.U. after   15 cycles
 E2 =    -0.1256712468D+00 EUMP2 =    -0.58049924183985D+01

 The electronic state is 1-AG.
 Alpha  occ. eigenvalues --   -1.01277  -0.79028  -0.68957  -0.50670  -0.47277
 Alpha  occ. eigenvalues --   -0.18857
 Alpha virt. eigenvalues --   -0.03173   0.09074   0.21594   0.44253   0.54388
 Alpha virt. eigenvalues --    0.92708

 Mulliken charges:
               1
     1  H   -0.081268
     2  H    0.071914
     3  H    0.117744
     4  H    0.076192
     5  H   -0.245749
     6  H    0.061166
     7  H    0.117744
     8  H    0.076192
     9  H    0.061166
    10  H   -0.245749
    11  H    0.071914
    12  H   -0.081268
 Sum of Mulliken charges =  -0.00000

 Dipole moment (field-independent basis, Debye):
    X=              0.0000    Y=             -0.0000    Z=              0.0000  Tot=              0.0000
 Quadrupole moment (field-independent basis, Debye-Ang):
   XX=            -18.2243   YY=            -27.3136   ZZ=            -15.0763
   XY=              3.8976   XZ=             -0.0000   YZ=              0.0000

 Normal termination of Gaussian 09 at Fri Feb 17 15:01:12 2017.
