 Gaussian 09, Revision E.01,
 Gaussian 09:  ES64L-G09RevE.01 30-Nov-2015

 ----------------------------------------------------------------------
 #rhf/gen scf(symm,tight,novaracc,noincfock,fulldiag) stable(crhf) gues
 s=read geom=nocrowd test
 ----------------------------------------------------------------------

 hf stability analysis of h12 triangular lattice, y= 0.6960275979088506
 0
 ----------------------------------------------------------------------
 Symbolic Z-matrix:
 Charge =  0 Multiplicity = 1

                         Standard orientation:
 ---------------------------------------------------------------------
 Center     Atomic      Atomic             Coordinates (Angstroms)
 Number     Number       Type             X           Y           Z
 ---------------------------------------------------------------------
      1          1           0        1.066376    1.436209    0.000000
      2          1           0       -0.000000    1.624240   -0.000000
      3          1           0        1.066376    0.353382    0.000000
      4          1           0       -0.000000    0.541413   -0.000000
      5          1           0       -1.066376    1.812271   -0.000000
      6          1           0       -1.066376    0.729444   -0.000000
      7          1           0       -1.066376   -0.353382    0.000000
      8          1           0       -0.000000   -0.541413   -0.000000
      9          1           0        1.066376   -0.729444   -0.000000
     10          1           0        1.066376   -1.812271   -0.000000
     11          1           0       -0.000000   -1.624240   -0.000000
     12          1           0       -1.066376   -1.436209    0.000000
 ---------------------------------------------------------------------

 SCF Done:  E(RHF) =  -5.73289762770     A.U. after   15 cycles
 E2 =    -0.1210775730D+00 EUMP2 =    -0.58539752006599D+01

 The electronic state is 1-AG.
 Alpha  occ. eigenvalues --   -1.00623  -0.78956  -0.68822  -0.51486  -0.45921
 Alpha  occ. eigenvalues --   -0.21089
 Alpha virt. eigenvalues --   -0.02079   0.11769   0.22540   0.41022   0.56223
 Alpha virt. eigenvalues --    0.87909

 Mulliken charges:
               1
     1  H   -0.064146
     2  H    0.088881
     3  H    0.135731
     4  H    0.033211
     5  H   -0.264857
     6  H    0.071181
     7  H    0.135731
     8  H    0.033211
     9  H    0.071181
    10  H   -0.264857
    11  H    0.088881
    12  H   -0.064146
 Sum of Mulliken charges =  -0.00000

 Dipole moment (field-independent basis, Debye):
    X=              0.0000    Y=             -0.0000    Z=              0.0000  Tot=              0.0000
 Quadrupole moment (field-independent basis, Debye-Ang):
   XX=            -17.7168   YY=            -28.0608   ZZ=            -15.1257
   XY=              4.7746   XZ=             -0.0000   YZ=              0.0000

 Normal termination of Gaussian 09 at Fri Feb 17 15:00:35 2017.
