 Gaussian 09, Revision E.01,
 Gaussian 09:  ES64L-G09RevE.01 30-Nov-2015

 ----------------------------------------------------------------------
 #rhf/gen scf(symm,tight,novaracc,noincfock,fulldiag) stable(crhf) gues
 s=read geom=nocrowd test
 ----------------------------------------------------------------------

 hf stability analysis of h12 triangular lattice, y= 0.5715322184328752
 7
 ----------------------------------------------------------------------
 Symbolic Z-matrix:
 Charge =  0 Multiplicity = 1

                         Standard orientation:
 ---------------------------------------------------------------------
 Center     Atomic      Atomic             Coordinates (Angstroms)
 Number     Number       Type             X           Y           Z
 ---------------------------------------------------------------------
      1          1           0        0.994873    1.143198   -0.000000
      2          1           0        0.000000    1.740977   -0.000000
      3          1           0        0.994873   -0.017454    0.000000
      4          1           0        0.000000    0.580326   -0.000000
      5          1           0       -0.994873    2.338757   -0.000000
      6          1           0       -0.994873    1.178106   -0.000000
      7          1           0       -0.994873    0.017454    0.000000
      8          1           0       -0.000000   -0.580326   -0.000000
      9          1           0        0.994873   -1.178106   -0.000000
     10          1           0        0.994873   -2.338757   -0.000000
     11          1           0       -0.000000   -1.740977   -0.000000
     12          1           0       -0.994873   -1.143198    0.000000
 ---------------------------------------------------------------------

 SCF Done:  E(RHF) =  -5.93314368678     A.U. after   13 cycles
 E2 =    -0.1126802897D+00 EUMP2 =    -0.60458239764618D+01

 The electronic state is 1-AG.
 Alpha  occ. eigenvalues --   -0.96893  -0.79069  -0.62094  -0.56244  -0.38470
 Alpha  occ. eigenvalues --   -0.31294
 Alpha virt. eigenvalues --    0.10690   0.21132   0.22517   0.36855   0.51907
 Alpha virt. eigenvalues --    0.56940

 Mulliken charges:
               1
     1  H   -0.061614
     2  H    0.085555
     3  H    0.052297
     4  H   -0.009899
     5  H   -0.133833
     6  H    0.067493
     7  H    0.052297
     8  H   -0.009899
     9  H    0.067493
    10  H   -0.133833
    11  H    0.085555
    12  H   -0.061614
 Sum of Mulliken charges =  -0.00000

 Dipole moment (field-independent basis, Debye):
    X=              0.0000    Y=             -0.0000    Z=              0.0000  Tot=              0.0000
 Quadrupole moment (field-independent basis, Debye-Ang):
   XX=            -17.7916   YY=            -24.8082   ZZ=            -15.3366
   XY=              1.9693   XZ=              0.0000   YZ=              0.0000

 Normal termination of Gaussian 09 at Fri Feb 17 14:58:18 2017.
