 Gaussian 09, Revision E.01,
 Gaussian 09:  ES64L-G09RevE.01 30-Nov-2015

 ----------------------------------------------------------------------
 #rhf/gen scf(symm,tight,novaracc,noincfock,fulldiag) stable(crhf) gues
 s=read geom=nocrowd test
 ----------------------------------------------------------------------

 ----------------------------------------------------------------------
 hf stability analysis of h12 triangular lattice, y= 1.1592321887657087
 ----------------------------------------------------------------------
 Symbolic Z-matrix:
 Charge =  0 Multiplicity = 1

                         Standard orientation:
 ---------------------------------------------------------------------
 Center     Atomic      Atomic             Coordinates (Angstroms)
 Number     Number       Type             X           Y           Z
 ---------------------------------------------------------------------
      1          1           0        0.915200    2.761031    0.000000
      2          1           0        0.000000    1.892539   -0.000000
      3          1           0        0.915200    1.499338    0.000000
      4          1           0        0.000000    0.630846   -0.000000
      5          1           0       -0.915200    1.024047   -0.000000
      6          1           0       -0.915200   -0.237646   -0.000000
      7          1           0       -0.915200   -1.499338    0.000000
      8          1           0       -0.000000   -0.630846   -0.000000
      9          1           0        0.915200    0.237646   -0.000000
     10          1           0        0.915200   -1.024047   -0.000000
     11          1           0       -0.000000   -1.892539   -0.000000
     12          1           0       -0.915200   -2.761031   -0.000000
 ---------------------------------------------------------------------

 SCF Done:  E(RHF) =  -5.95764891503     A.U. after   12 cycles
 E2 =    -0.1104685918D+00 EUMP2 =    -0.60681175067998D+01

 The electronic state is 1-AG.
 Alpha  occ. eigenvalues --   -0.91040  -0.77517  -0.58525  -0.53084  -0.37248
 Alpha  occ. eigenvalues --   -0.31256
 Alpha virt. eigenvalues --    0.09723   0.23415   0.28343   0.29254   0.54297
 Alpha virt. eigenvalues --    0.57813

 Mulliken charges:
               1
     1  H    0.022442
     2  H    0.067429
     3  H    0.073563
     4  H   -0.025602
     5  H   -0.093912
     6  H   -0.043920
     7  H    0.073563
     8  H   -0.025602
     9  H   -0.043920
    10  H   -0.093912
    11  H    0.067429
    12  H    0.022442
 Sum of Mulliken charges =  -0.00000

 Dipole moment (field-independent basis, Debye):
    X=              0.0000    Y=              0.0000    Z=              0.0000  Tot=              0.0000
 Quadrupole moment (field-independent basis, Debye-Ang):
   XX=            -18.0948   YY=            -14.8089   ZZ=            -15.4605
   XY=              2.4075   XZ=              0.0000   YZ=             -0.0000

 Normal termination of Gaussian 09 at Fri Feb 17 15:06:11 2017.
