 Gaussian 09, Revision E.01,
 Gaussian 09:  ES64L-G09RevE.01 30-Nov-2015

 ----------------------------------------------------------------------
 #rhf/gen scf(symm,tight,novaracc,noincfock,fulldiag) stable(crhf) gues
 s=read geom=nocrowd test
 ----------------------------------------------------------------------

 hf stability analysis of h12 triangular lattice, y= 0.9949868959062069
 3
 ----------------------------------------------------------------------
 Symbolic Z-matrix:
 Charge =  0 Multiplicity = 1

                         Standard orientation:
 ---------------------------------------------------------------------
 Center     Atomic      Atomic             Coordinates (Angstroms)
 Number     Number       Type             X           Y           Z
 ---------------------------------------------------------------------
      1          1           0        1.002497    2.294922   -0.000000
      2          1           0        0.000000    1.727737   -0.000000
      3          1           0        1.002497    1.143098   -0.000000
      4          1           0        0.000000    0.575912   -0.000000
      5          1           0       -1.002497    1.160551    0.000000
      6          1           0       -1.002497    0.008727    0.000000
      7          1           0       -1.002497   -1.143098   -0.000000
      8          1           0       -0.000000   -0.575912   -0.000000
      9          1           0        1.002497   -0.008727    0.000000
     10          1           0        1.002497   -1.160551    0.000000
     11          1           0       -0.000000   -1.727737   -0.000000
     12          1           0       -1.002497   -2.294922   -0.000000
 ---------------------------------------------------------------------

 SCF Done:  E(RHF) =  -5.92260827206     A.U. after   13 cycles
 E2 =    -0.1130500370D+00 EUMP2 =    -0.60356583090234D+01

 The electronic state is 1-AG.
 Alpha  occ. eigenvalues --   -0.97400  -0.79149  -0.62929  -0.55928  -0.39154
 Alpha  occ. eigenvalues --   -0.30543
 Alpha virt. eigenvalues --    0.09187   0.20550   0.23895   0.35287   0.54601
 Alpha virt. eigenvalues --    0.57216

 Mulliken charges:
               1
     1  H   -0.149553
     2  H    0.087624
     3  H    0.067265
     4  H   -0.007806
     5  H   -0.060601
     6  H    0.063071
     7  H    0.067265
     8  H   -0.007806
     9  H    0.063071
    10  H   -0.060601
    11  H    0.087624
    12  H   -0.149553
 Sum of Mulliken charges =   0.00000

 Dipole moment (field-independent basis, Debye):
    X=             -0.0000    Y=              0.0000    Z=              0.0000  Tot=              0.0000
 Quadrupole moment (field-independent basis, Debye-Ang):
   XX=            -17.7726   YY=            -25.4812   ZZ=            -15.3213
   XY=             -2.3705   XZ=             -0.0000   YZ=             -0.0000

 Normal termination of Gaussian 09 at Fri Feb 17 15:04:42 2017.
