 Gaussian 09, Revision E.01,
 Gaussian 09:  ES64L-G09RevE.01 30-Nov-2015

 ----------------------------------------------------------------------
 #rhf/gen scf(symm,tight,novaracc,noincfock,fulldiag) stable(crhf) gues
 s=read geom=nocrowd test
 ----------------------------------------------------------------------

 hf stability analysis of h12 triangular lattice, y= 0.7834165171194891
 2
 ----------------------------------------------------------------------
 Symbolic Z-matrix:
 Charge =  0 Multiplicity = 1

                         Standard orientation:
 ---------------------------------------------------------------------
 Center     Atomic      Atomic             Coordinates (Angstroms)
 Number     Number       Type             X           Y           Z
 ---------------------------------------------------------------------
      1          1           0        1.073567    1.679022   -0.000000
      2          1           0        0.000000    1.613360    0.000000
      3          1           0        1.073567    0.603449   -0.000000
      4          1           0        0.000000    0.537787    0.000000
      5          1           0       -1.073567    1.547698    0.000000
      6          1           0       -1.073567    0.472125    0.000000
      7          1           0       -1.073567   -0.603449   -0.000000
      8          1           0       -0.000000   -0.537787    0.000000
      9          1           0        1.073567   -0.472125    0.000000
     10          1           0        1.073567   -1.547698    0.000000
     11          1           0       -0.000000   -1.613360    0.000000
     12          1           0       -1.073567   -1.679022    0.000000
 ---------------------------------------------------------------------

 SCF Done:  E(RHF) =  -5.67564025514     A.U. after   21 cycles
 E2 =    -0.1260777328D+00 EUMP2 =    -0.58017179879779D+01

 The electronic state is 1-AG.
 Alpha  occ. eigenvalues --   -1.01430  -0.79082  -0.68990  -0.50659  -0.47375
 Alpha  occ. eigenvalues --   -0.18713
 Alpha virt. eigenvalues --   -0.03317   0.08853   0.21508   0.44366   0.54207
 Alpha virt. eigenvalues --    0.92841

 Mulliken charges:
               1
     1  H   -0.243272
     2  H    0.071922
     3  H    0.060851
     4  H    0.081832
     5  H   -0.086921
     6  H    0.115588
     7  H    0.060851
     8  H    0.081832
     9  H    0.115588
    10  H   -0.086921
    11  H    0.071922
    12  H   -0.243272
 Sum of Mulliken charges =  -0.00000

 Dipole moment (field-independent basis, Debye):
    X=              0.0000    Y=             -0.0000    Z=              0.0000  Tot=              0.0000
 Quadrupole moment (field-independent basis, Debye-Ang):
   XX=            -18.3350   YY=            -27.2760   ZZ=            -15.0741
   XY=             -3.7116   XZ=              0.0000   YZ=              0.0000

 Normal termination of Gaussian 09 at Fri Feb 17 15:01:59 2017.
