 Gaussian 09, Revision E.01,
 Gaussian 09:  ES64L-G09RevE.01 30-Nov-2015

 ----------------------------------------------------------------------
 #rhf/gen scf(symm,tight,novaracc,noincfock,fulldiag) stable(crhf) gues
 s=read geom=nocrowd test
 ----------------------------------------------------------------------

 hf stability analysis of h12 triangular lattice, y= 0.3650915174764740
 0
 ----------------------------------------------------------------------
 Symbolic Z-matrix:
 Charge =  0 Multiplicity = 1

                         Standard orientation:
 ---------------------------------------------------------------------
 Center     Atomic      Atomic             Coordinates (Angstroms)
 Number     Number       Type             X           Y           Z
 ---------------------------------------------------------------------
      1          1           0        0.711468    0.975746    0.000000
      2          1           0        0.000000    2.434473    0.000000
      3          1           0        0.711468   -0.647236    0.000000
      4          1           0        0.000000    0.811491    0.000000
      5          1           0       -0.711468    3.893200    0.000000
      6          1           0       -0.711468    2.270218    0.000000
      7          1           0       -0.711468    0.647236    0.000000
      8          1           0        0.000000   -0.811491    0.000000
      9          1           0        0.711468   -2.270218    0.000000
     10          1           0        0.711468   -3.893200    0.000000
     11          1           0        0.000000   -2.434473    0.000000
     12          1           0       -0.711468   -0.975746    0.000000
 ---------------------------------------------------------------------

 SCF Done:  E(RHF) =  -5.72810484582     A.U. after   13 cycles
 E2 =    -0.5572244758D+00 EUMP2 =    -0.62853293216491D+01

 The electronic state is 1-AG.
 Alpha  occ. eigenvalues --   -0.89147  -0.77546  -0.64534  -0.58638  -0.38688
 Alpha  occ. eigenvalues --   -0.16670
 Alpha virt. eigenvalues --   -0.09090   0.01544   0.42967   0.46793   0.71218
 Alpha virt. eigenvalues --    0.94231

 Mulliken charges:
               1
     1  H    0.156533
     2  H   -0.003175
     3  H    0.085893
     4  H   -0.217402
     5  H   -0.053842
     6  H    0.031993
     7  H    0.085893
     8  H   -0.217402
     9  H    0.031993
    10  H   -0.053842
    11  H   -0.003175
    12  H    0.156533
 Sum of Mulliken charges =  -0.00000

 Dipole moment (field-independent basis, Debye):
    X=             -0.0000    Y=             -0.0000    Z=              0.0000  Tot=              0.0000
 Quadrupole moment (field-independent basis, Debye-Ang):
   XX=            -15.6152   YY=            -25.7396   ZZ=            -15.3346
   XY=              2.7258   XZ=             -0.0000   YZ=              0.0000

 Normal termination of Gaussian 09 at Fri Feb 17 14:54:49 2017.
