 Gaussian 09, Revision E.01,
 Gaussian 09:  ES64L-G09RevE.01 30-Nov-2015

 ----------------------------------------------------------------------
 #rhf/gen scf(symm,tight,novaracc,noincfock,fulldiag) stable(crhf) gues
 s=read geom=nocrowd test
 ----------------------------------------------------------------------

 ----------------------------------------------------------------------
 hf stability analysis of h12 triangular lattice, y= 1.0420355127918348
 ----------------------------------------------------------------------
 Symbolic Z-matrix:
 Charge =  0 Multiplicity = 1

                         Standard orientation:
 ---------------------------------------------------------------------
 Center     Atomic      Atomic             Coordinates (Angstroms)
 Number     Number       Type             X           Y           Z
 ---------------------------------------------------------------------
      1          1           0        0.978412    2.430215    0.000000
      2          1           0        0.000000    1.770267   -0.000000
      3          1           0        0.978412    1.250036    0.000000
      4          1           0        0.000000    0.590089   -0.000000
      5          1           0       -0.978412    1.110320   -0.000000
      6          1           0       -0.978412   -0.069858   -0.000000
      7          1           0       -0.978412   -1.250036    0.000000
      8          1           0       -0.000000   -0.590089   -0.000000
      9          1           0        0.978412    0.069858   -0.000000
     10          1           0        0.978412   -1.110320   -0.000000
     11          1           0       -0.000000   -1.770267   -0.000000
     12          1           0       -0.978412   -2.430215    0.000000
 ---------------------------------------------------------------------

 SCF Done:  E(RHF) =  -5.95036487197     A.U. after   13 cycles
 E2 =    -0.1120097174D+00 EUMP2 =    -0.60623745893964D+01

 The electronic state is 1-AG.
 Alpha  occ. eigenvalues --   -0.95763  -0.78850  -0.60272  -0.56854  -0.37004
 Alpha  occ. eigenvalues --   -0.32782
 Alpha virt. eigenvalues --    0.13779   0.19966   0.22263   0.39330   0.47545
 Alpha virt. eigenvalues --    0.56296

 Mulliken charges:
               1
     1  H   -0.100508
     2  H    0.081431
     3  H    0.068366
     4  H   -0.013946
     5  H   -0.065439
     6  H    0.030096
     7  H    0.068366
     8  H   -0.013946
     9  H    0.030096
    10  H   -0.065439
    11  H    0.081431
    12  H   -0.100508
 Sum of Mulliken charges =  -0.00000

 Dipole moment (field-independent basis, Debye):
    X=             -0.0000    Y=             -0.0000    Z=              0.0000  Tot=              0.0000
 Quadrupole moment (field-independent basis, Debye-Ang):
   XX=            -17.8408   YY=            -23.1876   ZZ=            -15.3674
   XY=             -1.0847   XZ=              0.0000   YZ=              0.0000

 Normal termination of Gaussian 09 at Fri Feb 17 15:05:12 2017.
