 Gaussian 09, Revision E.01,
 Gaussian 09:  ES64L-G09RevE.01 30-Nov-2015

 ----------------------------------------------------------------------
 #rhf/gen scf(symm,tight,novaracc,noincfock,fulldiag) stable(crhf) gues
 s=read geom=nocrowd test
 ----------------------------------------------------------------------

 ----------------------------------------------------------------------
 hf stability analysis of h12 triangular lattice, y= 1.2768661018621295
 ----------------------------------------------------------------------
 Symbolic Z-matrix:
 Charge =  0 Multiplicity = 1

                         Standard orientation:
 ---------------------------------------------------------------------
 Center     Atomic      Atomic             Coordinates (Angstroms)
 Number     Number       Type             X           Y           Z
 ---------------------------------------------------------------------
      1          1           0        0.852453    3.084535   -0.000000
      2          1           0        0.000000    2.031843   -0.000000
      3          1           0        0.852453    1.729973   -0.000000
      4          1           0        0.000000    0.677281   -0.000000
      5          1           0       -0.852453    0.979150   -0.000000
      6          1           0       -0.852453   -0.375411   -0.000000
      7          1           0       -0.852453   -1.729973   -0.000000
      8          1           0       -0.000000   -0.677281   -0.000000
      9          1           0        0.852453    0.375411    0.000000
     10          1           0        0.852453   -0.979150    0.000000
     11          1           0       -0.000000   -2.031843   -0.000000
     12          1           0       -0.852453   -3.084535   -0.000000
 ---------------------------------------------------------------------

 SCF Done:  E(RHF) =  -5.88711927046     A.U. after   14 cycles
 E2 =    -0.1103043428D+00 EUMP2 =    -0.59974236132737D+01

 The electronic state is 1-AG.
 Alpha  occ. eigenvalues --   -0.85897  -0.75636  -0.59477  -0.46415  -0.39543
 Alpha  occ. eigenvalues --   -0.25148
 Alpha virt. eigenvalues --    0.02344   0.11788   0.31361   0.40403   0.56153
 Alpha virt. eigenvalues --    0.73613

 Mulliken charges:
               1
     1  H    0.138088
     2  H    0.043644
     3  H    0.088642
     4  H   -0.034739
     5  H   -0.123338
     6  H   -0.112297
     7  H    0.088642
     8  H   -0.034739
     9  H   -0.112297
    10  H   -0.123338
    11  H    0.043644
    12  H    0.138088
 Sum of Mulliken charges =   0.00000

 Dipole moment (field-independent basis, Debye):
    X=             -0.0000    Y=             -0.0000    Z=             -0.0000  Tot=              0.0000
 Quadrupole moment (field-independent basis, Debye-Ang):
   XX=            -18.2977   YY=             -3.0080   ZZ=            -15.5143
   XY=              5.8274   XZ=             -0.0000   YZ=              0.0000

 Normal termination of Gaussian 09 at Fri Feb 17 15:06:57 2017.
