 Gaussian 09, Revision E.01,
 Gaussian 09:  ES64L-G09RevE.01 30-Nov-2015

 ----------------------------------------------------------------------
 #rhf/gen scf(symm,tight,novaracc,noincfock,fulldiag) stable(crhf) gues
 s=read geom=nocrowd test
 ----------------------------------------------------------------------

 hf stability analysis of h12 triangular lattice, y= 0.6595943070875844
 9
 ----------------------------------------------------------------------
 Symbolic Z-matrix:
 Charge =  0 Multiplicity = 1

                         Standard orientation:
 ---------------------------------------------------------------------
 Center     Atomic      Atomic             Coordinates (Angstroms)
 Number     Number       Type             X           Y           Z
 ---------------------------------------------------------------------
      1          1           0        1.053551    1.341912    0.000000
      2          1           0        0.000000    1.644013   -0.000000
      3          1           0        1.053551    0.245903    0.000000
      4          1           0        0.000000    0.548004   -0.000000
      5          1           0       -1.053551    1.946113   -0.000000
      6          1           0       -1.053551    0.850105   -0.000000
      7          1           0       -1.053551   -0.245903    0.000000
      8          1           0       -0.000000   -0.548004   -0.000000
      9          1           0        1.053551   -0.850105   -0.000000
     10          1           0        1.053551   -1.946113   -0.000000
     11          1           0       -0.000000   -1.644013   -0.000000
     12          1           0       -1.053551   -1.341912    0.000000
 ---------------------------------------------------------------------

 SCF Done:  E(RHF) =  -5.79444497439     A.U. after   14 cycles
 E2 =    -0.1176405126D+00 EUMP2 =    -0.59120854869964D+01

 The electronic state is 1-AG.
 Alpha  occ. eigenvalues --   -1.00269  -0.79172  -0.68075  -0.52838  -0.44199
 Alpha  occ. eigenvalues --   -0.23817
 Alpha virt. eigenvalues --   -0.00316   0.14631   0.24555   0.36196   0.57471
 Alpha virt. eigenvalues --    0.79295

 Mulliken charges:
               1
     1  H   -0.065325
     2  H    0.099255
     3  H    0.133565
     4  H    0.014377
     5  H   -0.254477
     6  H    0.072606
     7  H    0.133565
     8  H    0.014377
     9  H    0.072606
    10  H   -0.254477
    11  H    0.099255
    12  H   -0.065325
 Sum of Mulliken charges =  -0.00000

 Dipole moment (field-independent basis, Debye):
    X=             -0.0000    Y=             -0.0000    Z=              0.0000  Tot=              0.0000
 Quadrupole moment (field-independent basis, Debye-Ang):
   XX=            -17.6986   YY=            -28.3403   ZZ=            -15.1862
   XY=              4.6451   XZ=              0.0000   YZ=             -0.0000

 Normal termination of Gaussian 09 at Thu Feb 16 18:52:23 2017.
