 Gaussian 09, Revision E.01,
 Gaussian 09:  ES64L-G09RevE.01 30-Nov-2015

 ----------------------------------------------------------------------
 #rhf/gen scf(symm,tight,novaracc,noincfock,fulldiag) stable(crhf) gues
 s=read geom=nocrowd test
 ----------------------------------------------------------------------

 hf stability analysis of h12 triangular lattice, y= 0.5365223526570523
 9
 ----------------------------------------------------------------------
 Symbolic Z-matrix:
 Charge =  0 Multiplicity = 1

                         Standard orientation:
 ---------------------------------------------------------------------
 Center     Atomic      Atomic             Coordinates (Angstroms)
 Number     Number       Type             X           Y           Z
 ---------------------------------------------------------------------
      1          1           0        0.960305    1.080006   -0.000000
      2          1           0        0.000000    1.803647   -0.000000
      3          1           0        0.960305   -0.122426   -0.000000
      4          1           0        0.000000    0.601216   -0.000000
      5          1           0       -0.960305    2.527289   -0.000000
      6          1           0       -0.960305    1.324857   -0.000000
      7          1           0       -0.960305    0.122426   -0.000000
      8          1           0       -0.000000   -0.601216    0.000000
      9          1           0        0.960305   -1.324857    0.000000
     10          1           0        0.960305   -2.527289    0.000000
     11          1           0       -0.000000   -1.803647    0.000000
     12          1           0       -0.960305   -1.080006   -0.000000
 ---------------------------------------------------------------------

 SCF Done:  E(RHF) =  -5.96142880653     A.U. after   13 cycles
 E2 =    -0.1114299973D+00 EUMP2 =    -0.60728588037822D+01

 The electronic state is 1-AG.
 Alpha  occ. eigenvalues --   -0.94469  -0.78542  -0.58240  -0.57429  -0.35387
 Alpha  occ. eigenvalues --   -0.34245
 Alpha virt. eigenvalues --    0.15156   0.19524   0.23333   0.37673   0.47885
 Alpha virt. eigenvalues --    0.55585

 Mulliken charges:
               1
     1  H   -0.071799
     2  H    0.077304
     3  H    0.007288
     4  H   -0.017798
     5  H   -0.064647
     6  H    0.069653
     7  H    0.007288
     8  H   -0.017798
     9  H    0.069653
    10  H   -0.064647
    11  H    0.077304
    12  H   -0.071799
 Sum of Mulliken charges =  -0.00000

 Dipole moment (field-independent basis, Debye):
    X=             -0.0000    Y=              0.0000    Z=              0.0000  Tot=              0.0000
 Quadrupole moment (field-independent basis, Debye-Ang):
   XX=            -17.9056   YY=            -21.1427   ZZ=            -15.3980
   XY=              0.0938   XZ=             -0.0000   YZ=              0.0000

 Normal termination of Gaussian 09 at Fri Feb 17 14:57:41 2017.
