 Gaussian 09, Revision E.01,
 Gaussian 09:  ES64L-G09RevE.01 30-Nov-2015

 ----------------------------------------------------------------------
 #rhf/gen scf(symm,tight,novaracc,noincfock,fulldiag) stable(crhf) gues
 s=read geom=nocrowd test
 ----------------------------------------------------------------------

 hf stability analysis of h12 triangular lattice, y= 0.9208433600613213
 9
 ----------------------------------------------------------------------
 Symbolic Z-matrix:
 Charge =  0 Multiplicity = 1

                         Standard orientation:
 ---------------------------------------------------------------------
 Center     Atomic      Atomic             Coordinates (Angstroms)
 Number     Number       Type             X           Y           Z
 ---------------------------------------------------------------------
      1          1           0        1.036510    2.079333   -0.000000
      2          1           0        0.000000    1.671041   -0.000000
      3          1           0        1.036510    0.965306   -0.000000
      4          1           0        0.000000    0.557014   -0.000000
      5          1           0       -1.036510    1.262748   -0.000000
      6          1           0       -1.036510    0.148721   -0.000000
      7          1           0       -1.036510   -0.965306   -0.000000
      8          1           0       -0.000000   -0.557014   -0.000000
      9          1           0        1.036510   -0.148721    0.000000
     10          1           0        1.036510   -1.262748   -0.000000
     11          1           0       -0.000000   -1.671041   -0.000000
     12          1           0       -1.036510   -2.079333   -0.000000
 ---------------------------------------------------------------------

 SCF Done:  E(RHF) =  -5.85127756187     A.U. after   14 cycles
 E2 =    -0.1154354026D+00 EUMP2 =    -0.59667129644884D+01

 The electronic state is 1-AG.
 Alpha  occ. eigenvalues --   -0.99472  -0.79291  -0.66519  -0.54136  -0.42349
 Alpha  occ. eigenvalues --   -0.26516
 Alpha virt. eigenvalues --    0.02619   0.17206   0.27909   0.31305   0.57904
 Alpha virt. eigenvalues --    0.69637

 Mulliken charges:
               1
     1  H   -0.221483
     2  H    0.097548
     3  H    0.069235
     4  H    0.004178
     5  H   -0.062555
     6  H    0.113077
     7  H    0.069235
     8  H    0.004178
     9  H    0.113077
    10  H   -0.062555
    11  H    0.097548
    12  H   -0.221483
 Sum of Mulliken charges =  -0.00000

 Dipole moment (field-independent basis, Debye):
    X=             -0.0000    Y=              0.0000    Z=              0.0000  Tot=              0.0000
 Quadrupole moment (field-independent basis, Debye-Ang):
   XX=            -17.7185   YY=            -27.8029   ZZ=            -15.2409
   XY=             -4.0224   XZ=              0.0000   YZ=              0.0000

 Normal termination of Gaussian 09 at Fri Feb 17 15:03:52 2017.
