 Gaussian 09, Revision E.01,
 Gaussian 09:  ES64L-G09RevE.01 30-Nov-2015

 ----------------------------------------------------------------------
 #rhf/gen scf(symm,tight,novaracc,noincfock,fulldiag) stable(crhf) gues
 s=read geom=nocrowd test
 ----------------------------------------------------------------------

 hf stability analysis of h12 triangular lattice, y= 0.8873592600485348
 3
 ----------------------------------------------------------------------
 Symbolic Z-matrix:
 Charge =  0 Multiplicity = 1

                         Standard orientation:
 ---------------------------------------------------------------------
 Center     Atomic      Atomic             Coordinates (Angstroms)
 Number     Number       Type             X           Y           Z
 ---------------------------------------------------------------------
      1          1           0        1.049408    1.981380    0.000000
      2          1           0        0.000000    1.650503    0.000000
      3          1           0        1.049408    0.881045    0.000000
      4          1           0        0.000000    0.550168    0.000000
      5          1           0       -1.049408    1.319625   -0.000000
      6          1           0       -1.049408    0.219290   -0.000000
      7          1           0       -1.049408   -0.881045    0.000000
      8          1           0       -0.000000   -0.550168    0.000000
      9          1           0        1.049408   -0.219290   -0.000000
     10          1           0        1.049408   -1.319625    0.000000
     11          1           0       -0.000000   -1.650503    0.000000
     12          1           0       -1.049408   -1.981380    0.000000
 ---------------------------------------------------------------------

 SCF Done:  E(RHF) =  -5.81014938411     A.U. after   15 cycles
 E2 =    -0.1169713616D+00 EUMP2 =    -0.59271207456991D+01

 The electronic state is 1-AG.
 Alpha  occ. eigenvalues --   -1.00103  -0.79218  -0.67731  -0.53194  -0.43719
 Alpha  occ. eigenvalues --   -0.24540
 Alpha virt. eigenvalues --    0.00353   0.15349   0.25319   0.34891   0.57663
 Alpha virt. eigenvalues --    0.76780

 Mulliken charges:
               1
     1  H   -0.247315
     2  H    0.099605
     3  H    0.071785
     4  H    0.011245
     5  H   -0.064885
     6  H    0.129565
     7  H    0.071785
     8  H    0.011245
     9  H    0.129565
    10  H   -0.064885
    11  H    0.099605
    12  H   -0.247315
 Sum of Mulliken charges =  -0.00000

 Dipole moment (field-independent basis, Debye):
    X=             -0.0000    Y=             -0.0000    Z=             -0.0000  Tot=              0.0000
 Quadrupole moment (field-independent basis, Debye-Ang):
   XX=            -17.7040   YY=            -28.2732   ZZ=            -15.2012
   XY=             -4.5195   XZ=              0.0000   YZ=              0.0000

 Normal termination of Gaussian 09 at Fri Feb 17 15:03:28 2017.
