 Gaussian 09, Revision E.01,
 Gaussian 09:  ES64L-G09RevE.01 30-Nov-2015

 ----------------------------------------------------------------------
 #rhf/gen scf(symm,tight,novaracc,noincfock,fulldiag) stable(crhf) gues
 s=read geom=nocrowd test
 ----------------------------------------------------------------------

 hf stability analysis of h12 triangular lattice, y= 0.3614429856522110
 0
 ----------------------------------------------------------------------
 Symbolic Z-matrix:
 Charge =  0 Multiplicity = 1

                         Standard orientation:
 ---------------------------------------------------------------------
 Center     Atomic      Atomic             Coordinates (Angstroms)
 Number     Number       Type             X           Y           Z
 ---------------------------------------------------------------------
      1          1           0        0.705061    0.978404   -0.000000
      2          1           0        0.000000    2.456596   -0.000000
      3          1           0        0.705061   -0.659326   -0.000000
      4          1           0        0.000000    0.818865   -0.000000
      5          1           0       -0.705061    3.934788    0.000000
      6          1           0       -0.705061    2.297057    0.000000
      7          1           0       -0.705061    0.659326   -0.000000
      8          1           0       -0.000000   -0.818865   -0.000000
      9          1           0        0.705061   -2.297057    0.000000
     10          1           0        0.705061   -3.934788    0.000000
     11          1           0       -0.000000   -2.456596   -0.000000
     12          1           0       -0.705061   -0.978404   -0.000000
 ---------------------------------------------------------------------

 SCF Done:  E(RHF) =  -5.71997619425     A.U. after   13 cycles
 E2 =    -0.5767495061D+00 EUMP2 =    -0.62967257003852D+01

 The electronic state is 1-AG.
 Alpha  occ. eigenvalues --   -0.89131  -0.77704  -0.64732  -0.59269  -0.38241
 Alpha  occ. eigenvalues --   -0.16872
 Alpha virt. eigenvalues --   -0.09478   0.01745   0.43457   0.47085   0.72682
 Alpha virt. eigenvalues --    0.95527

 Mulliken charges:
               1
     1  H    0.157136
     2  H   -0.002940
     3  H    0.091779
     4  H   -0.223425
     5  H   -0.050755
     6  H    0.028205
     7  H    0.091779
     8  H   -0.223425
     9  H    0.028205
    10  H   -0.050755
    11  H   -0.002940
    12  H    0.157136
 Sum of Mulliken charges =  -0.00000

 Dipole moment (field-independent basis, Debye):
    X=             -0.0000    Y=             -0.0000    Z=             -0.0000  Tot=              0.0000
 Quadrupole moment (field-independent basis, Debye-Ang):
   XX=            -15.6407   YY=            -25.5394   ZZ=            -15.3425
   XY=              2.6344   XZ=              0.0000   YZ=             -0.0000

 Normal termination of Gaussian 09 at Fri Feb 17 14:54:46 2017.
