 Gaussian 09, Revision E.01,
 Gaussian 09:  ES64L-G09RevE.01 30-Nov-2015

 ----------------------------------------------------------------------
 #rhf/gen scf(symm,tight,novaracc,noincfock,fulldiag) stable(crhf) gues
 s=read geom=nocrowd test
 ----------------------------------------------------------------------

 hf stability analysis of h12 triangular lattice, y= 0.4395209933011619
 6
 ----------------------------------------------------------------------
 Symbolic Z-matrix:
 Charge =  0 Multiplicity = 1

                         Standard orientation:
 ---------------------------------------------------------------------
 Center     Atomic      Atomic             Coordinates (Angstroms)
 Number     Number       Type             X           Y           Z
 ---------------------------------------------------------------------
      1          1           0        0.833616    0.971509   -0.000000
      2          1           0        0.000000    2.077755   -0.000000
      3          1           0        0.833616   -0.413661    0.000000
      4          1           0        0.000000    0.692585   -0.000000
      5          1           0       -0.833616    3.184002   -0.000000
      6          1           0       -0.833616    1.798831   -0.000000
      7          1           0       -0.833616    0.413661    0.000000
      8          1           0       -0.000000   -0.692585   -0.000000
      9          1           0        0.833616   -1.798831   -0.000000
     10          1           0        0.833616   -3.184002   -0.000000
     11          1           0       -0.000000   -2.077755   -0.000000
     12          1           0       -0.833616   -0.971509   -0.000000
 ---------------------------------------------------------------------

 SCF Done:  E(RHF) =  -5.85308519650     A.U. after   18 cycles
 E2 =    -0.1124715422D+00 EUMP2 =    -0.59655567386957D+01

 The electronic state is 1-AG.
 Alpha  occ. eigenvalues --   -0.84447  -0.75049  -0.59722  -0.45351  -0.39159
 Alpha  occ. eigenvalues --   -0.23270
 Alpha virt. eigenvalues --    0.00553   0.08094   0.32605   0.42642   0.58429
 Alpha virt. eigenvalues --    0.78355

 Mulliken charges:
               1
     1  H   -0.115594
     2  H    0.022055
     3  H   -0.139085
     4  H   -0.038411
     5  H    0.162636
     6  H    0.108400
     7  H   -0.139085
     8  H   -0.038411
     9  H    0.108400
    10  H    0.162636
    11  H    0.022055
    12  H   -0.115594
 Sum of Mulliken charges =  -0.00000

 Dipole moment (field-independent basis, Debye):
    X=              0.0000    Y=              0.0000    Z=             -0.0000  Tot=              0.0000
 Quadrupole moment (field-independent basis, Debye-Ang):
   XX=            -18.1928   YY=              0.3647   ZZ=            -15.5158
   XY=             -6.5844   XZ=             -0.0000   YZ=              0.0000

 Normal termination of Gaussian 09 at Fri Feb 17 14:56:00 2017.
