 Gaussian 09, Revision E.01,
 Gaussian 09:  ES64L-G09RevE.01 30-Nov-2015

 ----------------------------------------------------------------------
 #rhf/gen scf(symm,tight,novaracc,noincfock,fulldiag) stable(crhf) gues
 s=read geom=nocrowd test
 ----------------------------------------------------------------------

 ----------------------------------------------------------------------
 hf stability analysis of h12 triangular lattice, y= 1.3531893207273342
 ----------------------------------------------------------------------
 Symbolic Z-matrix:
 Charge =  0 Multiplicity = 1

                         Standard orientation:
 ---------------------------------------------------------------------
 Center     Atomic      Atomic             Coordinates (Angstroms)
 Number     Number       Type             X           Y           Z
 ---------------------------------------------------------------------
      1          1           0        0.813824    3.290548   -0.000000
      2          1           0        0.000000    2.128288   -0.000000
      3          1           0        0.813824    1.871690   -0.000000
      4          1           0        0.000000    0.709429   -0.000000
      5          1           0       -0.813824    0.966027   -0.000000
      6          1           0       -0.813824   -0.452832   -0.000000
      7          1           0       -0.813824   -1.871690    0.000000
      8          1           0       -0.000000   -0.709429   -0.000000
      9          1           0        0.813824    0.452832   -0.000000
     10          1           0        0.813824   -0.966027   -0.000000
     11          1           0       -0.000000   -2.128288   -0.000000
     12          1           0       -0.813824   -3.290548    0.000000
 ---------------------------------------------------------------------

 SCF Done:  E(RHF) =  -5.81610395296     A.U. after  120 cycles
 E2 =    -0.1256025572D+00 EUMP2 =    -0.59417065101250D+01

 The electronic state is 1-AG.
 Alpha  occ. eigenvalues --   -0.83708  -0.74621  -0.60245  -0.45506  -0.38453
 Alpha  occ. eigenvalues --   -0.21344
 Alpha virt. eigenvalues --   -0.00245   0.03622   0.34237   0.43808   0.60922
 Alpha virt. eigenvalues --    0.82344

 Mulliken charges:
               1
     1  H    0.147335
     2  H   -0.016555
     3  H    0.144833
     4  H   -0.053566
     5  H   -0.059841
     6  H   -0.162206
     7  H    0.144833
     8  H   -0.053566
     9  H   -0.162206
    10  H   -0.059841
    11  H   -0.016555
    12  H    0.147335
 Sum of Mulliken charges =  -0.00000

 Dipole moment (field-independent basis, Debye):
    X=             -0.0000    Y=              0.0000    Z=              0.0000  Tot=              0.0000
 Quadrupole moment (field-independent basis, Debye-Ang):
   XX=            -17.6061   YY=             -0.1514   ZZ=            -15.4756
   XY=              5.9113   XZ=             -0.0000   YZ=             -0.0000

 Normal termination of Gaussian 09 at Fri Feb 17 15:07:21 2017.
