 Gaussian 09, Revision E.01,
 Gaussian 09:  ES64L-G09RevE.01 30-Nov-2015

 ----------------------------------------------------------------------
 #rhf/gen scf(symm,tight,novaracc,noincfock,fulldiag) stable(crhf) gues
 s=read geom=nocrowd test
 ----------------------------------------------------------------------

 hf stability analysis of h12 triangular lattice, y= 0.8185645993885070
 1
 ----------------------------------------------------------------------
 Symbolic Z-matrix:
 Charge =  0 Multiplicity = 1

                         Standard orientation:
 ---------------------------------------------------------------------
 Center     Atomic      Atomic             Coordinates (Angstroms)
 Number     Number       Type             X           Y           Z
 ---------------------------------------------------------------------
      1          1           0        1.068652    1.780492    0.000000
      2          1           0        0.000000    1.620781    0.000000
      3          1           0        1.068652    0.699971   -0.000000
      4          1           0        0.000000    0.540260    0.000000
      5          1           0       -1.068652    1.461070    0.000000
      6          1           0       -1.068652    0.380549    0.000000
      7          1           0       -1.068652   -0.699971    0.000000
      8          1           0       -0.000000   -0.540260    0.000000
      9          1           0        1.068652   -0.380549    0.000000
     10          1           0        1.068652   -1.461070    0.000000
     11          1           0       -0.000000   -1.620781    0.000000
     12          1           0       -1.068652   -1.780492    0.000000
 ---------------------------------------------------------------------

 SCF Done:  E(RHF) =  -5.71837757817     A.U. after   18 cycles
 E2 =    -0.1221480228D+00 EUMP2 =    -0.58405256010094D+01

 The electronic state is 1-AG.
 Alpha  occ. eigenvalues --   -1.00686  -0.78918  -0.68873  -0.51199  -0.46295
 Alpha  occ. eigenvalues --   -0.20467
 Alpha virt. eigenvalues --   -0.02343   0.11078   0.22252   0.42059   0.55811
 Alpha virt. eigenvalues --    0.89564

 Mulliken charges:
               1
     1  H   -0.262466
     2  H    0.084123
     3  H    0.069054
     4  H    0.040686
     5  H   -0.064261
     6  H    0.132864
     7  H    0.069054
     8  H    0.040686
     9  H    0.132864
    10  H   -0.064261
    11  H    0.084123
    12  H   -0.262466
 Sum of Mulliken charges =  -0.00000

 Dipole moment (field-independent basis, Debye):
    X=             -0.0000    Y=              0.0000    Z=             -0.0000  Tot=              0.0000
 Quadrupole moment (field-independent basis, Debye-Ang):
   XX=            -17.7588   YY=            -27.8802   ZZ=            -15.1112
   XY=             -4.6927   XZ=              0.0000   YZ=              0.0000

 Normal termination of Gaussian 09 at Fri Feb 17 15:02:30 2017.
