 Gaussian 09, Revision E.01,
 Gaussian 09:  ES64L-G09RevE.01 30-Nov-2015

 ----------------------------------------------------------------------
 #rhf/gen scf(symm,tight,novaracc,noincfock,fulldiag) stable(crhf) gues
 s=read geom=nocrowd test
 ----------------------------------------------------------------------

 ----------------------------------------------------------------------
 hf stability analysis of h12 triangular lattice, y= 2.1684423371644423
 ----------------------------------------------------------------------
 Symbolic Z-matrix:
 Charge =  0 Multiplicity = 1

                         Standard orientation:
 ---------------------------------------------------------------------
 Center     Atomic      Atomic             Coordinates (Angstroms)
 Number     Number       Type             X           Y           Z
 ---------------------------------------------------------------------
      1          1           0        0.528533    5.396922   -0.000000
      2          1           0        0.000000    3.277090    0.000000
      3          1           0        0.528533    3.212195   -0.000000
      4          1           0        0.000000    1.092363    0.000000
      5          1           0       -0.528533    1.157259    0.000000
      6          1           0       -0.528533   -1.027468    0.000000
      7          1           0       -0.528533   -3.212195    0.000000
      8          1           0       -0.000000   -1.092363    0.000000
      9          1           0        0.528533    1.027468   -0.000000
     10          1           0        0.528533   -1.157259    0.000000
     11          1           0       -0.000000   -3.277090    0.000000
     12          1           0       -0.528533   -5.396922    0.000000
 ---------------------------------------------------------------------

 SCF Done:  E(RHF) =  -4.94539023795     A.U. after   12 cycles
 E2 =    -0.8563706081D+00 EUMP2 =    -0.58017608460215D+01

 The electronic state is 1-AG.
 Alpha  occ. eigenvalues --   -0.93106  -0.89888  -0.70787  -0.70686  -0.24980
 Alpha  occ. eigenvalues --   -0.19814
 Alpha virt. eigenvalues --   -0.14722   0.04009   0.57977   0.58376   1.24468
 Alpha virt. eigenvalues --    1.38397

 Mulliken charges:
               1
     1  H   -0.032956
     2  H   -0.004701
     3  H   -0.001005
     4  H   -0.508092
     5  H    0.274887
     6  H    0.271867
     7  H   -0.001005
     8  H   -0.508092
     9  H    0.271867
    10  H    0.274887
    11  H   -0.004701
    12  H   -0.032956
 Sum of Mulliken charges =  -0.00000

 Dipole moment (field-independent basis, Debye):
    X=              0.0000    Y=              0.0000    Z=             -0.0000  Tot=              0.0000
 Quadrupole moment (field-independent basis, Debye-Ang):
   XX=            -16.4355   YY=            -26.5994   ZZ=            -15.5309
   XY=             -1.2921   XZ=              0.0000   YZ=              0.0000

 Normal termination of Gaussian 09 at Fri Feb 17 15:09:28 2017.
