 Gaussian 09, Revision E.01,
 Gaussian 09:  ES64L-G09RevE.01 30-Nov-2015

 ----------------------------------------------------------------------
 #rhf/gen scf(symm,tight,novaracc,noincfock,fulldiag) stable(crhf) gues
 s=read geom=nocrowd test
 ----------------------------------------------------------------------

 hf stability analysis of h12 triangular lattice, y= 0.4458672966047664
 3
 ----------------------------------------------------------------------
 Symbolic Z-matrix:
 Charge =  0 Multiplicity = 1

                         Standard orientation:
 ---------------------------------------------------------------------
 Center     Atomic      Atomic             Coordinates (Angstroms)
 Number     Number       Type             X           Y           Z
 ---------------------------------------------------------------------
      1          1           0        0.843152    0.975073    0.000000
      2          1           0        0.000000    2.054258    0.000000
      3          1           0        0.843152   -0.394432    0.000000
      4          1           0        0.000000    0.684753    0.000000
      5          1           0       -0.843152    3.133443    0.000000
      6          1           0       -0.843152    1.763937    0.000000
      7          1           0       -0.843152    0.394432    0.000000
      8          1           0       -0.000000   -0.684753    0.000000
      9          1           0        0.843152   -1.763937   -0.000000
     10          1           0        0.843152   -3.133443   -0.000000
     11          1           0       -0.000000   -2.054258    0.000000
     12          1           0       -0.843152   -0.975073    0.000000
 ---------------------------------------------------------------------

 SCF Done:  E(RHF) =  -5.87088214936     A.U. after   16 cycles
 E2 =    -0.1108888210D+00 EUMP2 =    -0.59817709703233D+01

 The electronic state is 1-AG.
 Alpha  occ. eigenvalues --   -0.85148  -0.75339  -0.59589  -0.45771  -0.39450
 Alpha  occ. eigenvalues --   -0.24217
 Alpha virt. eigenvalues --    0.01400   0.09989   0.31954   0.41636   0.57175
 Alpha virt. eigenvalues --    0.75991

 Mulliken charges:
               1
     1  H   -0.122647
     2  H    0.035169
     3  H   -0.124624
     4  H   -0.036250
     5  H    0.152304
     6  H    0.096047
     7  H   -0.124624
     8  H   -0.036250
     9  H    0.096047
    10  H    0.152304
    11  H    0.035169
    12  H   -0.122647
 Sum of Mulliken charges =   0.00000

 Dipole moment (field-independent basis, Debye):
    X=              0.0000    Y=             -0.0000    Z=             -0.0000  Tot=              0.0000
 Quadrupole moment (field-independent basis, Debye-Ang):
   XX=            -18.2766   YY=             -1.1764   ZZ=            -15.5172
   XY=             -6.2631   XZ=              0.0000   YZ=              0.0000

 Normal termination of Gaussian 09 at Fri Feb 17 14:56:06 2017.
