 Gaussian 09, Revision E.01,
 Gaussian 09:  ES64L-G09RevE.01 30-Nov-2015

 ----------------------------------------------------------------------
 #rhf/gen scf(symm,tight,novaracc,noincfock,fulldiag) stable(crhf) gues
 s=read geom=nocrowd test
 ----------------------------------------------------------------------

 ----------------------------------------------------------------------
 hf stability analysis of h12 triangular lattice, y= 1.4678899319530556
 ----------------------------------------------------------------------
 Symbolic Z-matrix:
 Charge =  0 Multiplicity = 1

                         Standard orientation:
 ---------------------------------------------------------------------
 Center     Atomic      Atomic             Coordinates (Angstroms)
 Number     Number       Type             X           Y           Z
 ---------------------------------------------------------------------
      1          1           0        0.759836    3.595581    0.000000
      2          1           0        0.000000    2.279507    0.000000
      3          1           0        0.759836    2.075910    0.000000
      4          1           0        0.000000    0.759836    0.000000
      5          1           0       -0.759836    0.963433   -0.000000
      6          1           0       -0.759836   -0.556238   -0.000000
      7          1           0       -0.759836   -2.075910   -0.000000
      8          1           0       -0.000000   -0.759836    0.000000
      9          1           0        0.759836    0.556238    0.000000
     10          1           0        0.759836   -0.963433    0.000000
     11          1           0       -0.000000   -2.279507    0.000000
     12          1           0       -0.759836   -3.595581   -0.000000
 ---------------------------------------------------------------------

 SCF Done:  E(RHF) =  -5.75244720807     A.U. after   13 cycles
 E2 =    -0.3227833000D+00 EUMP2 =    -0.60752305080987D+01

 The electronic state is 1-AG.
 Alpha  occ. eigenvalues --   -0.88592  -0.76260  -0.62778  -0.53493  -0.41030
 Alpha  occ. eigenvalues --   -0.15693
 Alpha virt. eigenvalues --   -0.05226  -0.00171   0.39420   0.44895   0.62149
 Alpha virt. eigenvalues --    0.85721

 Mulliken charges:
               1
     1  H   -0.045434
     2  H    0.045901
     3  H    0.010817
     4  H   -0.173139
     5  H    0.089077
     6  H    0.072780
     7  H    0.010817
     8  H   -0.173139
     9  H    0.072780
    10  H    0.089077
    11  H    0.045901
    12  H   -0.045434
 Sum of Mulliken charges =  -0.00000

 Dipole moment (field-independent basis, Debye):
    X=              0.0000    Y=             -0.0000    Z=              0.0000  Tot=              0.0000
 Quadrupole moment (field-independent basis, Debye-Ang):
   XX=            -15.8805   YY=            -22.8803   ZZ=            -15.2757
   XY=             -2.6043   XZ=             -0.0000   YZ=             -0.0000

 Normal termination of Gaussian 09 at Thu Feb 16 18:53:57 2017.
