 Gaussian 09, Revision E.01,
 Gaussian 09:  ES64L-G09RevE.01 30-Nov-2015

 ----------------------------------------------------------------------
 #rhf/gen scf(symm,tight,novaracc,noincfock,fulldiag) stable(crhf) gues
 s=read geom=nocrowd test
 ----------------------------------------------------------------------

 hf stability analysis of h12 triangular lattice, y= 0.4001417309484786
 0
 ----------------------------------------------------------------------
 Symbolic Z-matrix:
 Charge =  0 Multiplicity = 1

                         Standard orientation:
 ---------------------------------------------------------------------
 Center     Atomic      Atomic             Coordinates (Angstroms)
 Number     Number       Type             X           Y           Z
 ---------------------------------------------------------------------
      1          1           0        0.771177    0.962527    0.000000
      2          1           0        0.000000    2.245982    0.000000
      3          1           0        0.771177   -0.534794    0.000000
      4          1           0        0.000000    0.748661    0.000000
      5          1           0       -0.771177    3.529437   -0.000000
      6          1           0       -0.771177    2.032116   -0.000000
      7          1           0       -0.771177    0.534794   -0.000000
      8          1           0       -0.000000   -0.748661    0.000000
      9          1           0        0.771177   -2.032116    0.000000
     10          1           0        0.771177   -3.529437    0.000000
     11          1           0       -0.000000   -2.245982    0.000000
     12          1           0       -0.771177   -0.962527   -0.000000
 ---------------------------------------------------------------------

 SCF Done:  E(RHF) =  -5.75491766879     A.U. after   12 cycles
 E2 =    -0.2353860405D+00 EUMP2 =    -0.59903037093258D+01

 The electronic state is 1-AG.
 Alpha  occ. eigenvalues --   -0.87199  -0.75437  -0.62136  -0.51660  -0.40328
 Alpha  occ. eigenvalues --   -0.16514
 Alpha virt. eigenvalues --   -0.03930  -0.00232   0.38564   0.44751   0.61829
 Alpha virt. eigenvalues --    0.85262

 Mulliken charges:
               1
     1  H    0.030275
     2  H    0.072823
     3  H    0.058938
     4  H   -0.154942
     5  H   -0.000587
     6  H   -0.006506
     7  H    0.058938
     8  H   -0.154942
     9  H   -0.006506
    10  H   -0.000587
    11  H    0.072823
    12  H    0.030275
 Sum of Mulliken charges =   0.00000

 Dipole moment (field-independent basis, Debye):
    X=              0.0000    Y=              0.0000    Z=             -0.0000  Tot=              0.0000
 Quadrupole moment (field-independent basis, Debye-Ang):
   XX=            -16.2975   YY=            -17.0740   ZZ=            -15.2831
   XY=              1.1618   XZ=             -0.0000   YZ=              0.0000

 Normal termination of Gaussian 09 at Fri Feb 17 14:55:23 2017.
