 Gaussian 09, Revision E.01,
 Gaussian 09:  ES64L-G09RevE.01 30-Nov-2015

 ----------------------------------------------------------------------
 #rhf/gen scf(symm,tight,novaracc,noincfock,fulldiag) stable(crhf) gues
 s=read geom=nocrowd test
 ----------------------------------------------------------------------

 ----------------------------------------------------------------------
 hf stability analysis of h12 triangular lattice, y= 1.6480958607190197
 ----------------------------------------------------------------------
 Symbolic Z-matrix:
 Charge =  0 Multiplicity = 1

                         Standard orientation:
 ---------------------------------------------------------------------
 Center     Atomic      Atomic             Coordinates (Angstroms)
 Number     Number       Type             X           Y           Z
 ---------------------------------------------------------------------
      1          1           0        0.685317    4.066620   -0.000000
      2          1           0        0.000000    2.527373   -0.000000
      3          1           0        0.685317    2.381704   -0.000000
      4          1           0        0.000000    0.842458   -0.000000
      5          1           0       -0.685317    0.988126   -0.000000
      6          1           0       -0.685317   -0.696789   -0.000000
      7          1           0       -0.685317   -2.381704    0.000000
      8          1           0       -0.000000   -0.842458    0.000000
      9          1           0        0.685317    0.696789   -0.000000
     10          1           0        0.685317   -0.988126   -0.000000
     11          1           0       -0.000000   -2.527373    0.000000
     12          1           0       -0.685317   -4.066620    0.000000
 ---------------------------------------------------------------------

 SCF Done:  E(RHF) =  -5.68772730214     A.U. after   12 cycles
 E2 =    -0.6266366156D+00 EUMP2 =    -0.63143639177050D+01

 The electronic state is 1-AG.
 Alpha  occ. eigenvalues --   -0.88996  -0.78206  -0.65338  -0.61082  -0.36725
 Alpha  occ. eigenvalues --   -0.17538
 Alpha virt. eigenvalues --   -0.10603   0.02375   0.44978   0.48027   0.77527
 Alpha virt. eigenvalues --    0.99737

 Mulliken charges:
               1
     1  H   -0.039126
     2  H   -0.003523
     3  H    0.019646
     4  H   -0.242191
     5  H    0.158943
     6  H    0.106251
     7  H    0.019646
     8  H   -0.242191
     9  H    0.106251
    10  H    0.158943
    11  H   -0.003523
    12  H   -0.039126
 Sum of Mulliken charges =   0.00000

 Dipole moment (field-independent basis, Debye):
    X=              0.0000    Y=              0.0000    Z=             -0.0000  Tot=              0.0000
 Quadrupole moment (field-independent basis, Debye-Ang):
   XX=            -15.7355   YY=            -24.4360   ZZ=            -15.3678
   XY=             -2.2546   XZ=              0.0000   YZ=              0.0000

 Normal termination of Gaussian 09 at Fri Feb 17 15:08:32 2017.
