 Gaussian 09, Revision E.01,
 Gaussian 09:  ES64L-G09RevE.01 30-Nov-2015

 ----------------------------------------------------------------------
 #rhf/gen scf(symm,tight,novaracc,noincfock,fulldiag) stable(crhf) gues
 s=read geom=nocrowd test
 ----------------------------------------------------------------------

 hf stability analysis of h12 triangular lattice, y= 0.6929481720257152
 4
 ----------------------------------------------------------------------
 Symbolic Z-matrix:
 Charge =  0 Multiplicity = 1

                         Standard orientation:
 ---------------------------------------------------------------------
 Center     Atomic      Atomic             Coordinates (Angstroms)
 Number     Number       Type             X           Y           Z
 ---------------------------------------------------------------------
      1          1           0        1.065535    1.428037   -0.000000
      2          1           0        0.000000    1.625522   -0.000000
      3          1           0        1.065535    0.344355    0.000000
      4          1           0        0.000000    0.541841   -0.000000
      5          1           0       -1.065535    1.823007   -0.000000
      6          1           0       -1.065535    0.739326   -0.000000
      7          1           0       -1.065535   -0.344355   -0.000000
      8          1           0       -0.000000   -0.541841   -0.000000
      9          1           0        1.065535   -0.739326   -0.000000
     10          1           0        1.065535   -1.823007   -0.000000
     11          1           0       -0.000000   -1.625522   -0.000000
     12          1           0       -1.065535   -1.428037   -0.000000
 ---------------------------------------------------------------------

 SCF Done:  E(RHF) =  -5.73784630235     A.U. after   15 cycles
 E2 =    -0.1207386537D+00 EUMP2 =    -0.58585849560688D+01

 The electronic state is 1-AG.
 Alpha  occ. eigenvalues --   -1.00604  -0.78972  -0.68795  -0.51589  -0.45790
 Alpha  occ. eigenvalues --   -0.21303
 Alpha virt. eigenvalues --   -0.01979   0.12003   0.22652   0.40656   0.56353
 Alpha virt. eigenvalues --    0.87304

 Mulliken charges:
               1
     1  H   -0.064270
     2  H    0.090315
     3  H    0.136400
     4  H    0.031048
     5  H   -0.265216
     6  H    0.071723
     7  H    0.136400
     8  H    0.031048
     9  H    0.071723
    10  H   -0.265216
    11  H    0.090315
    12  H   -0.064270
 Sum of Mulliken charges =  -0.00000

 Dipole moment (field-independent basis, Debye):
    X=             -0.0000    Y=             -0.0000    Z=              0.0000  Tot=              0.0000
 Quadrupole moment (field-independent basis, Debye-Ang):
   XX=            -17.7085   YY=            -28.1135   ZZ=            -15.1307
   XY=              4.7898   XZ=              0.0000   YZ=             -0.0000

 Normal termination of Gaussian 09 at Fri Feb 17 15:00:32 2017.
