 Gaussian 09, Revision E.01,
 Gaussian 09:  ES64L-G09RevE.01 30-Nov-2015

 ----------------------------------------------------------------------
 #rhf/gen scf(symm,tight,novaracc,noincfock,fulldiag) stable(crhf) gues
 s=read geom=nocrowd test
 ----------------------------------------------------------------------

 ----------------------------------------------------------------------
 hf stability analysis of h12 triangular lattice, y= 1.3742008147382716
 ----------------------------------------------------------------------
 Symbolic Z-matrix:
 Charge =  0 Multiplicity = 1

                         Standard orientation:
 ---------------------------------------------------------------------
 Center     Atomic      Atomic             Coordinates (Angstroms)
 Number     Number       Type             X           Y           Z
 ---------------------------------------------------------------------
      1          1           0        0.803555    3.346805   -0.000000
      2          1           0        0.000000    2.155486   -0.000000
      3          1           0        0.803555    1.909814    0.000000
      4          1           0        0.000000    0.718495   -0.000000
      5          1           0       -0.803555    0.964167   -0.000000
      6          1           0       -0.803555   -0.472824   -0.000000
      7          1           0       -0.803555   -1.909814    0.000000
      8          1           0       -0.000000   -0.718495    0.000000
      9          1           0        0.803555    0.472824   -0.000000
     10          1           0        0.803555   -0.964167   -0.000000
     11          1           0       -0.000000   -2.155486    0.000000
     12          1           0       -0.803555   -3.346805    0.000000
 ---------------------------------------------------------------------

 SCF Done:  E(RHF) =  -5.77506852314     A.U. after   22 cycles
 E2 =    -0.1126211725D+00 EUMP2 =    -0.58876896956361D+01

 The electronic state is 1-AG.
 Alpha  occ. eigenvalues --   -0.81870  -0.73764  -0.59787  -0.45436  -0.37003
 Alpha  occ. eigenvalues --   -0.19474
 Alpha virt. eigenvalues --   -0.03079   0.03479   0.34810   0.45103   0.64085
 Alpha virt. eigenvalues --    0.86418

 Mulliken charges:
               1
     1  H    0.230980
     2  H    0.122197
     3  H   -0.014066
     4  H   -0.060805
     5  H   -0.204621
     6  H   -0.073685
     7  H   -0.014066
     8  H   -0.060805
     9  H   -0.073685
    10  H   -0.204621
    11  H    0.122197
    12  H    0.230980
 Sum of Mulliken charges =  -0.00000

 Dipole moment (field-independent basis, Debye):
    X=              0.0000    Y=              0.0000    Z=              0.0000  Tot=              0.0000
 Quadrupole moment (field-independent basis, Debye-Ang):
   XX=            -18.8367   YY=              9.5300   ZZ=            -15.4989
   XY=              7.5302   XZ=             -0.0000   YZ=             -0.0000

 Normal termination of Gaussian 09 at Fri Feb 17 15:07:30 2017.
