 Gaussian 09, Revision E.01,
 Gaussian 09:  ES64L-G09RevE.01 30-Nov-2015

 ----------------------------------------------------------------------
 #rhf/gen scf(symm,tight,novaracc,noincfock,fulldiag) stable(crhf) gues
 s=read geom=nocrowd test
 ----------------------------------------------------------------------

 hf stability analysis of h12 triangular lattice, y= 0.9519760744589420
 6
 ----------------------------------------------------------------------
 Symbolic Z-matrix:
 Charge =  0 Multiplicity = 1

                         Standard orientation:
 ---------------------------------------------------------------------
 Center     Atomic      Atomic             Coordinates (Angstroms)
 Number     Number       Type             X           Y           Z
 ---------------------------------------------------------------------
      1          1           0        1.022993    2.170151   -0.000000
      2          1           0        0.000000    1.693121   -0.000000
      3          1           0        1.022993    1.041403   -0.000000
      4          1           0        0.000000    0.564374   -0.000000
      5          1           0       -1.022993    1.216092    0.000000
      6          1           0       -1.022993    0.087344    0.000000
      7          1           0       -1.022993   -1.041403   -0.000000
      8          1           0       -0.000000   -0.564374   -0.000000
      9          1           0        1.022993   -0.087344    0.000000
     10          1           0        1.022993   -1.216092   -0.000000
     11          1           0       -0.000000   -1.693121   -0.000000
     12          1           0       -1.022993   -2.170151   -0.000000
 ---------------------------------------------------------------------

 SCF Done:  E(RHF) =  -5.88500389696     A.U. after   14 cycles
 E2 =    -0.1143005260D+00 EUMP2 =    -0.59993044229685D+01

 The electronic state is 1-AG.
 Alpha  occ. eigenvalues --   -0.98696  -0.79282  -0.65130  -0.54939  -0.41035
 Alpha  occ. eigenvalues --   -0.28276
 Alpha virt. eigenvalues --    0.05169   0.18728   0.28082   0.30820   0.57785
 Alpha virt. eigenvalues --    0.63073

 Mulliken charges:
               1
     1  H   -0.192729
     2  H    0.093652
     3  H    0.067676
     4  H   -0.001259
     5  H   -0.060572
     6  H    0.093232
     7  H    0.067676
     8  H   -0.001259
     9  H    0.093232
    10  H   -0.060572
    11  H    0.093652
    12  H   -0.192729
 Sum of Mulliken charges =   0.00000

 Dipole moment (field-independent basis, Debye):
    X=              0.0000    Y=              0.0000    Z=              0.0000  Tot=              0.0000
 Quadrupole moment (field-independent basis, Debye-Ang):
   XX=            -17.7347   YY=            -27.0289   ZZ=            -15.2757
   XY=             -3.4037   XZ=             -0.0000   YZ=             -0.0000

 Normal termination of Gaussian 09 at Fri Feb 17 15:04:14 2017.
