 Gaussian 09, Revision E.01,
 Gaussian 09:  ES64L-G09RevE.01 30-Nov-2015

 ----------------------------------------------------------------------
 #rhf/gen scf(symm,tight,novaracc,noincfock,fulldiag) stable(crhf) gues
 s=read geom=nocrowd test
 ----------------------------------------------------------------------

 hf stability analysis of h12 triangular lattice, y= 0.6387729204659229
 3
 ----------------------------------------------------------------------
 Symbolic Z-matrix:
 Charge =  0 Multiplicity = 1

                         Standard orientation:
 ---------------------------------------------------------------------
 Center     Atomic      Atomic             Coordinates (Angstroms)
 Number     Number       Type             X           Y           Z
 ---------------------------------------------------------------------
      1          1           0        1.043297    1.290720    0.000000
      2          1           0        0.000000    1.660170   -0.000000
      3          1           0        1.043297    0.183939    0.000000
      4          1           0        0.000000    0.553390   -0.000000
      5          1           0       -1.043297    2.029621   -0.000000
      6          1           0       -1.043297    0.922841   -0.000000
      7          1           0       -1.043297   -0.183939    0.000000
      8          1           0       -0.000000   -0.553390   -0.000000
      9          1           0        1.043297   -0.922841   -0.000000
     10          1           0        1.043297   -2.029621   -0.000000
     11          1           0       -0.000000   -1.660170   -0.000000
     12          1           0       -1.043297   -1.290720    0.000000
 ---------------------------------------------------------------------

 SCF Done:  E(RHF) =  -5.83092866774     A.U. after   14 cycles
 E2 =    -0.1161646104D+00 EUMP2 =    -0.59470932781114D+01

 The electronic state is 1-AG.
 Alpha  occ. eigenvalues --   -0.99823  -0.79264  -0.67177  -0.53667  -0.43050
 Alpha  occ. eigenvalues --   -0.25521
 Alpha virt. eigenvalues --    0.01398   0.16291   0.26513   0.33114   0.57833
 Alpha virt. eigenvalues --    0.73275

 Mulliken charges:
               1
     1  H   -0.063853
     2  H    0.099025
     3  H    0.122295
     4  H    0.007540
     5  H   -0.235497
     6  H    0.070490
     7  H    0.122295
     8  H    0.007540
     9  H    0.070490
    10  H   -0.235497
    11  H    0.099025
    12  H   -0.063853
 Sum of Mulliken charges =   0.00000

 Dipole moment (field-independent basis, Debye):
    X=              0.0000    Y=             -0.0000    Z=              0.0000  Tot=              0.0000
 Quadrupole moment (field-independent basis, Debye-Ang):
   XX=            -17.7112   YY=            -28.0917   ZZ=            -15.2210
   XY=              4.2997   XZ=             -0.0000   YZ=              0.0000

 Normal termination of Gaussian 09 at Fri Feb 17 14:59:29 2017.
