 Gaussian 09, Revision E.01,
 Gaussian 09:  ES64L-G09RevE.01 30-Nov-2015

 ----------------------------------------------------------------------
 #rhf/gen scf(symm,tight,novaracc,noincfock,fulldiag) stable(crhf) gues
 s=read geom=nocrowd test
 ----------------------------------------------------------------------

 ----------------------------------------------------------------------
 hf stability analysis of h12 triangular lattice, y= 1.0050639437111659
 ----------------------------------------------------------------------
 Symbolic Z-matrix:
 Charge =  0 Multiplicity = 1

                         Standard orientation:
 ---------------------------------------------------------------------
 Center     Atomic      Atomic             Coordinates (Angstroms)
 Number     Number       Type             X           Y           Z
 ---------------------------------------------------------------------
      1          1           0        0.997459    2.324012    0.000000
      2          1           0        0.000000    1.736464    0.000000
      3          1           0        0.997459    1.166369    0.000000
      4          1           0        0.000000    0.578821    0.000000
      5          1           0       -0.997459    1.148916   -0.000000
      6          1           0       -0.997459   -0.008727   -0.000000
      7          1           0       -0.997459   -1.166369    0.000000
      8          1           0       -0.000000   -0.578821    0.000000
      9          1           0        0.997459    0.008727   -0.000000
     10          1           0        0.997459   -1.148916    0.000000
     11          1           0       -0.000000   -1.736464    0.000000
     12          1           0       -0.997459   -2.324012    0.000000
 ---------------------------------------------------------------------

 SCF Done:  E(RHF) =  -5.92976182219     A.U. after   13 cycles
 E2 =    -0.1128009773D+00 EUMP2 =    -0.60425627995167D+01

 The electronic state is 1-AG.
 Alpha  occ. eigenvalues --   -0.97066  -0.79098  -0.62378  -0.56140  -0.38702
 Alpha  occ. eigenvalues --   -0.31044
 Alpha virt. eigenvalues --    0.10182   0.20939   0.22973   0.36336   0.52789
 Alpha virt. eigenvalues --    0.57036

 Mulliken charges:
               1
     1  H   -0.139143
     2  H    0.086245
     3  H    0.067399
     4  H   -0.009206
     5  H   -0.061212
     6  H    0.055918
     7  H    0.067399
     8  H   -0.009206
     9  H    0.055918
    10  H   -0.061212
    11  H    0.086245
    12  H   -0.139143
 Sum of Mulliken charges =  -0.00000

 Dipole moment (field-independent basis, Debye):
    X=              0.0000    Y=             -0.0000    Z=             -0.0000  Tot=              0.0000
 Quadrupole moment (field-independent basis, Debye-Ang):
   XX=            -17.7849   YY=            -25.0421   ZZ=            -15.3315
   XY=             -2.1061   XZ=              0.0000   YZ=              0.0000

 Normal termination of Gaussian 09 at Fri Feb 17 15:04:48 2017.
