 Gaussian 09, Revision E.01,
 Gaussian 09:  ES64L-G09RevE.01 30-Nov-2015

 ----------------------------------------------------------------------
 #rhf/gen scf(symm,tight,novaracc,noincfock,fulldiag) stable(crhf) gues
 s=read geom=nocrowd test
 ----------------------------------------------------------------------

 hf stability analysis of h12 triangular lattice, y= 0.8443744677903469
 7
 ----------------------------------------------------------------------
 Symbolic Z-matrix:
 Charge =  0 Multiplicity = 1

                         Standard orientation:
 ---------------------------------------------------------------------
 Center     Atomic      Atomic             Coordinates (Angstroms)
 Number     Number       Type             X           Y           Z
 ---------------------------------------------------------------------
      1          1           0        1.062764    1.855658    0.000000
      2          1           0        0.000000    1.629760    0.000000
      3          1           0        1.062764    0.769151    0.000000
      4          1           0        0.000000    0.543253    0.000000
      5          1           0       -1.062764    1.403863   -0.000000
      6          1           0       -1.062764    0.317356   -0.000000
      7          1           0       -1.062764   -0.769151   -0.000000
      8          1           0       -0.000000   -0.543253   -0.000000
      9          1           0        1.062764   -0.317356   -0.000000
     10          1           0        1.062764   -1.403863   -0.000000
     11          1           0       -0.000000   -1.629760   -0.000000
     12          1           0       -1.062764   -1.855658   -0.000000
 ---------------------------------------------------------------------

 SCF Done:  E(RHF) =  -5.75295428421     A.U. after   16 cycles
 E2 =    -0.1197801612D+00 EUMP2 =    -0.58727344454431D+01

 The electronic state is 1-AG.
 Alpha  occ. eigenvalues --   -1.00544  -0.79026  -0.68680  -0.51913  -0.45384
 Alpha  occ. eigenvalues --   -0.21962
 Alpha virt. eigenvalues --   -0.01637   0.12711   0.23042   0.39508   0.56716
 Alpha virt. eigenvalues --    0.85350

 Mulliken charges:
               1
     1  H   -0.264930
     2  H    0.094034
     3  H    0.072827
     4  H    0.025363
     5  H   -0.064797
     6  H    0.137503
     7  H    0.072827
     8  H    0.025363
     9  H    0.137503
    10  H   -0.064797
    11  H    0.094034
    12  H   -0.264930
 Sum of Mulliken charges =   0.00000

 Dipole moment (field-independent basis, Debye):
    X=              0.0000    Y=              0.0000    Z=             -0.0000  Tot=              0.0000
 Quadrupole moment (field-independent basis, Debye-Ang):
   XX=            -17.6952   YY=            -28.2433   ZZ=            -15.1458
   XY=             -4.8041   XZ=             -0.0000   YZ=             -0.0000

 Normal termination of Gaussian 09 at Fri Feb 17 15:02:53 2017.
