 Gaussian 09, Revision E.01,
 Gaussian 09:  ES64L-G09RevE.01 30-Nov-2015

 ----------------------------------------------------------------------
 #rhf/gen scf(symm,tight,novaracc,noincfock,fulldiag) stable(crhf) gues
 s=read geom=nocrowd test
 ----------------------------------------------------------------------

 hf stability analysis of h12 triangular lattice, y= 0.8833142989544126
 0
 ----------------------------------------------------------------------
 Symbolic Z-matrix:
 Charge =  0 Multiplicity = 1

                         Standard orientation:
 ---------------------------------------------------------------------
 Center     Atomic      Atomic             Coordinates (Angstroms)
 Number     Number       Type             X           Y           Z
 ---------------------------------------------------------------------
      1          1           0        1.050831    1.969539    0.000000
      2          1           0        0.000000    1.648268    0.000000
      3          1           0        1.050831    0.870694    0.000000
      4          1           0        0.000000    0.549423    0.000000
      5          1           0       -1.050831    1.326997    0.000000
      6          1           0       -1.050831    0.228151    0.000000
      7          1           0       -1.050831   -0.870694    0.000000
      8          1           0       -0.000000   -0.549423    0.000000
      9          1           0        1.050831   -0.228151    0.000000
     10          1           0        1.050831   -1.326997    0.000000
     11          1           0       -0.000000   -1.648268    0.000000
     12          1           0       -1.050831   -1.969539    0.000000
 ---------------------------------------------------------------------

 SCF Done:  E(RHF) =  -5.80491912354     A.U. after   15 cycles
 E2 =    -0.1171876597D+00 EUMP2 =    -0.59221067832109D+01

 The electronic state is 1-AG.
 Alpha  occ. eigenvalues --   -1.00163  -0.79203  -0.67853  -0.53075  -0.43881
 Alpha  occ. eigenvalues --   -0.24298
 Alpha virt. eigenvalues --    0.00119   0.15111   0.25052   0.35329   0.57605
 Alpha virt. eigenvalues --    0.77631

 Mulliken charges:
               1
     1  H   -0.249876
     2  H    0.099572
     3  H    0.072082
     4  H    0.012248
     5  H   -0.065069
     6  H    0.131043
     7  H    0.072082
     8  H    0.012248
     9  H    0.131043
    10  H   -0.065069
    11  H    0.099572
    12  H   -0.249876
 Sum of Mulliken charges =  -0.00000

 Dipole moment (field-independent basis, Debye):
    X=             -0.0000    Y=             -0.0000    Z=             -0.0000  Tot=              0.0000
 Quadrupole moment (field-independent basis, Debye-Ang):
   XX=            -17.7022   YY=            -28.3020   ZZ=            -15.1962
   XY=             -4.5652   XZ=             -0.0000   YZ=             -0.0000

 Normal termination of Gaussian 09 at Fri Feb 17 15:03:25 2017.
