 Gaussian 09, Revision E.01,
 Gaussian 09:  ES64L-G09RevE.01 30-Nov-2015

 ----------------------------------------------------------------------
 #rhf/gen scf(symm,tight,novaracc,noincfock,fulldiag) stable(crhf) gues
 s=read geom=nocrowd test
 ----------------------------------------------------------------------

 ----------------------------------------------------------------------
 hf stability analysis of h12 triangular lattice, y= 1.3429973740177321
 ----------------------------------------------------------------------
 Symbolic Z-matrix:
 Charge =  0 Multiplicity = 1

                         Standard orientation:
 ---------------------------------------------------------------------
 Center     Atomic      Atomic             Coordinates (Angstroms)
 Number     Number       Type             X           Y           Z
 ---------------------------------------------------------------------
      1          1           0        0.818864    3.263193   -0.000000
      2          1           0        0.000000    2.115188   -0.000000
      3          1           0        0.818864    1.853067   -0.000000
      4          1           0        0.000000    0.705063   -0.000000
      5          1           0       -0.818864    0.967183   -0.000000
      6          1           0       -0.818864   -0.442942   -0.000000
      7          1           0       -0.818864   -1.853067   -0.000000
      8          1           0       -0.000000   -0.705063   -0.000000
      9          1           0        0.818864    0.442942    0.000000
     10          1           0        0.818864   -0.967183    0.000000
     11          1           0       -0.000000   -2.115188   -0.000000
     12          1           0       -0.818864   -3.263193   -0.000000
 ---------------------------------------------------------------------

 SCF Done:  E(RHF) =  -5.82503832058     A.U. after   18 cycles
 E2 =    -0.1205020413D+00 EUMP2 =    -0.59455403618364D+01

 The electronic state is 1-AG.
 Alpha  occ. eigenvalues --   -0.83763  -0.74698  -0.60067  -0.45319  -0.38575
 Alpha  occ. eigenvalues --   -0.21833
 Alpha virt. eigenvalues --   -0.00202   0.04832   0.33778   0.43617   0.60380
 Alpha virt. eigenvalues --    0.81498

 Mulliken charges:
               1
     1  H    0.157165
     2  H   -0.007502
     3  H    0.136895
     4  H   -0.047374
     5  H   -0.079257
     6  H   -0.159927
     7  H    0.136895
     8  H   -0.047374
     9  H   -0.159927
    10  H   -0.079257
    11  H   -0.007502
    12  H    0.157165
 Sum of Mulliken charges =   0.00000

 Dipole moment (field-independent basis, Debye):
    X=             -0.0000    Y=              0.0000    Z=             -0.0000  Tot=              0.0000
 Quadrupole moment (field-independent basis, Debye-Ang):
   XX=            -17.8094   YY=              0.6251   ZZ=            -15.4919
   XY=              6.3233   XZ=             -0.0000   YZ=             -0.0000

 Normal termination of Gaussian 09 at Fri Feb 17 15:07:18 2017.
