 Gaussian 09, Revision E.01,
 Gaussian 09:  ES64L-G09RevE.01 30-Nov-2015

 ----------------------------------------------------------------------
 #rhf/gen scf(symm,tight,novaracc,noincfock,fulldiag) stable(crhf) gues
 s=read geom=nocrowd test
 ----------------------------------------------------------------------

 hf stability analysis of h12 triangular lattice, y= 0.2803104089832951
 2
 ----------------------------------------------------------------------
 Symbolic Z-matrix:
 Charge =  0 Multiplicity = 1

                         Standard orientation:
 ---------------------------------------------------------------------
 Center     Atomic      Atomic             Coordinates (Angstroms)
 Number     Number       Type             X           Y           Z
 ---------------------------------------------------------------------
      1          1           0        0.555500    1.114935    0.000000
      2          1           0        0.000000    3.118003    0.000000
      3          1           0        0.555500   -0.963734    0.000000
      4          1           0        0.000000    1.039334    0.000000
      5          1           0       -0.555500    5.121071    0.000000
      6          1           0       -0.555500    3.042403    0.000000
      7          1           0       -0.555500    0.963734    0.000000
      8          1           0       -0.000000   -1.039334    0.000000
      9          1           0        0.555500   -3.042403   -0.000000
     10          1           0        0.555500   -5.121071   -0.000000
     11          1           0       -0.000000   -3.118003    0.000000
     12          1           0       -0.555500   -1.114935    0.000000
 ---------------------------------------------------------------------

 SCF Done:  E(RHF) =  -5.14572458914     A.U. after   12 cycles
 E2 =    -0.8820078990D+00 EUMP2 =    -0.60277324881042D+01

 The electronic state is 1-AG.
 Alpha  occ. eigenvalues --   -0.90759  -0.86117  -0.69716  -0.69449  -0.26493
 Alpha  occ. eigenvalues --   -0.20143
 Alpha virt. eigenvalues --   -0.14951   0.04731   0.55609   0.56241   1.16036
 Alpha virt. eigenvalues --    1.31640

 Mulliken charges:
               1
     1  H    0.228047
     2  H   -0.005047
     3  H    0.219780
     4  H   -0.436764
     5  H   -0.005322
     6  H   -0.000695
     7  H    0.219780
     8  H   -0.436764
     9  H   -0.000695
    10  H   -0.005322
    11  H   -0.005047
    12  H    0.228047
 Sum of Mulliken charges =  -0.00000

 Dipole moment (field-independent basis, Debye):
    X=             -0.0000    Y=             -0.0000    Z=              0.0000  Tot=              0.0000
 Quadrupole moment (field-independent basis, Debye-Ang):
   XX=            -16.4215   YY=            -19.3129   ZZ=            -15.5092
   XY=              0.6724   XZ=              0.0000   YZ=             -0.0000

 Normal termination of Gaussian 09 at Fri Feb 17 14:53:46 2017.
