 Gaussian 09, Revision E.01,
 Gaussian 09:  ES64L-G09RevE.01 30-Nov-2015

 ----------------------------------------------------------------------
 #rhf/gen scf(symm,tight,novaracc,noincfock,fulldiag) stable(crhf) gues
 s=read geom=nocrowd test
 ----------------------------------------------------------------------

 ----------------------------------------------------------------------
 hf stability analysis of h12 triangular lattice, y= 2.3437412473608381
 ----------------------------------------------------------------------
 Symbolic Z-matrix:
 Charge =  0 Multiplicity = 1

                         Standard orientation:
 ---------------------------------------------------------------------
 Center     Atomic      Atomic             Coordinates (Angstroms)
 Number     Number       Type             X           Y           Z
 ---------------------------------------------------------------------
      1          1           0        0.489975    5.840130   -0.000000
      2          1           0        0.000000    3.534977    0.000000
      3          1           0        0.489975    3.483478   -0.000000
      4          1           0        0.000000    1.178326    0.000000
      5          1           0       -0.489975    1.229824    0.000000
      6          1           0       -0.489975   -1.126827    0.000000
      7          1           0       -0.489975   -3.483478    0.000000
      8          1           0       -0.000000   -1.178326    0.000000
      9          1           0        0.489975    1.126827    0.000000
     10          1           0        0.489975   -1.229824    0.000000
     11          1           0       -0.000000   -3.534977    0.000000
     12          1           0       -0.489975   -5.840130    0.000000
 ---------------------------------------------------------------------

 SCF Done:  E(RHF) =  -4.58991394313     A.U. after   11 cycles
 E2 =    -0.1039630376D+01 EUMP2 =    -0.56295443194860D+01

 The electronic state is 1-AG.
 Alpha  occ. eigenvalues --   -0.93362  -0.91827  -0.72018  -0.72002  -0.20693
 Alpha  occ. eigenvalues --   -0.20582
 Alpha virt. eigenvalues --   -0.16065   0.05949   0.61939   0.62146   1.41892
 Alpha virt. eigenvalues --    1.53542

 Mulliken charges:
               1
     1  H    0.001330
     2  H   -0.003247
     3  H   -0.001474
     4  H   -0.611312
     5  H    0.306714
     6  H    0.307989
     7  H   -0.001474
     8  H   -0.611312
     9  H    0.307989
    10  H    0.306714
    11  H   -0.003247
    12  H    0.001330
 Sum of Mulliken charges =  -0.00000

 Dipole moment (field-independent basis, Debye):
    X=              0.0000    Y=              0.0000    Z=              0.0000  Tot=              0.0000
 Quadrupole moment (field-independent basis, Debye-Ang):
   XX=            -16.7110   YY=            -16.7038   ZZ=            -15.5217
   XY=             -0.1903   XZ=             -0.0000   YZ=              0.0000

 Normal termination of Gaussian 09 at Mon Feb 13 17:29:20 2017.
