 Gaussian 09, Revision E.01,
 Gaussian 09:  ES64L-G09RevE.01 30-Nov-2015

 ----------------------------------------------------------------------
 #rhf/gen scf(symm,tight,novaracc,noincfock,fulldiag) stable(crhf) gues
 s=read geom=nocrowd test
 ----------------------------------------------------------------------

 ----------------------------------------------------------------------
 hf stability analysis of h12 triangular lattice, y= 1.3232044396011293
 ----------------------------------------------------------------------
 Symbolic Z-matrix:
 Charge =  0 Multiplicity = 1

                         Standard orientation:
 ---------------------------------------------------------------------
 Center     Atomic      Atomic             Coordinates (Angstroms)
 Number     Number       Type             X           Y           Z
 ---------------------------------------------------------------------
      1          1           0        0.828759    3.209936    0.000000
      2          1           0        0.000000    2.089932    0.000000
      3          1           0        0.828759    1.816648    0.000000
      4          1           0        0.000000    0.696644    0.000000
      5          1           0       -0.828759    0.969928    0.000000
      6          1           0       -0.828759   -0.423360   -0.000000
      7          1           0       -0.828759   -1.816648    0.000000
      8          1           0       -0.000000   -0.696644    0.000000
      9          1           0        0.828759    0.423360   -0.000000
     10          1           0        0.828759   -0.969928    0.000000
     11          1           0       -0.000000   -2.089932    0.000000
     12          1           0       -0.828759   -3.209936    0.000000
 ---------------------------------------------------------------------

 SCF Done:  E(RHF) =  -5.84376057303     A.U. after   16 cycles
 E2 =    -0.1140974905D+00 EUMP2 =    -0.59578580635624D+01

 The electronic state is 1-AG.
 Alpha  occ. eigenvalues --   -0.84147  -0.74916  -0.59809  -0.45249  -0.38957
 Alpha  occ. eigenvalues --   -0.22793
 Alpha virt. eigenvalues --    0.00207   0.07077   0.32963   0.43042   0.59104
 Alpha virt. eigenvalues --    0.79486

 Mulliken charges:
               1
     1  H    0.164587
     2  H    0.013122
     3  H    0.117081
     4  H   -0.040205
     5  H   -0.107650
     6  H   -0.146936
     7  H    0.117081
     8  H   -0.040205
     9  H   -0.146936
    10  H   -0.107650
    11  H    0.013122
    12  H    0.164587
 Sum of Mulliken charges =  -0.00000

 Dipole moment (field-independent basis, Debye):
    X=             -0.0000    Y=             -0.0000    Z=              0.0000  Tot=              0.0000
 Quadrupole moment (field-independent basis, Debye-Ang):
   XX=            -18.1071   YY=              0.8379   ZZ=            -15.5118
   XY=              6.6389   XZ=             -0.0000   YZ=             -0.0000

 Normal termination of Gaussian 09 at Fri Feb 17 15:07:12 2017.
