 Gaussian 09, Revision E.01,
 Gaussian 09:  ES64L-G09RevE.01 30-Nov-2015

 ----------------------------------------------------------------------
 #rhf/gen scf(symm,tight,novaracc,noincfock,fulldiag) stable(crhf) gues
 s=read geom=nocrowd test
 ----------------------------------------------------------------------

 ----------------------------------------------------------------------
 hf stability analysis of h12 triangular lattice, y= 2.2960291063410230
 ----------------------------------------------------------------------
 Symbolic Z-matrix:
 Charge =  0 Multiplicity = 1

                         Standard orientation:
 ---------------------------------------------------------------------
 Center     Atomic      Atomic             Coordinates (Angstroms)
 Number     Number       Type             X           Y           Z
 ---------------------------------------------------------------------
      1          1           0        0.499923    5.719643   -0.000000
      2          1           0        0.000000    3.464636   -0.000000
      3          1           0        0.499923    3.409886   -0.000000
      4          1           0        0.000000    1.154879   -0.000000
      5          1           0       -0.499923    1.209629   -0.000000
      6          1           0       -0.499923   -1.100128   -0.000000
      7          1           0       -0.499923   -3.409886   -0.000000
      8          1           0       -0.000000   -1.154879   -0.000000
      9          1           0        0.499923    1.100128   -0.000000
     10          1           0        0.499923   -1.209629   -0.000000
     11          1           0       -0.000000   -3.464636   -0.000000
     12          1           0       -0.499923   -5.719643   -0.000000
 ---------------------------------------------------------------------

 SCF Done:  E(RHF) =  -4.69308894434     A.U. after   11 cycles
 E2 =    -0.7947443060D+00 EUMP2 =    -0.54878332503625D+01

 The electronic state is 1-AG.
 Alpha  occ. eigenvalues --   -0.96674  -0.94843  -0.72001  -0.71972  -0.23733
 Alpha  occ. eigenvalues --   -0.19035
 Alpha virt. eigenvalues --   -0.13964   0.02683   0.60576   0.60805   1.33509
 Alpha virt. eigenvalues --    1.45646

 Mulliken charges:
               1
     1  H   -0.078959
     2  H   -0.003327
     3  H   -0.001481
     4  H   -0.601895
     5  H    0.342386
     6  H    0.343276
     7  H   -0.001481
     8  H   -0.601895
     9  H    0.343276
    10  H    0.342386
    11  H   -0.003327
    12  H   -0.078959
 Sum of Mulliken charges =   0.00000

 Dipole moment (field-independent basis, Debye):
    X=              0.0000    Y=             -0.0000    Z=             -0.0000  Tot=              0.0000
 Quadrupole moment (field-independent basis, Debye-Ang):
   XX=            -16.3983   YY=            -41.2082   ZZ=            -15.5567
   XY=             -2.4574   XZ=              0.0000   YZ=             -0.0000

 Normal termination of Gaussian 09 at Fri Feb 17 15:09:37 2017.
