 Gaussian 09, Revision E.01,
 Gaussian 09:  ES64L-G09RevE.01 30-Nov-2015

 ----------------------------------------------------------------------
 #rhf/gen scf(symm,tight,novaracc,noincfock,fulldiag) stable(crhf) gues
 s=read geom=nocrowd test
 ----------------------------------------------------------------------

 hf stability analysis of h12 triangular lattice, y= 0.8406196945607729
 0
 ----------------------------------------------------------------------
 Symbolic Z-matrix:
 Charge =  0 Multiplicity = 1

                         Standard orientation:
 ---------------------------------------------------------------------
 Center     Atomic      Atomic             Coordinates (Angstroms)
 Number     Number       Type             X           Y           Z
 ---------------------------------------------------------------------
      1          1           0        1.063729    1.844700   -0.000000
      2          1           0       -0.000000    1.628282   -0.000000
      3          1           0        1.063729    0.759179   -0.000000
      4          1           0       -0.000000    0.542761   -0.000000
      5          1           0       -1.063729    1.411864   -0.000000
      6          1           0       -1.063729    0.326342   -0.000000
      7          1           0       -1.063729   -0.759179   -0.000000
      8          1           0       -0.000000   -0.542761   -0.000000
      9          1           0        1.063729   -0.326342   -0.000000
     10          1           0        1.063729   -1.411864   -0.000000
     11          1           0       -0.000000   -1.628282   -0.000000
     12          1           0       -1.063729   -1.844700   -0.000000
 ---------------------------------------------------------------------

 SCF Done:  E(RHF) =  -5.74787890029     A.U. after   17 cycles
 E2 =    -0.1200898037D+00 EUMP2 =    -0.58679687040206D+01

 The electronic state is 1-AG.
 Alpha  occ. eigenvalues --   -1.00565  -0.79007  -0.68725  -0.51802  -0.45522
 Alpha  occ. eigenvalues --   -0.21739
 Alpha virt. eigenvalues --   -0.01759   0.12474   0.22903   0.39898   0.56600
 Alpha virt. eigenvalues --    0.86023

 Mulliken charges:
               1
     1  H   -0.265253
     2  H    0.092898
     3  H    0.072544
     4  H    0.027136
     5  H   -0.064613
     6  H    0.137289
     7  H    0.072544
     8  H    0.027136
     9  H    0.137289
    10  H   -0.064613
    11  H    0.092898
    12  H   -0.265253
 Sum of Mulliken charges =  -0.00000

 Dipole moment (field-independent basis, Debye):
    X=             -0.0000    Y=              0.0000    Z=              0.0000  Tot=              0.0000
 Quadrupole moment (field-independent basis, Debye-Ang):
   XX=            -17.6981   YY=            -28.2051   ZZ=            -15.1408
   XY=             -4.8043   XZ=              0.0000   YZ=             -0.0000

 Normal termination of Gaussian 09 at Fri Feb 17 15:02:50 2017.
