 Gaussian 09, Revision E.01,
 Gaussian 09:  ES64L-G09RevE.01 30-Nov-2015

 ----------------------------------------------------------------------
 #rhf/gen scf(symm,tight,novaracc,noincfock,fulldiag) stable(crhf) gues
 s=read geom=nocrowd test
 ----------------------------------------------------------------------

 hf stability analysis of h12 triangular lattice, y= 0.6625913996779515
 5
 ----------------------------------------------------------------------
 Symbolic Z-matrix:
 Charge =  0 Multiplicity = 1

                         Standard orientation:
 ---------------------------------------------------------------------
 Center     Atomic      Atomic             Coordinates (Angstroms)
 Number     Number       Type             X           Y           Z
 ---------------------------------------------------------------------
      1          1           0        1.054848    1.349455   -0.000000
      2          1           0        0.000000    1.641991   -0.000000
      3          1           0        1.054848    0.254795    0.000000
      4          1           0        0.000000    0.547330   -0.000000
      5          1           0       -1.054848    1.934526   -0.000000
      6          1           0       -1.054848    0.839865   -0.000000
      7          1           0       -1.054848   -0.254795    0.000000
      8          1           0       -0.000000   -0.547330   -0.000000
      9          1           0        1.054848   -0.839865   -0.000000
     10          1           0        1.054848   -1.934526   -0.000000
     11          1           0       -0.000000   -1.641991   -0.000000
     12          1           0       -1.054848   -1.349455   -0.000000
 ---------------------------------------------------------------------

 SCF Done:  E(RHF) =  -5.78920921029     A.U. after   14 cycles
 E2 =    -0.1178778947D+00 EUMP2 =    -0.59070871049963D+01

 The electronic state is 1-AG.
 Alpha  occ. eigenvalues --   -1.00316  -0.79155  -0.68175  -0.52720  -0.44354
 Alpha  occ. eigenvalues --   -0.23578
 Alpha virt. eigenvalues --   -0.00517   0.14391   0.24325   0.36624   0.57396
 Alpha virt. eigenvalues --    0.80108

 Mulliken charges:
               1
     1  H   -0.065393
     2  H    0.098961
     3  H    0.134601
     4  H    0.015512
     5  H   -0.256502
     6  H    0.072820
     7  H    0.134601
     8  H    0.015512
     9  H    0.072820
    10  H   -0.256502
    11  H    0.098961
    12  H   -0.065393
 Sum of Mulliken charges =   0.00000

 Dipole moment (field-independent basis, Debye):
    X=              0.0000    Y=              0.0000    Z=              0.0000  Tot=              0.0000
 Quadrupole moment (field-independent basis, Debye-Ang):
   XX=            -17.6970   YY=            -28.3498   ZZ=            -15.1812
   XY=              4.6793   XZ=             -0.0000   YZ=              0.0000

 Normal termination of Gaussian 09 at Fri Feb 17 14:59:55 2017.
