 Gaussian 09, Revision E.01,
 Gaussian 09:  ES64L-G09RevE.01 30-Nov-2015

 ----------------------------------------------------------------------
 #rhf/gen scf(symm,tight,novaracc,noincfock,fulldiag) stable(crhf) gues
 s=read geom=nocrowd test
 ----------------------------------------------------------------------

 hf stability analysis of h12 triangular lattice, y= 0.5099777844418526
 0
 ----------------------------------------------------------------------
 Symbolic Z-matrix:
 Charge =  0 Multiplicity = 1

                         Standard orientation:
 ---------------------------------------------------------------------
 Center     Atomic      Atomic             Coordinates (Angstroms)
 Number     Number       Type             X           Y           Z
 ---------------------------------------------------------------------
      1          1           0        0.929957    1.039751    0.000000
      2          1           0        0.000000    1.862507    0.000000
      3          1           0        0.929957   -0.201921   -0.000000
      4          1           0        0.000000    0.620836    0.000000
      5          1           0       -0.929957    2.685263    0.000000
      6          1           0       -0.929957    1.443592    0.000000
      7          1           0       -0.929957    0.201921   -0.000000
      8          1           0       -0.000000   -0.620836    0.000000
      9          1           0        0.929957   -1.443592    0.000000
     10          1           0        0.929957   -2.685263    0.000000
     11          1           0       -0.000000   -1.862507    0.000000
     12          1           0       -0.929957   -1.039751    0.000000
 ---------------------------------------------------------------------

 SCF Done:  E(RHF) =  -5.96350030793     A.U. after   13 cycles
 E2 =    -0.1107235393D+00 EUMP2 =    -0.60742238471886D+01

 The electronic state is 1-AG.
 Alpha  occ. eigenvalues --   -0.92193  -0.77889  -0.58213  -0.54781  -0.36358
 Alpha  occ. eigenvalues --   -0.32629
 Alpha virt. eigenvalues --    0.11629   0.24298   0.25209   0.31068   0.54284
 Alpha virt. eigenvalues --    0.54598

 Mulliken charges:
               1
     1  H   -0.086006
     2  H    0.070750
     3  H   -0.027849
     4  H   -0.023255
     5  H   -0.005801
     6  H    0.072161
     7  H   -0.027849
     8  H   -0.023255
     9  H    0.072161
    10  H   -0.005801
    11  H    0.070750
    12  H   -0.086006
 Sum of Mulliken charges =  -0.00000

 Dipole moment (field-independent basis, Debye):
    X=              0.0000    Y=              0.0000    Z=              0.0000  Tot=              0.0000
 Quadrupole moment (field-independent basis, Debye-Ang):
   XX=            -18.0307   YY=            -17.0826   ZZ=            -15.4421
   XY=             -1.5868   XZ=              0.0000   YZ=             -0.0000

 Normal termination of Gaussian 09 at Fri Feb 17 14:57:13 2017.
