 Gaussian 09, Revision E.01,
 Gaussian 09:  ES64L-G09RevE.01 30-Nov-2015

 ----------------------------------------------------------------------
 #rhf/gen scf(symm,tight,novaracc,noincfock,fulldiag) stable(crhf) gues
 s=read geom=nocrowd test
 ----------------------------------------------------------------------

 hf stability analysis of h12 triangular lattice, y= 0.6093965744756328
 9
 ----------------------------------------------------------------------
 Symbolic Z-matrix:
 Charge =  0 Multiplicity = 1

                         Standard orientation:
 ---------------------------------------------------------------------
 Center     Atomic      Atomic             Coordinates (Angstroms)
 Number     Number       Type             X           Y           Z
 ---------------------------------------------------------------------
      1          1           0        1.025053    1.222576    0.000000
      2          1           0        0.000000    1.689719    0.000000
      3          1           0        1.025053    0.096096    0.000000
      4          1           0        0.000000    0.563240    0.000000
      5          1           0       -1.025053    2.156862    0.000000
      6          1           0       -1.025053    1.030383    0.000000
      7          1           0       -1.025053   -0.096096   -0.000000
      8          1           0       -0.000000   -0.563240    0.000000
      9          1           0        1.025053   -1.030383    0.000000
     10          1           0        1.025053   -2.156862    0.000000
     11          1           0       -0.000000   -1.689719    0.000000
     12          1           0       -1.025053   -1.222576    0.000000
 ---------------------------------------------------------------------

 SCF Done:  E(RHF) =  -5.88037814851     A.U. after   14 cycles
 E2 =    -0.1144532028D+00 EUMP2 =    -0.59948313512859D+01

 The electronic state is 1-AG.
 Alpha  occ. eigenvalues --   -0.98820  -0.79288  -0.65346  -0.54826  -0.41230
 Alpha  occ. eigenvalues --   -0.28024
 Alpha virt. eigenvalues --    0.04773   0.18517   0.28545   0.30369   0.57820
 Alpha virt. eigenvalues --    0.64020

 Mulliken charges:
               1
     1  H   -0.060786
     2  H    0.094275
     3  H    0.096305
     4  H   -0.000506
     5  H   -0.197123
     6  H    0.067834
     7  H    0.096305
     8  H   -0.000506
     9  H    0.067834
    10  H   -0.197123
    11  H    0.094275
    12  H   -0.060786
 Sum of Mulliken charges =  -0.00000

 Dipole moment (field-independent basis, Debye):
    X=             -0.0000    Y=             -0.0000    Z=             -0.0000  Tot=              0.0000
 Quadrupole moment (field-independent basis, Debye-Ang):
   XX=            -17.7319   YY=            -27.1612   ZZ=            -15.2707
   XY=              3.5023   XZ=             -0.0000   YZ=              0.0000

 Normal termination of Gaussian 09 at Fri Feb 17 14:58:58 2017.
