 Gaussian 09, Revision E.01,
 Gaussian 09:  ES64L-G09RevE.01 30-Nov-2015

 ----------------------------------------------------------------------
 #rhf/gen scf(symm,tight,novaracc,noincfock,fulldiag) stable(crhf) gues
 s=read geom=nocrowd test
 ----------------------------------------------------------------------

 ----------------------------------------------------------------------
 hf stability analysis of h12 triangular lattice, y= 2.2086216254199424
 ----------------------------------------------------------------------
 Symbolic Z-matrix:
 Charge =  0 Multiplicity = 1

                         Standard orientation:
 ---------------------------------------------------------------------
 Center     Atomic      Atomic             Coordinates (Angstroms)
 Number     Number       Type             X           Y           Z
 ---------------------------------------------------------------------
      1          1           0        0.519191    5.498644   -0.000000
      2          1           0        0.000000    3.336056   -0.000000
      3          1           0        0.519191    3.274606   -0.000000
      4          1           0        0.000000    1.112019   -0.000000
      5          1           0       -0.519191    1.173469   -0.000000
      6          1           0       -0.519191   -1.050568   -0.000000
      7          1           0       -0.519191   -3.274606    0.000000
      8          1           0       -0.000000   -1.112019    0.000000
      9          1           0        0.519191    1.050568   -0.000000
     10          1           0        0.519191   -1.173469    0.000000
     11          1           0       -0.000000   -3.336056    0.000000
     12          1           0       -0.519191   -5.498644    0.000000
 ---------------------------------------------------------------------

 SCF Done:  E(RHF) =  -4.86779639183     A.U. after   11 cycles
 E2 =    -0.8342119098D+00 EUMP2 =    -0.57020083016495D+01

 The electronic state is 1-AG.
 Alpha  occ. eigenvalues --   -0.94247  -0.91502  -0.71185  -0.71116  -0.24589
 Alpha  occ. eigenvalues --   -0.19569
 Alpha virt. eigenvalues --   -0.14480   0.03556   0.58804   0.59140   1.27296
 Alpha virt. eigenvalues --    1.40637

 Mulliken charges:
               1
     1  H   -0.048230
     2  H   -0.004264
     3  H   -0.001210
     4  H   -0.537086
     5  H    0.296168
     6  H    0.294622
     7  H   -0.001210
     8  H   -0.537086
     9  H    0.294622
    10  H    0.296168
    11  H   -0.004264
    12  H   -0.048230
 Sum of Mulliken charges =   0.00000

 Dipole moment (field-independent basis, Debye):
    X=              0.0000    Y=              0.0000    Z=             -0.0000  Tot=              0.0000
 Quadrupole moment (field-independent basis, Debye-Ang):
   XX=            -16.4227   YY=            -31.0851   ZZ=            -15.5399
   XY=             -1.6773   XZ=             -0.0000   YZ=              0.0000

 Normal termination of Gaussian 09 at Fri Feb 17 15:09:31 2017.
