 Gaussian 09, Revision E.01,
 Gaussian 09:  ES64L-G09RevE.01 30-Nov-2015

 ----------------------------------------------------------------------
 #rhf/gen scf(symm,tight,novaracc,noincfock,fulldiag) stable(crhf) gues
 s=read geom=nocrowd test
 ----------------------------------------------------------------------

 ----------------------------------------------------------------------
 hf stability analysis of h12 triangular lattice, y= 1.9954740303864316
 ----------------------------------------------------------------------
 Symbolic Z-matrix:
 Charge =  0 Multiplicity = 1

                         Standard orientation:
 ---------------------------------------------------------------------
 Center     Atomic      Atomic             Coordinates (Angstroms)
 Number     Number       Type             X           Y           Z
 ---------------------------------------------------------------------
      1          1           0        0.572672    4.957817   -0.000000
      2          1           0        0.000000    3.024511   -0.000000
      3          1           0        0.572672    2.941477   -0.000000
      4          1           0        0.000000    1.008170   -0.000000
      5          1           0       -0.572672    1.091204   -0.000000
      6          1           0       -0.572672   -0.925137    0.000000
      7          1           0       -0.572672   -2.941477   -0.000000
      8          1           0       -0.000000   -1.008170   -0.000000
      9          1           0        0.572672    0.925137    0.000000
     10          1           0        0.572672   -1.091204    0.000000
     11          1           0       -0.000000   -3.024511   -0.000000
     12          1           0       -0.572672   -4.957817   -0.000000
 ---------------------------------------------------------------------

 SCF Done:  E(RHF) =  -5.25550189134     A.U. after   15 cycles
 E2 =    -0.8565300024D+00 EUMP2 =    -0.61120318936919D+01

 The electronic state is 1-AG.
 Alpha  occ. eigenvalues --   -0.90104  -0.84542  -0.69101  -0.68655  -0.27815
 Alpha  occ. eigenvalues --   -0.20017
 Alpha virt. eigenvalues --   -0.14666   0.04615   0.54104   0.54920   1.10299
 Alpha virt. eigenvalues --    1.26925

 Mulliken charges:
               1
     1  H   -0.003793
     2  H   -0.005566
     3  H    0.000276
     4  H   -0.400526
     5  H    0.210730
     6  H    0.198879
     7  H    0.000276
     8  H   -0.400526
     9  H    0.198879
    10  H    0.210730
    11  H   -0.005566
    12  H   -0.003793
 Sum of Mulliken charges =  -0.00000

 Dipole moment (field-independent basis, Debye):
    X=             -0.0000    Y=             -0.0000    Z=              0.0000  Tot=              0.0000
 Quadrupole moment (field-independent basis, Debye-Ang):
   XX=            -16.3460   YY=            -19.0675   ZZ=            -15.4960
   XY=             -0.7103   XZ=             -0.0000   YZ=              0.0000

 Normal termination of Gaussian 09 at Fri Feb 17 15:09:13 2017.
