 Gaussian 09, Revision E.01,
 Gaussian 09:  ES64L-G09RevE.01 30-Nov-2015

 ----------------------------------------------------------------------
 #rhf/gen scf(symm,tight,novaracc,noincfock,fulldiag) stable(crhf) gues
 s=read geom=nocrowd test
 ----------------------------------------------------------------------

 hf stability analysis of h12 triangular lattice, y= 0.5218199625932952
 2
 ----------------------------------------------------------------------
 Symbolic Z-matrix:
 Charge =  0 Multiplicity = 1

                         Standard orientation:
 ---------------------------------------------------------------------
 Center     Atomic      Atomic             Coordinates (Angstroms)
 Number     Number       Type             X           Y           Z
 ---------------------------------------------------------------------
      1          1           0        0.943925    1.056832    0.000000
      2          1           0       -0.000000    1.834944    0.000000
      3          1           0        0.943925   -0.166464   -0.000000
      4          1           0       -0.000000    0.611648    0.000000
      5          1           0       -0.943925    2.613057    0.000000
      6          1           0       -0.943925    1.389760    0.000000
      7          1           0       -0.943925    0.166464    0.000000
      8          1           0       -0.000000   -0.611648   -0.000000
      9          1           0        0.943925   -1.389760   -0.000000
     10          1           0        0.943925   -2.613057   -0.000000
     11          1           0       -0.000000   -1.834944   -0.000000
     12          1           0       -0.943925   -1.056832    0.000000
 ---------------------------------------------------------------------

 SCF Done:  E(RHF) =  -5.96498209107     A.U. after   13 cycles
 E2 =    -0.1110142338D+00 EUMP2 =    -0.60759963248375D+01

 The electronic state is 1-AG.
 Alpha  occ. eigenvalues --   -0.93257  -0.78209  -0.57877  -0.56380  -0.35434
 Alpha  occ. eigenvalues --   -0.33908
 Alpha virt. eigenvalues --    0.13441   0.22327   0.24077   0.33961   0.51093
 Alpha virt. eigenvalues --    0.55004

 Mulliken charges:
               1
     1  H   -0.079031
     2  H    0.073763
     3  H   -0.012088
     4  H   -0.020870
     5  H   -0.032735
     6  H    0.070961
     7  H   -0.012088
     8  H   -0.020870
     9  H    0.070961
    10  H   -0.032735
    11  H    0.073763
    12  H   -0.079031
 Sum of Mulliken charges =   0.00000

 Dipole moment (field-independent basis, Debye):
    X=             -0.0000    Y=              0.0000    Z=              0.0000  Tot=              0.0000
 Quadrupole moment (field-independent basis, Debye-Ang):
   XX=            -17.9713   YY=            -19.0522   ZZ=            -15.4228
   XY=             -0.8114   XZ=              0.0000   YZ=             -0.0000

 Normal termination of Gaussian 09 at Fri Feb 17 14:57:26 2017.
