 Gaussian 09, Revision E.01,
 Gaussian 09:  ES64L-G09RevE.01 30-Nov-2015

 ----------------------------------------------------------------------
 #rhf/gen scf(symm,tight,novaracc,noincfock,fulldiag) stable(crhf) gues
 s=read geom=nocrowd test
 ----------------------------------------------------------------------

 hf stability analysis of h12 triangular lattice, y= 0.8258291078557595
 8
 ----------------------------------------------------------------------
 Symbolic Z-matrix:
 Charge =  0 Multiplicity = 1

                         Standard orientation:
 ---------------------------------------------------------------------
 Center     Atomic      Atomic             Coordinates (Angstroms)
 Number     Number       Type             X           Y           Z
 ---------------------------------------------------------------------
      1          1           0        1.067176    1.801607    0.000000
      2          1           0        0.000000    1.623023    0.000000
      3          1           0        1.067176    0.719592    0.000000
      4          1           0        0.000000    0.541008    0.000000
      5          1           0       -1.067176    1.444439    0.000000
      6          1           0       -1.067176    0.362424    0.000000
      7          1           0       -1.067176   -0.719592    0.000000
      8          1           0       -0.000000   -0.541008    0.000000
      9          1           0        1.067176   -0.362424    0.000000
     10          1           0        1.067176   -1.444439    0.000000
     11          1           0       -0.000000   -1.623023    0.000000
     12          1           0       -1.067176   -1.801607    0.000000
 ---------------------------------------------------------------------

 SCF Done:  E(RHF) =  -5.72800002813     A.U. after   17 cycles
 E2 =    -0.1214257641D+00 EUMP2 =    -0.58494257922822D+01

 The electronic state is 1-AG.
 Alpha  occ. eigenvalues --   -1.00642  -0.78942  -0.68843  -0.51387  -0.46048
 Alpha  occ. eigenvalues --   -0.20878
 Alpha virt. eigenvalues --   -0.02172   0.11537   0.22436   0.41379   0.56090
 Alpha virt. eigenvalues --    0.88488

 Mulliken charges:
               1
     1  H   -0.264275
     2  H    0.087362
     3  H    0.070554
     4  H    0.035529
     5  H   -0.064084
     6  H    0.134915
     7  H    0.070554
     8  H    0.035529
     9  H    0.134915
    10  H   -0.064084
    11  H    0.087362
    12  H   -0.264275
 Sum of Mulliken charges =   0.00000

 Dipole moment (field-independent basis, Debye):
    X=              0.0000    Y=              0.0000    Z=             -0.0000  Tot=              0.0000
 Quadrupole moment (field-independent basis, Debye-Ang):
   XX=            -17.7275   YY=            -28.0040   ZZ=            -15.1208
   XY=             -4.7537   XZ=             -0.0000   YZ=             -0.0000

 Normal termination of Gaussian 09 at Fri Feb 17 15:02:37 2017.
