 Gaussian 09, Revision E.01,
 Gaussian 09:  ES64L-G09RevE.01 30-Nov-2015

 ----------------------------------------------------------------------
 #rhf/gen scf(symm,tight,novaracc,noincfock,fulldiag) stable(crhf) gues
 s=read geom=nocrowd test
 ----------------------------------------------------------------------

 hf stability analysis of h12 triangular lattice, y= 0.3231128888021356
 2
 ----------------------------------------------------------------------
 Symbolic Z-matrix:
 Charge =  0 Multiplicity = 1

                         Standard orientation:
 ---------------------------------------------------------------------
 Center     Atomic      Atomic             Coordinates (Angstroms)
 Number     Number       Type             X           Y           Z
 ---------------------------------------------------------------------
      1          1           0        0.635912    1.022900   -0.000000
      2          1           0        0.000000    2.723725    0.000000
      3          1           0        0.635912   -0.792917   -0.000000
      4          1           0        0.000000    0.907908    0.000000
      5          1           0       -0.635912    4.424550    0.000000
      6          1           0       -0.635912    2.608734    0.000000
      7          1           0       -0.635912    0.792917   -0.000000
      8          1           0       -0.000000   -0.907908    0.000000
      9          1           0        0.635912   -2.608734    0.000000
     10          1           0        0.635912   -4.424550    0.000000
     11          1           0       -0.000000   -2.723725    0.000000
     12          1           0       -0.635912   -1.022900    0.000000
 ---------------------------------------------------------------------

 SCF Done:  E(RHF) =  -5.55421887291     A.U. after   12 cycles
 E2 =    -0.7326012331D+00 EUMP2 =    -0.62868201060472D+01

 The electronic state is 1-AG.
 Alpha  occ. eigenvalues --   -0.89003  -0.80206  -0.66934  -0.65003  -0.32831
 Alpha  occ. eigenvalues --   -0.18936
 Alpha virt. eigenvalues --   -0.12825   0.03611   0.48850   0.50683   0.90827
 Alpha virt. eigenvalues --    1.10901

 Mulliken charges:
               1
     1  H    0.172035
     2  H   -0.005640
     3  H    0.141334
     4  H   -0.298333
     5  H   -0.016652
     6  H    0.007256
     7  H    0.141334
     8  H   -0.298333
     9  H    0.007256
    10  H   -0.016652
    11  H   -0.005640
    12  H    0.172035
 Sum of Mulliken charges =  -0.00000

 Dipole moment (field-independent basis, Debye):
    X=              0.0000    Y=             -0.0000    Z=             -0.0000  Tot=              0.0000
 Quadrupole moment (field-independent basis, Debye-Ang):
   XX=            -16.0042   YY=            -21.5982   ZZ=            -15.4307
   XY=              1.4006   XZ=              0.0000   YZ=             -0.0000

 Normal termination of Gaussian 09 at Fri Feb 17 14:54:16 2017.
