 Gaussian 09, Revision E.01,
 Gaussian 09:  ES64L-G09RevE.01 30-Nov-2015

 ----------------------------------------------------------------------
 #rhf/gen scf(symm,tight,novaracc,noincfock,fulldiag) stable(crhf) gues
 s=read geom=nocrowd test
 ----------------------------------------------------------------------

 hf stability analysis of h12 triangular lattice, y= 0.9165423628436679
 7
 ----------------------------------------------------------------------
 Symbolic Z-matrix:
 Charge =  0 Multiplicity = 1

                         Standard orientation:
 ---------------------------------------------------------------------
 Center     Atomic      Atomic             Coordinates (Angstroms)
 Number     Number       Type             X           Y           Z
 ---------------------------------------------------------------------
      1          1           0        1.038271    2.066762   -0.000000
      2          1           0        0.000000    1.668208   -0.000000
      3          1           0        1.038271    0.954624   -0.000000
      4          1           0        0.000000    0.556069   -0.000000
      5          1           0       -1.038271    1.269653   -0.000000
      6          1           0       -1.038271    0.157514   -0.000000
      7          1           0       -1.038271   -0.954624   -0.000000
      8          1           0       -0.000000   -0.556069   -0.000000
      9          1           0        1.038271   -0.157514   -0.000000
     10          1           0        1.038271   -1.269653   -0.000000
     11          1           0       -0.000000   -1.668208   -0.000000
     12          1           0       -1.038271   -2.066762   -0.000000
 ---------------------------------------------------------------------

 SCF Done:  E(RHF) =  -5.84624583630     A.U. after   14 cycles
 E2 =    -0.1156114293D+00 EUMP2 =    -0.59618572656067D+01

 The electronic state is 1-AG.
 Alpha  occ. eigenvalues --   -0.99566  -0.79286  -0.66693  -0.54020  -0.42528
 Alpha  occ. eigenvalues --   -0.26267
 Alpha virt. eigenvalues --    0.02297   0.16980   0.27541   0.31760   0.57895
 Alpha virt. eigenvalues --    0.70557

 Mulliken charges:
               1
     1  H   -0.225171
     2  H    0.097985
     3  H    0.069532
     4  H    0.004995
     5  H   -0.062888
     6  H    0.115547
     7  H    0.069532
     8  H    0.004995
     9  H    0.115547
    10  H   -0.062888
    11  H    0.097985
    12  H   -0.225171
 Sum of Mulliken charges =   0.00000

 Dipole moment (field-independent basis, Debye):
    X=             -0.0000    Y=              0.0000    Z=              0.0000  Tot=              0.0000
 Quadrupole moment (field-independent basis, Debye-Ang):
   XX=            -17.7166   YY=            -27.8853   ZZ=            -15.2359
   XY=             -4.0970   XZ=              0.0000   YZ=              0.0000

 Normal termination of Gaussian 09 at Fri Feb 17 15:03:49 2017.
