 Gaussian 09, Revision E.01,
 Gaussian 09:  ES64L-G09RevE.01 30-Nov-2015

 ----------------------------------------------------------------------
 #rhf/gen scf(symm,tight,novaracc,noincfock,fulldiag) stable(crhf) gues
 s=read geom=nocrowd test
 ----------------------------------------------------------------------

 ----------------------------------------------------------------------
 hf stability analysis of h12 triangular lattice, y= 1.7036831833639368
 ----------------------------------------------------------------------
 Symbolic Z-matrix:
 Charge =  0 Multiplicity = 1

                         Standard orientation:
 ---------------------------------------------------------------------
 Center     Atomic      Atomic             Coordinates (Angstroms)
 Number     Number       Type             X           Y           Z
 ---------------------------------------------------------------------
      1          1           0        0.664744    4.210425    0.000000
      2          1           0        0.000000    2.605590    0.000000
      3          1           0        0.664744    2.473365    0.000000
      4          1           0        0.000000    0.868530    0.000000
      5          1           0       -0.664744    1.000756    0.000000
      6          1           0       -0.664744   -0.736304    0.000000
      7          1           0       -0.664744   -2.473365   -0.000000
      8          1           0       -0.000000   -0.868530    0.000000
      9          1           0        0.664744    0.736304    0.000000
     10          1           0        0.664744   -1.000756    0.000000
     11          1           0       -0.000000   -2.605590    0.000000
     12          1           0       -0.664744   -4.210425   -0.000000
 ---------------------------------------------------------------------

 SCF Done:  E(RHF) =  -5.64173352702     A.U. after   12 cycles
 E2 =    -0.6725626594D+00 EUMP2 =    -0.63142961863993D+01

 The electronic state is 1-AG.
 Alpha  occ. eigenvalues --   -0.88914  -0.78887  -0.65988  -0.62824  -0.35101
 Alpha  occ. eigenvalues --   -0.18181
 Alpha virt. eigenvalues --   -0.11628   0.02955   0.46576   0.49074   0.82885
 Alpha virt. eigenvalues --    1.04286

 Mulliken charges:
               1
     1  H   -0.028195
     2  H   -0.004587
     3  H    0.013407
     4  H   -0.263600
     5  H    0.162718
     6  H    0.120257
     7  H    0.013407
     8  H   -0.263600
     9  H    0.120257
    10  H    0.162718
    11  H   -0.004587
    12  H   -0.028195
 Sum of Mulliken charges =   0.00000

 Dipole moment (field-independent basis, Debye):
    X=              0.0000    Y=              0.0000    Z=              0.0000  Tot=              0.0000
 Quadrupole moment (field-independent basis, Debye-Ang):
   XX=            -15.8446   YY=            -23.1805   ZZ=            -15.3944
   XY=             -1.8638   XZ=             -0.0000   YZ=             -0.0000

 Normal termination of Gaussian 09 at Fri Feb 17 15:08:41 2017.
