 Gaussian 09, Revision E.01,
 Gaussian 09:  ES64L-G09RevE.01 30-Nov-2015

 ----------------------------------------------------------------------
 #rhf/gen scf(symm,tight,novaracc,noincfock,fulldiag) stable(crhf) gues
 s=read geom=nocrowd test
 ----------------------------------------------------------------------

 hf stability analysis of h12 triangular lattice, y= 0.7565274741654608
 4
 ----------------------------------------------------------------------
 Symbolic Z-matrix:
 Charge =  0 Multiplicity = 1

                         Standard orientation:
 ---------------------------------------------------------------------
 Center     Atomic      Atomic             Coordinates (Angstroms)
 Number     Number       Type             X           Y           Z
 ---------------------------------------------------------------------
      1          1           0        1.074549    1.602508    0.000000
      2          1           0        0.000000    1.611886   -0.000000
      3          1           0        1.074549    0.527918    0.000000
      4          1           0        0.000000    0.537295   -0.000000
      5          1           0       -1.074549    1.621263   -0.000000
      6          1           0       -1.074549    0.546673   -0.000000
      7          1           0       -1.074549   -0.527918    0.000000
      8          1           0       -0.000000   -0.537295   -0.000000
      9          1           0        1.074549   -0.546673   -0.000000
     10          1           0        1.074549   -1.621263   -0.000000
     11          1           0       -0.000000   -1.611886   -0.000000
     12          1           0       -1.074549   -1.602508    0.000000
 ---------------------------------------------------------------------

 SCF Done:  E(RHF) =  -5.65977047883     A.U. after   19 cycles
 E2 =    -0.1287691436D+00 EUMP2 =    -0.57885396224494D+01

 The electronic state is 1-AG.
 Alpha  occ. eigenvalues --   -1.03182  -0.79813  -0.69585  -0.50893  -0.47963
 Alpha  occ. eigenvalues --   -0.18091
 Alpha virt. eigenvalues --   -0.04867   0.07479   0.20599   0.44219   0.52847
 Alpha virt. eigenvalues --    0.92367

 Mulliken charges:
               1
     1  H   -0.171647
     2  H    0.093499
     3  H    0.097863
     4  H    0.123320
     5  H   -0.219676
     6  H    0.076641
     7  H    0.097863
     8  H    0.123320
     9  H    0.076641
    10  H   -0.219676
    11  H    0.093499
    12  H   -0.171647
 Sum of Mulliken charges =  -0.00000

 Dipole moment (field-independent basis, Debye):
    X=             -0.0000    Y=              0.0000    Z=              0.0000  Tot=              0.0000
 Quadrupole moment (field-independent basis, Debye-Ang):
   XX=            -19.4754   YY=            -27.4899   ZZ=            -15.0806
   XY=              1.1678   XZ=             -0.0000   YZ=              0.0000

 Normal termination of Gaussian 09 at Fri Feb 17 15:01:33 2017.
