 Gaussian 09, Revision E.01,
 Gaussian 09:  ES64L-G09RevE.01 30-Nov-2015

 ----------------------------------------------------------------------
 #rhf/gen scf(symm,tight,novaracc,noincfock,fulldiag) stable(crhf) gues
 s=read geom=nocrowd test
 ----------------------------------------------------------------------

 hf stability analysis of h12 triangular lattice, y= 0.4168485496705611
 2
 ----------------------------------------------------------------------
 Symbolic Z-matrix:
 Charge =  0 Multiplicity = 1

                         Standard orientation:
 ---------------------------------------------------------------------
 Center     Atomic      Atomic             Coordinates (Angstroms)
 Number     Number       Type             X           Y           Z
 ---------------------------------------------------------------------
      1          1           0        0.798324    0.963471   -0.000000
      2          1           0        0.000000    2.169608    0.000000
      3          1           0        0.798324   -0.482934   -0.000000
      4          1           0        0.000000    0.723203    0.000000
      5          1           0       -0.798324    3.375744    0.000000
      6          1           0       -0.798324    1.929339    0.000000
      7          1           0       -0.798324    0.482934    0.000000
      8          1           0       -0.000000   -0.723203   -0.000000
      9          1           0        0.798324   -1.929339   -0.000000
     10          1           0        0.798324   -3.375744   -0.000000
     11          1           0       -0.000000   -2.169608   -0.000000
     12          1           0       -0.798324   -0.963471   -0.000000
 ---------------------------------------------------------------------

 SCF Done:  E(RHF) =  -5.77037373231     A.U. after   14 cycles
 E2 =    -0.1442976105D+00 EUMP2 =    -0.59146713428292D+01

 The electronic state is 1-AG.
 Alpha  occ. eigenvalues --   -0.84325  -0.74269  -0.60599  -0.47510  -0.38937
 Alpha  occ. eigenvalues --   -0.18723
 Alpha virt. eigenvalues --   -0.01232   0.00981   0.36059   0.44485   0.61371
 Alpha virt. eigenvalues --    0.84030

 Mulliken charges:
               1
     1  H   -0.125046
     2  H    0.139204
     3  H    0.015971
     4  H   -0.103417
     5  H    0.121495
     6  H   -0.048208
     7  H    0.015971
     8  H   -0.103417
     9  H   -0.048208
    10  H    0.121495
    11  H    0.139204
    12  H   -0.125046
 Sum of Mulliken charges =   0.00000

 Dipole moment (field-independent basis, Debye):
    X=              0.0000    Y=             -0.0000    Z=             -0.0000  Tot=              0.0000
 Quadrupole moment (field-independent basis, Debye-Ang):
   XX=            -17.7531   YY=             -2.8155   ZZ=            -15.3692
   XY=             -3.1011   XZ=             -0.0000   YZ=              0.0000

 Normal termination of Gaussian 09 at Fri Feb 17 14:55:39 2017.
