 Gaussian 09, Revision E.01,
 Gaussian 09:  ES64L-G09RevE.01 30-Nov-2015

 ----------------------------------------------------------------------
 #rhf/gen scf(symm,tight,novaracc,noincfock,fulldiag) stable(crhf) gues
 s=read geom=nocrowd test
 ----------------------------------------------------------------------

 hf stability analysis of h12 triangular lattice, y= 0.6417319999662348
 7
 ----------------------------------------------------------------------
 Symbolic Z-matrix:
 Charge =  0 Multiplicity = 1

                         Standard orientation:
 ---------------------------------------------------------------------
 Center     Atomic      Atomic             Coordinates (Angstroms)
 Number     Number       Type             X           Y           Z
 ---------------------------------------------------------------------
      1          1           0        1.044888    1.297859    0.000000
      2          1           0        0.000000    1.657643    0.000000
      3          1           0        1.044888    0.192764    0.000000
      4          1           0        0.000000    0.552548    0.000000
      5          1           0       -1.044888    2.017426    0.000000
      6          1           0       -1.044888    0.912331    0.000000
      7          1           0       -1.044888   -0.192764   -0.000000
      8          1           0       -0.000000   -0.552548    0.000000
      9          1           0        1.044888   -0.912331    0.000000
     10          1           0        1.044888   -2.017426    0.000000
     11          1           0       -0.000000   -1.657643    0.000000
     12          1           0       -1.044888   -1.297859    0.000000
 ---------------------------------------------------------------------

 SCF Done:  E(RHF) =  -5.82576348446     A.U. after   14 cycles
 E2 =    -0.1163582556D+00 EUMP2 =    -0.59421217400262D+01

 The electronic state is 1-AG.
 Alpha  occ. eigenvalues --   -0.99899  -0.79254  -0.67326  -0.53549  -0.43221
 Alpha  occ. eigenvalues --   -0.25275
 Alpha virt. eigenvalues --    0.01120   0.16058   0.26195   0.33562   0.57800
 Alpha virt. eigenvalues --    0.74166

 Mulliken charges:
               1
     1  H   -0.064147
     2  H    0.099267
     3  H    0.124308
     4  H    0.008427
     5  H   -0.238674
     6  H    0.070820
     7  H    0.124308
     8  H    0.008427
     9  H    0.070820
    10  H   -0.238674
    11  H    0.099267
    12  H   -0.064147
 Sum of Mulliken charges =  -0.00000

 Dipole moment (field-independent basis, Debye):
    X=              0.0000    Y=             -0.0000    Z=             -0.0000  Tot=              0.0000
 Quadrupole moment (field-independent basis, Debye-Ang):
   XX=            -17.7094   YY=            -28.1470   ZZ=            -15.2161
   XY=              4.3601   XZ=             -0.0000   YZ=              0.0000

 Normal termination of Gaussian 09 at Fri Feb 17 14:59:33 2017.
