 Gaussian 09, Revision E.01,
 Gaussian 09:  ES64L-G09RevE.01 30-Nov-2015

 ----------------------------------------------------------------------
 #rhf/gen scf(symm,tight,novaracc,noincfock,fulldiag) stable(crhf) gues
 s=read geom=nocrowd test
 ----------------------------------------------------------------------

 ----------------------------------------------------------------------
 hf stability analysis of h12 triangular lattice, y= 1.5077541156608558
 ----------------------------------------------------------------------
 Symbolic Z-matrix:
 Charge =  0 Multiplicity = 1

                         Standard orientation:
 ---------------------------------------------------------------------
 Center     Atomic      Atomic             Coordinates (Angstroms)
 Number     Number       Type             X           Y           Z
 ---------------------------------------------------------------------
      1          1           0        0.742277    3.700533   -0.000000
      2          1           0        0.000000    2.333429   -0.000000
      3          1           0        0.742277    2.144914    0.000000
      4          1           0        0.000000    0.777810   -0.000000
      5          1           0       -0.742277    0.966324   -0.000000
      6          1           0       -0.742277   -0.589295   -0.000000
      7          1           0       -0.742277   -2.144914    0.000000
      8          1           0       -0.000000   -0.777810   -0.000000
      9          1           0        0.742277    0.589295   -0.000000
     10          1           0        0.742277   -0.966324   -0.000000
     11          1           0       -0.000000   -2.333429   -0.000000
     12          1           0       -0.742277   -3.700533    0.000000
 ---------------------------------------------------------------------

 SCF Done:  E(RHF) =  -5.75427823872     A.U. after   29 cycles
 E2 =    -0.3939934775D+00 EUMP2 =    -0.61482717162406D+01

 The electronic state is 1-AG.
 Alpha  occ. eigenvalues --   -0.88009  -0.76274  -0.63433  -0.54834  -0.39620
 Alpha  occ. eigenvalues --   -0.16512
 Alpha virt. eigenvalues --   -0.07174   0.01039   0.40641   0.45634   0.66134
 Alpha virt. eigenvalues --    0.89567

 Mulliken charges:
               1
     1  H   -0.036319
     2  H   -0.010955
     3  H    0.063826
     4  H   -0.181848
     5  H    0.136795
     6  H    0.028502
     7  H    0.063826
     8  H   -0.181848
     9  H    0.028502
    10  H    0.136795
    11  H   -0.010955
    12  H   -0.036319
 Sum of Mulliken charges =   0.00000

 Dipole moment (field-independent basis, Debye):
    X=             -0.0000    Y=              0.0000    Z=             -0.0000  Tot=              0.0000
 Quadrupole moment (field-independent basis, Debye-Ang):
   XX=            -15.6491   YY=            -22.1216   ZZ=            -15.3076
   XY=             -1.9915   XZ=              0.0000   YZ=              0.0000

 Normal termination of Gaussian 09 at Fri Feb 17 15:08:05 2017.
