 Gaussian 09, Revision E.01,
 Gaussian 09:  ES64L-G09RevE.01 30-Nov-2015

 ----------------------------------------------------------------------
 #rhf/gen scf(symm,tight,novaracc,noincfock,fulldiag) stable(crhf) gues
 s=read geom=nocrowd test
 ----------------------------------------------------------------------

 hf stability analysis of h12 triangular lattice, y= 0.8557834790083491
 7
 ----------------------------------------------------------------------
 Symbolic Z-matrix:
 Charge =  0 Multiplicity = 1

                         Standard orientation:
 ---------------------------------------------------------------------
 Center     Atomic      Atomic             Coordinates (Angstroms)
 Number     Number       Type             X           Y           Z
 ---------------------------------------------------------------------
      1          1           0        1.059621    1.888988    0.000000
      2          1           0        0.000000    1.634595    0.000000
      3          1           0        1.059621    0.799257    0.000000
      4          1           0        0.000000    0.544865    0.000000
      5          1           0       -1.059621    1.380203    0.000000
      6          1           0       -1.059621    0.290473    0.000000
      7          1           0       -1.059621   -0.799257    0.000000
      8          1           0       -0.000000   -0.544865    0.000000
      9          1           0        1.059621   -0.290473    0.000000
     10          1           0        1.059621   -1.380203    0.000000
     11          1           0       -0.000000   -1.634595    0.000000
     12          1           0       -1.059621   -1.888988    0.000000
 ---------------------------------------------------------------------

 SCF Done:  E(RHF) =  -5.76836793749     A.U. after   16 cycles
 E2 =    -0.1189099161D+00 EUMP2 =    -0.58872778536300D+01

 The electronic state is 1-AG.
 Alpha  occ. eigenvalues --   -1.00466  -0.79083  -0.68506  -0.52252  -0.44956
 Alpha  occ. eigenvalues --   -0.22642
 Alpha virt. eigenvalues --   -0.01217   0.13428   0.23525   0.38301   0.57038
 Alpha virt. eigenvalues --    0.83208

 Mulliken charges:
               1
     1  H   -0.262606
     2  H    0.096788
     3  H    0.073206
     4  H    0.020661
     5  H   -0.065253
     6  H    0.137203
     7  H    0.073206
     8  H    0.020661
     9  H    0.137203
    10  H   -0.065253
    11  H    0.096788
    12  H   -0.262606
 Sum of Mulliken charges =  -0.00000

 Dipole moment (field-independent basis, Debye):
    X=             -0.0000    Y=             -0.0000    Z=             -0.0000  Tot=              0.0000
 Quadrupole moment (field-independent basis, Debye-Ang):
   XX=            -17.6927   YY=            -28.3248   ZZ=            -15.1610
   XY=             -4.7761   XZ=             -0.0000   YZ=             -0.0000

 Normal termination of Gaussian 09 at Fri Feb 17 15:03:02 2017.
