 Gaussian 09, Revision E.01,
 Gaussian 09:  ES64L-G09RevE.01 30-Nov-2015

 ----------------------------------------------------------------------
 #rhf/gen scf(symm,tight,novaracc,noincfock,fulldiag) stable(crhf) gues
 s=read geom=nocrowd test
 ----------------------------------------------------------------------

 hf stability analysis of h12 triangular lattice, y= 0.2710133450063199
 1
 ----------------------------------------------------------------------
 Symbolic Z-matrix:
 Charge =  0 Multiplicity = 1

                         Standard orientation:
 ---------------------------------------------------------------------
 Center     Atomic      Atomic             Coordinates (Angstroms)
 Number     Number       Type             X           Y           Z
 ---------------------------------------------------------------------
      1          1           0        0.537693    1.142157    0.000000
      2          1           0        0.000000    3.221262    0.000000
      3          1           0        0.537693   -1.005351    0.000000
      4          1           0        0.000000    1.073754    0.000000
      5          1           0       -0.537693    5.300368    0.000000
      6          1           0       -0.537693    3.152859    0.000000
      7          1           0       -0.537693    1.005351    0.000000
      8          1           0       -0.000000   -1.073754   -0.000000
      9          1           0        0.537693   -3.152859   -0.000000
     10          1           0        0.537693   -5.300368   -0.000000
     11          1           0       -0.000000   -3.221262   -0.000000
     12          1           0       -0.537693   -1.142157   -0.000000
 ---------------------------------------------------------------------

 SCF Done:  E(RHF) =  -5.01755566426     A.U. after   11 cycles
 E2 =    -0.8626268414D+00 EUMP2 =    -0.58801825056265D+01

 The electronic state is 1-AG.
 Alpha  occ. eigenvalues --   -0.92319  -0.88625  -0.70429  -0.70287  -0.25531
 Alpha  occ. eigenvalues --   -0.19924
 Alpha virt. eigenvalues --   -0.14789   0.04221   0.57150   0.57618   1.21473
 Alpha virt. eigenvalues --    1.35973

 Mulliken charges:
               1
     1  H    0.259397
     2  H   -0.004336
     3  H    0.253507
     4  H   -0.482891
     5  H   -0.024235
     6  H   -0.001443
     7  H    0.253507
     8  H   -0.482891
     9  H   -0.001443
    10  H   -0.024235
    11  H   -0.004336
    12  H    0.259397
 Sum of Mulliken charges =   0.00000

 Dipole moment (field-independent basis, Debye):
    X=             -0.0000    Y=              0.0000    Z=              0.0000  Tot=              0.0000
 Quadrupole moment (field-independent basis, Debye-Ang):
   XX=            -16.4370   YY=            -24.1145   ZZ=            -15.5255
   XY=              1.1328   XZ=              0.0000   YZ=             -0.0000

 Normal termination of Gaussian 09 at Fri Feb 17 14:53:41 2017.
