 Gaussian 09, Revision E.01,
 Gaussian 09:  ES64L-G09RevE.01 30-Nov-2015

 ----------------------------------------------------------------------
 #rhf/gen scf(symm,tight,novaracc,noincfock,fulldiag) stable(crhf) gues
 s=read geom=nocrowd test
 ----------------------------------------------------------------------

 hf stability analysis of h12 triangular lattice, y= 0.5394520384962004
 9
 ----------------------------------------------------------------------
 Symbolic Z-matrix:
 Charge =  0 Multiplicity = 1

                         Standard orientation:
 ---------------------------------------------------------------------
 Center     Atomic      Atomic             Coordinates (Angstroms)
 Number     Number       Type             X           Y           Z
 ---------------------------------------------------------------------
      1          1           0        0.963439    1.084873   -0.000000
      2          1           0       -0.000000    1.797780    0.000000
      3          1           0        0.963439   -0.113647   -0.000000
      4          1           0       -0.000000    0.599260    0.000000
      5          1           0       -0.963439    2.510687    0.000000
      6          1           0       -0.963439    1.312167    0.000000
      7          1           0       -0.963439    0.113647   -0.000000
      8          1           0       -0.000000   -0.599260   -0.000000
      9          1           0        0.963439   -1.312167    0.000000
     10          1           0        0.963439   -2.510687   -0.000000
     11          1           0       -0.000000   -1.797780   -0.000000
     12          1           0       -0.963439   -1.084873   -0.000000
 ---------------------------------------------------------------------

 SCF Done:  E(RHF) =  -5.96006750818     A.U. after   13 cycles
 E2 =    -0.1115203996D+00 EUMP2 =    -0.60715879077713D+01

 The electronic state is 1-AG.
 Alpha  occ. eigenvalues --   -0.94697  -0.78600  -0.58594  -0.57336  -0.35668
 Alpha  occ. eigenvalues --   -0.34003
 Alpha virt. eigenvalues --    0.15260   0.19236   0.23162   0.38288   0.47444
 Alpha virt. eigenvalues --    0.55704

 Mulliken charges:
               1
     1  H   -0.070561
     2  H    0.077996
     3  H    0.011123
     4  H   -0.017170
     5  H   -0.070805
     6  H    0.069416
     7  H    0.011123
     8  H   -0.017170
     9  H    0.069416
    10  H   -0.070805
    11  H    0.077996
    12  H   -0.070561
 Sum of Mulliken charges =  -0.00000

 Dipole moment (field-independent basis, Debye):
    X=             -0.0000    Y=              0.0000    Z=              0.0000  Tot=              0.0000
 Quadrupole moment (field-independent basis, Debye-Ang):
   XX=            -17.8938   YY=            -21.5164   ZZ=            -15.3929
   XY=              0.2662   XZ=              0.0000   YZ=             -0.0000

 Normal termination of Gaussian 09 at Fri Feb 17 14:57:44 2017.
