 Gaussian 09, Revision E.01,
 Gaussian 09:  ES64L-G09RevE.01 30-Nov-2015

 ----------------------------------------------------------------------
 #rhf/gen scf(symm,tight,novaracc,noincfock,fulldiag) stable(crhf) gues
 s=read geom=nocrowd test
 ----------------------------------------------------------------------

 hf stability analysis of h12 triangular lattice, y= 0.5040240137193442
 4
 ----------------------------------------------------------------------
 Symbolic Z-matrix:
 Charge =  0 Multiplicity = 1

                         Standard orientation:
 ---------------------------------------------------------------------
 Center     Atomic      Atomic             Coordinates (Angstroms)
 Number     Number       Type             X           Y           Z
 ---------------------------------------------------------------------
      1          1           0        0.922678    1.031721   -0.000000
      2          1           0        0.000000    1.877200    0.000000
      3          1           0        0.922678   -0.219745   -0.000000
      4          1           0        0.000000    0.625733    0.000000
      5          1           0       -0.922678    2.722678    0.000000
      6          1           0       -0.922678    1.471212    0.000000
      7          1           0       -0.922678    0.219745   -0.000000
      8          1           0       -0.000000   -0.625733    0.000000
      9          1           0        0.922678   -1.471212    0.000000
     10          1           0        0.922678   -2.722678    0.000000
     11          1           0       -0.000000   -1.877200    0.000000
     12          1           0       -0.922678   -1.031721   -0.000000
 ---------------------------------------------------------------------

 SCF Done:  E(RHF) =  -5.96115311424     A.U. after   14 cycles
 E2 =    -0.1105916160D+00 EUMP2 =    -0.60717447301936D+01

 The electronic state is 1-AG.
 Alpha  occ. eigenvalues --   -0.91627  -0.77710  -0.58372  -0.53945  -0.36808
 Alpha  occ. eigenvalues --   -0.31955
 Alpha virt. eigenvalues --    0.10684   0.24060   0.26751   0.29954   0.54430
 Alpha virt. eigenvalues --    0.56010

 Mulliken charges:
               1
     1  H   -0.089853
     2  H    0.069140
     3  H   -0.035839
     4  H   -0.024432
     5  H    0.008154
     6  H    0.072830
     7  H   -0.035839
     8  H   -0.024432
     9  H    0.072830
    10  H    0.008154
    11  H    0.069140
    12  H   -0.089853
 Sum of Mulliken charges =  -0.00000

 Dipole moment (field-independent basis, Debye):
    X=              0.0000    Y=              0.0000    Z=              0.0000  Tot=              0.0000
 Quadrupole moment (field-independent basis, Debye-Ang):
   XX=            -18.0622   YY=            -15.9863   ZZ=            -15.4514
   XY=             -1.9915   XZ=              0.0000   YZ=              0.0000

 Normal termination of Gaussian 09 at Fri Feb 17 14:57:07 2017.
