 Gaussian 09, Revision E.01,
 Gaussian 09:  ES64L-G09RevE.01 30-Nov-2015

 ----------------------------------------------------------------------
 #rhf/gen scf(symm,tight,novaracc,noincfock,fulldiag) stable(crhf) gues
 s=read geom=nocrowd test
 ----------------------------------------------------------------------

 hf stability analysis of h12 triangular lattice, y= 0.7937677784109760
 1
 ----------------------------------------------------------------------
 Symbolic Z-matrix:
 Charge =  0 Multiplicity = 1

                         Standard orientation:
 ---------------------------------------------------------------------
 Center     Atomic      Atomic             Coordinates (Angstroms)
 Number     Number       Type             X           Y           Z
 ---------------------------------------------------------------------
      1          1           0        1.072523    1.708764   -0.000000
      2          1           0        0.000000    1.614930    0.000000
      3          1           0        1.072523    0.632144   -0.000000
      4          1           0        0.000000    0.538310    0.000000
      5          1           0       -1.072523    1.521097    0.000000
      6          1           0       -1.072523    0.444477    0.000000
      7          1           0       -1.072523   -0.632144    0.000000
      8          1           0       -0.000000   -0.538310    0.000000
      9          1           0        1.072523   -0.444477    0.000000
     10          1           0        1.072523   -1.521097    0.000000
     11          1           0       -0.000000   -1.614930    0.000000
     12          1           0       -1.072523   -1.708764    0.000000
 ---------------------------------------------------------------------

 SCF Done:  E(RHF) =  -5.68719265271     A.U. after   19 cycles
 E2 =    -0.1248664274D+00 EUMP2 =    -0.58120590800879D+01

 The electronic state is 1-AG.
 Alpha  occ. eigenvalues --   -1.01045  -0.78955  -0.68919  -0.50727  -0.47075
 Alpha  occ. eigenvalues --   -0.19171
 Alpha virt. eigenvalues --   -0.02936   0.09513   0.21745   0.43930   0.54731
 Alpha virt. eigenvalues --    0.92294

 Mulliken charges:
               1
     1  H   -0.250400
     2  H    0.073306
     3  H    0.062509
     4  H    0.066096
     5  H   -0.073321
     6  H    0.121810
     7  H    0.062509
     8  H    0.066096
     9  H    0.121810
    10  H   -0.073321
    11  H    0.073306
    12  H   -0.250400
 Sum of Mulliken charges =  -0.00000

 Dipole moment (field-independent basis, Debye):
    X=             -0.0000    Y=             -0.0000    Z=             -0.0000  Tot=              0.0000
 Quadrupole moment (field-independent basis, Debye-Ang):
   XX=            -18.0504   YY=            -27.4168   ZZ=            -15.0820
   XY=             -4.1858   XZ=              0.0000   YZ=              0.0000

 Normal termination of Gaussian 09 at Fri Feb 17 15:02:09 2017.
