 Gaussian 09, Revision E.01,
 Gaussian 09:  ES64L-G09RevE.01 30-Nov-2015

 ----------------------------------------------------------------------
 #rhf/gen scf(symm,tight,novaracc,noincfock,fulldiag) stable(crhf) gues
 s=read geom=nocrowd test
 ----------------------------------------------------------------------

 hf stability analysis of h12 triangular lattice, y= 0.2303281107335596
 6
 ----------------------------------------------------------------------
 Symbolic Z-matrix:
 Charge =  0 Multiplicity = 1

                         Standard orientation:
 ---------------------------------------------------------------------
 Center     Atomic      Atomic             Coordinates (Angstroms)
 Number     Number       Type             X           Y           Z
 ---------------------------------------------------------------------
      1          1           0        0.458724    1.300752   -0.000000
      2          1           0        0.000000    3.775804   -0.000000
      3          1           0        0.458724   -1.216450    0.000000
      4          1           0        0.000000    1.258601   -0.000000
      5          1           0       -0.458724    6.250855   -0.000000
      6          1           0       -0.458724    3.733653   -0.000000
      7          1           0       -0.458724    1.216450    0.000000
      8          1           0       -0.000000   -1.258601   -0.000000
      9          1           0        0.458724   -3.733653   -0.000000
     10          1           0        0.458724   -6.250855   -0.000000
     11          1           0       -0.000000   -3.775804   -0.000000
     12          1           0       -0.458724   -1.300752   -0.000000
 ---------------------------------------------------------------------

 SCF Done:  E(RHF) =  -4.24446589662     A.U. after   11 cycles
 E2 =    -0.7272150735D+00 EUMP2 =    -0.49716809701334D+01

 The electronic state is 1-AG.
 Alpha  occ. eigenvalues --   -1.02373  -1.02146  -0.73756  -0.73756  -0.21744
 Alpha  occ. eigenvalues --   -0.17710
 Alpha virt. eigenvalues --   -0.12712   0.01031   0.64678   0.64771   1.48572
 Alpha virt. eigenvalues --    1.58217

 Mulliken charges:
               1
     1  H    0.458737
     2  H   -0.002000
     3  H    0.457052
     4  H   -0.768083
     5  H   -0.144613
     6  H   -0.001092
     7  H    0.457052
     8  H   -0.768083
     9  H   -0.001092
    10  H   -0.144613
    11  H   -0.002000
    12  H    0.458737
 Sum of Mulliken charges =  -0.00000

 Dipole moment (field-independent basis, Debye):
    X=              0.0000    Y=             -0.0000    Z=              0.0000  Tot=              0.0000
 Quadrupole moment (field-independent basis, Debye-Ang):
   XX=            -16.3441   YY=            -68.9067   ZZ=            -15.5843
   XY=              4.2131   XZ=              0.0000   YZ=             -0.0000

 Normal termination of Gaussian 09 at Fri Feb 17 14:53:20 2017.
