 Gaussian 09, Revision E.01,
 Gaussian 09:  ES64L-G09RevE.01 30-Nov-2015

 ----------------------------------------------------------------------
 #rhf/gen scf(symm,tight,novaracc,noincfock,fulldiag) stable(crhf) gues
 s=read geom=nocrowd test
 ----------------------------------------------------------------------

 hf stability analysis of h12 triangular lattice, y= 0.6807147699477958
 9
 ----------------------------------------------------------------------
 Symbolic Z-matrix:
 Charge =  0 Multiplicity = 1

                         Standard orientation:
 ---------------------------------------------------------------------
 Center     Atomic      Atomic             Coordinates (Angstroms)
 Number     Number       Type             X           Y           Z
 ---------------------------------------------------------------------
      1          1           0        1.061758    1.395919    0.000000
      2          1           0        0.000000    1.631305    0.000000
      3          1           0        1.061758    0.308382    0.000000
      4          1           0        0.000000    0.543768    0.000000
      5          1           0       -1.061758    1.866691    0.000000
      6          1           0       -1.061758    0.779154    0.000000
      7          1           0       -1.061758   -0.308382    0.000000
      8          1           0       -0.000000   -0.543768    0.000000
      9          1           0        1.061758   -0.779154    0.000000
     10          1           0        1.061758   -1.866691    0.000000
     11          1           0       -0.000000   -1.631305    0.000000
     12          1           0       -1.061758   -1.395919    0.000000
 ---------------------------------------------------------------------

 SCF Done:  E(RHF) =  -5.75806356908     A.U. after   14 cycles
 E2 =    -0.1194803852D+00 EUMP2 =    -0.58775439542841D+01

 The electronic state is 1-AG.
 Alpha  occ. eigenvalues --   -1.00520  -0.79044  -0.68629  -0.52024  -0.45244
 Alpha  occ. eigenvalues --   -0.22186
 Alpha virt. eigenvalues --   -0.01506   0.12949   0.23193   0.39111   0.56828
 Alpha virt. eigenvalues --    0.84655

 Mulliken charges:
               1
     1  H   -0.064971
     2  H    0.095061
     3  H    0.137560
     4  H    0.023700
     5  H   -0.264379
     6  H    0.073028
     7  H    0.137560
     8  H    0.023700
     9  H    0.073028
    10  H   -0.264379
    11  H    0.095061
    12  H   -0.064971
 Sum of Mulliken charges =   0.00000

 Dipole moment (field-independent basis, Debye):
    X=             -0.0000    Y=             -0.0000    Z=             -0.0000  Tot=              0.0000
 Quadrupole moment (field-independent basis, Debye-Ang):
   XX=            -17.6935   YY=            -28.2762   ZZ=            -15.1509
   XY=              4.7993   XZ=              0.0000   YZ=             -0.0000

 Normal termination of Gaussian 09 at Fri Feb 17 15:00:19 2017.
