 Gaussian 09, Revision E.01,
 Gaussian 09:  ES64L-G09RevE.01 30-Nov-2015

 ----------------------------------------------------------------------
 #rhf/gen scf(symm,tight,novaracc,noincfock,fulldiag) stable(crhf) gues
 s=read geom=nocrowd test
 ----------------------------------------------------------------------

 ----------------------------------------------------------------------
 hf stability analysis of h12 triangular lattice, y= 1.7438440595774944
 ----------------------------------------------------------------------
 Symbolic Z-matrix:
 Charge =  0 Multiplicity = 1

                         Standard orientation:
 ---------------------------------------------------------------------
 Center     Atomic      Atomic             Coordinates (Angstroms)
 Number     Number       Type             X           Y           Z
 ---------------------------------------------------------------------
      1          1           0        0.650538    4.313978    0.000000
      2          1           0        0.000000    2.662492    0.000000
      3          1           0        0.650538    2.538983    0.000000
      4          1           0        0.000000    0.887497    0.000000
      5          1           0       -0.650538    1.011006    0.000000
      6          1           0       -0.650538   -0.763989   -0.000000
      7          1           0       -0.650538   -2.538983    0.000000
      8          1           0       -0.000000   -0.887497    0.000000
      9          1           0        0.650538    0.763989    0.000000
     10          1           0        0.650538   -1.011006    0.000000
     11          1           0       -0.000000   -2.662492    0.000000
     12          1           0       -0.650538   -4.313978    0.000000
 ---------------------------------------------------------------------

 SCF Done:  E(RHF) =  -5.60210311153     A.U. after   12 cycles
 E2 =    -0.7026171606D+00 EUMP2 =    -0.63047202721758D+01

 The electronic state is 1-AG.
 Alpha  occ. eigenvalues --   -0.88926  -0.79482  -0.66450  -0.63939  -0.33981
 Alpha  occ. eigenvalues --   -0.18575
 Alpha virt. eigenvalues --   -0.12251   0.03299   0.47690   0.49844   0.86734
 Alpha virt. eigenvalues --    1.07506

 Mulliken charges:
               1
     1  H   -0.021972
     2  H   -0.005195
     3  H    0.010067
     4  H   -0.279947
     5  H    0.166707
     6  H    0.130341
     7  H    0.010067
     8  H   -0.279947
     9  H    0.130341
    10  H    0.166707
    11  H   -0.005195
    12  H   -0.021972
 Sum of Mulliken charges =  -0.00000

 Dipole moment (field-independent basis, Debye):
    X=              0.0000    Y=              0.0000    Z=              0.0000  Tot=              0.0000
 Quadrupole moment (field-independent basis, Debye-Ang):
   XX=            -15.9227   YY=            -22.3693   ZZ=            -15.4126
   XY=             -1.6227   XZ=             -0.0000   YZ=             -0.0000

 Normal termination of Gaussian 09 at Fri Feb 17 15:08:47 2017.
