 Gaussian 09, Revision E.01,
 Gaussian 09:  ES64L-G09RevE.01 30-Nov-2015

 ----------------------------------------------------------------------
 #rhf/gen scf(symm,tight,novaracc,noincfock,fulldiag) stable(crhf) gues
 s=read geom=nocrowd test
 ----------------------------------------------------------------------

 hf stability analysis of h12 triangular lattice, y= 0.3794068973118231
 4
 ----------------------------------------------------------------------
 Symbolic Z-matrix:
 Charge =  0 Multiplicity = 1

                         Standard orientation:
 ---------------------------------------------------------------------
 Center     Atomic      Atomic             Coordinates (Angstroms)
 Number     Number       Type             X           Y           Z
 ---------------------------------------------------------------------
      1          1           0        0.736274    0.967725    0.000000
      2          1           0        0.000000    2.352455   -0.000000
      3          1           0        0.736274   -0.600578    0.000000
      4          1           0        0.000000    0.784152   -0.000000
      5          1           0       -0.736274    3.737184   -0.000000
      6          1           0       -0.736274    2.168881   -0.000000
      7          1           0       -0.736274    0.600578    0.000000
      8          1           0       -0.000000   -0.784152    0.000000
      9          1           0        0.736274   -2.168881   -0.000000
     10          1           0        0.736274   -3.737184    0.000000
     11          1           0       -0.000000   -2.352455    0.000000
     12          1           0       -0.736274   -0.967725    0.000000
 ---------------------------------------------------------------------

 SCF Done:  E(RHF) =  -5.75048908992     A.U. after   50 cycles
 E2 =    -0.4339555208D+00 EUMP2 =    -0.61844446106874D+01

 The electronic state is 1-AG.
 Alpha  occ. eigenvalues --   -0.88411  -0.76586  -0.63673  -0.55693  -0.39621
 Alpha  occ. eigenvalues --   -0.16408
 Alpha virt. eigenvalues --   -0.07571   0.01076   0.41095   0.45823   0.66839
 Alpha virt. eigenvalues --    0.90247

 Mulliken charges:
               1
     1  H    0.143832
     2  H   -0.008732
     3  H    0.043946
     4  H   -0.189942
     5  H   -0.044949
     6  H    0.055845
     7  H    0.043946
     8  H   -0.189942
     9  H    0.055845
    10  H   -0.044949
    11  H   -0.008732
    12  H    0.143832
 Sum of Mulliken charges =  -0.00000

 Dipole moment (field-independent basis, Debye):
    X=              0.0000    Y=             -0.0000    Z=              0.0000  Tot=              0.0000
 Quadrupole moment (field-independent basis, Debye-Ang):
   XX=            -15.6128   YY=            -23.5042   ZZ=            -15.3103
   XY=              2.3260   XZ=             -0.0000   YZ=              0.0000

 Normal termination of Gaussian 09 at Fri Feb 17 14:55:01 2017.
