 Gaussian 09, Revision E.01,
 Gaussian 09:  ES64L-G09RevE.01 30-Nov-2015

 ----------------------------------------------------------------------
 #rhf/gen scf(symm,tight,novaracc,noincfock,fulldiag) stable(crhf) gues
 s=read geom=nocrowd test
 ----------------------------------------------------------------------

 hf stability analysis of h12 triangular lattice, y= 0.4552910430659851
 7
 ----------------------------------------------------------------------
 Symbolic Z-matrix:
 Charge =  0 Multiplicity = 1

                         Standard orientation:
 ---------------------------------------------------------------------
 Center     Atomic      Atomic             Coordinates (Angstroms)
 Number     Number       Type             X           Y           Z
 ---------------------------------------------------------------------
      1          1           0        0.857018    0.981374    0.000000
      2          1           0        0.000000    2.021020    0.000000
      3          1           0        0.857018   -0.365973    0.000000
      4          1           0        0.000000    0.673673    0.000000
      5          1           0       -0.857018    3.060666   -0.000000
      6          1           0       -0.857018    1.713319   -0.000000
      7          1           0       -0.857018    0.365973    0.000000
      8          1           0       -0.000000   -0.673673   -0.000000
      9          1           0        0.857018   -1.713319   -0.000000
     10          1           0        0.857018   -3.060666   -0.000000
     11          1           0       -0.000000   -2.021020   -0.000000
     12          1           0       -0.857018   -0.981374   -0.000000
 ---------------------------------------------------------------------

 SCF Done:  E(RHF) =  -5.89459773971     A.U. after   15 cycles
 E2 =    -0.1101708876D+00 EUMP2 =    -0.60047686272712D+01

 The electronic state is 1-AG.
 Alpha  occ. eigenvalues --   -0.86274  -0.75784  -0.59423  -0.46797  -0.39522
 Alpha  occ. eigenvalues --   -0.25605
 Alpha virt. eigenvalues --    0.02830   0.12670   0.31080   0.39717   0.55739
 Alpha virt. eigenvalues --    0.72440

 Mulliken charges:
               1
     1  H   -0.122495
     2  H    0.046805
     3  H   -0.106732
     4  H   -0.034061
     5  H    0.130404
     6  H    0.086079
     7  H   -0.106732
     8  H   -0.034061
     9  H    0.086079
    10  H    0.130404
    11  H    0.046805
    12  H   -0.122495
 Sum of Mulliken charges =  -0.00000

 Dipole moment (field-independent basis, Debye):
    X=             -0.0000    Y=             -0.0000    Z=             -0.0000  Tot=              0.0000
 Quadrupole moment (field-independent basis, Debye-Ang):
   XX=            -18.2966   YY=             -3.9420   ZZ=            -15.5121
   XY=             -5.5949   XZ=             -0.0000   YZ=              0.0000

 Normal termination of Gaussian 09 at Fri Feb 17 14:56:16 2017.
