 Gaussian 09, Revision E.01,
 Gaussian 09:  ES64L-G09RevE.01 30-Nov-2015

 ----------------------------------------------------------------------
 #rhf/gen scf(symm,tight,novaracc,noincfock,fulldiag) stable(crhf) gues
 s=read geom=nocrowd test
 ----------------------------------------------------------------------

 ----------------------------------------------------------------------
 hf stability analysis of h12 triangular lattice, y= 1.2029713290986654
 ----------------------------------------------------------------------
 Symbolic Z-matrix:
 Charge =  0 Multiplicity = 1

                         Standard orientation:
 ---------------------------------------------------------------------
 Center     Atomic      Atomic             Coordinates (Angstroms)
 Number     Number       Type             X           Y           Z
 ---------------------------------------------------------------------
      1          1           0        0.891540    2.882250   -0.000000
      2          1           0        0.000000    1.942763   -0.000000
      3          1           0        0.891540    1.587075   -0.000000
      4          1           0        0.000000    0.647588   -0.000000
      5          1           0       -0.891540    1.003276   -0.000000
      6          1           0       -0.891540   -0.291899    0.000000
      7          1           0       -0.891540   -1.587075   -0.000000
      8          1           0       -0.000000   -0.647588   -0.000000
      9          1           0        0.891540    0.291899    0.000000
     10          1           0        0.891540   -1.003276   -0.000000
     11          1           0       -0.000000   -1.942763   -0.000000
     12          1           0       -0.891540   -2.882250   -0.000000
 ---------------------------------------------------------------------

 SCF Done:  E(RHF) =  -5.93949116056     A.U. after   13 cycles
 E2 =    -0.1101607664D+00 EUMP2 =    -0.60496519269394D+01

 The electronic state is 1-AG.
 Alpha  occ. eigenvalues --   -0.89135  -0.76857  -0.58948  -0.50381  -0.38469
 Alpha  occ. eigenvalues --   -0.29004
 Alpha virt. eigenvalues --    0.06790   0.19440   0.29282   0.33322   0.54228
 Alpha virt. eigenvalues --    0.63654

 Mulliken charges:
               1
     1  H    0.067296
     2  H    0.061298
     3  H    0.076483
     4  H   -0.029122
     5  H   -0.106989
     6  H   -0.068965
     7  H    0.076483
     8  H   -0.029122
     9  H   -0.068965
    10  H   -0.106989
    11  H    0.061298
    12  H    0.067296
 Sum of Mulliken charges =   0.00000

 Dipole moment (field-independent basis, Debye):
    X=              0.0000    Y=             -0.0000    Z=             -0.0000  Tot=              0.0000
 Quadrupole moment (field-independent basis, Debye-Ang):
   XX=            -18.1951   YY=            -10.7379   ZZ=            -15.4857
   XY=              3.7214   XZ=             -0.0000   YZ=             -0.0000

 Normal termination of Gaussian 09 at Fri Feb 17 15:06:29 2017.
