 Gaussian 09, Revision E.01,
 Gaussian 09:  ES64L-G09RevE.01 30-Nov-2015

 ----------------------------------------------------------------------
 #rhf/gen scf(symm,tight,novaracc,noincfock,fulldiag) stable(crhf) gues
 s=read geom=nocrowd test
 ----------------------------------------------------------------------

 hf stability analysis of h12 triangular lattice, y= 0.9659128830031019
 6
 ----------------------------------------------------------------------
 Symbolic Z-matrix:
 Charge =  0 Multiplicity = 1

                         Standard orientation:
 ---------------------------------------------------------------------
 Center     Atomic      Atomic             Coordinates (Angstroms)
 Number     Number       Type             X           Y           Z
 ---------------------------------------------------------------------
      1          1           0        1.016554    2.210681    0.000000
      2          1           0        0.000000    1.703846    0.000000
      3          1           0        1.016554    1.074784    0.000000
      4          1           0        0.000000    0.567949    0.000000
      5          1           0       -1.016554    1.197011    0.000000
      6          1           0       -1.016554    0.061114    0.000000
      7          1           0       -1.016554   -1.074784    0.000000
      8          1           0       -0.000000   -0.567949    0.000000
      9          1           0        1.016554   -0.061114    0.000000
     10          1           0        1.016554   -1.197011    0.000000
     11          1           0       -0.000000   -1.703846    0.000000
     12          1           0       -1.016554   -2.210681    0.000000
 ---------------------------------------------------------------------

 SCF Done:  E(RHF) =  -5.89840254598     A.U. after   14 cycles
 E2 =    -0.1138595230D+00 EUMP2 =    -0.60122620689787D+01

 The electronic state is 1-AG.
 Alpha  occ. eigenvalues --   -0.98301  -0.79254  -0.64447  -0.55275  -0.40434
 Alpha  occ. eigenvalues --   -0.29032
 Alpha virt. eigenvalues --    0.06419   0.19351   0.26686   0.32234   0.57643
 Alpha virt. eigenvalues --    0.60228

 Mulliken charges:
               1
     1  H   -0.179038
     2  H    0.091705
     3  H    0.067340
     4  H   -0.003487
     5  H   -0.060150
     6  H    0.083630
     7  H    0.067340
     8  H   -0.003487
     9  H    0.083630
    10  H   -0.060150
    11  H    0.091705
    12  H   -0.179038
 Sum of Mulliken charges =  -0.00000

 Dipole moment (field-independent basis, Debye):
    X=             -0.0000    Y=              0.0000    Z=             -0.0000  Tot=              0.0000
 Quadrupole moment (field-independent basis, Debye-Ang):
   XX=            -17.7446   YY=            -26.5863   ZZ=            -15.2908
   XY=             -3.0884   XZ=              0.0000   YZ=              0.0000

 Normal termination of Gaussian 09 at Fri Feb 17 15:04:23 2017.
