 Gaussian 09, Revision E.01,
 Gaussian 09:  ES64L-G09RevE.01 30-Nov-2015

 ----------------------------------------------------------------------
 #rhf/gen scf(symm,tight,novaracc,noincfock,fulldiag) stable(crhf) gues
 s=read geom=nocrowd test
 ----------------------------------------------------------------------

 hf stability analysis of h12 triangular lattice, y= 0.9384058608233425
 4
 ----------------------------------------------------------------------
 Symbolic Z-matrix:
 Charge =  0 Multiplicity = 1

                         Standard orientation:
 ---------------------------------------------------------------------
 Center     Atomic      Atomic             Coordinates (Angstroms)
 Number     Number       Type             X           Y           Z
 ---------------------------------------------------------------------
      1          1           0        1.029043    2.130607   -0.000000
      2          1           0        0.000000    1.683166   -0.000000
      3          1           0        1.029043    1.008496   -0.000000
      4          1           0        0.000000    0.561055   -0.000000
      5          1           0       -1.029043    1.235726   -0.000000
      6          1           0       -1.029043    0.113615   -0.000000
      7          1           0       -1.029043   -1.008496   -0.000000
      8          1           0       -0.000000   -0.561055   -0.000000
      9          1           0        1.029043   -0.113615   -0.000000
     10          1           0        1.029043   -1.235726   -0.000000
     11          1           0       -0.000000   -1.683166   -0.000000
     12          1           0       -1.029043   -2.130607   -0.000000
 ---------------------------------------------------------------------

 SCF Done:  E(RHF) =  -5.87091587460     A.U. after   14 cycles
 E2 =    -0.1147675433D+00 EUMP2 =    -0.59856834179283D+01

 The electronic state is 1-AG.
 Alpha  occ. eigenvalues --   -0.99054  -0.79295  -0.65761  -0.54598  -0.41612
 Alpha  occ. eigenvalues --   -0.27520
 Alpha virt. eigenvalues --    0.04012   0.18088   0.29470   0.29502   0.57873
 Alpha virt. eigenvalues --    0.65907

 Mulliken charges:
               1
     1  H   -0.205640
     2  H    0.095467
     3  H    0.068219
     4  H    0.001022
     5  H   -0.061301
     6  H    0.102233
     7  H    0.068219
     8  H    0.001022
     9  H    0.102233
    10  H   -0.061301
    11  H    0.095467
    12  H   -0.205640
 Sum of Mulliken charges =   0.00000

 Dipole moment (field-independent basis, Debye):
    X=              0.0000    Y=             -0.0000    Z=              0.0000  Tot=              0.0000
 Quadrupole moment (field-independent basis, Debye-Ang):
   XX=            -17.7268   YY=            -27.4037   ZZ=            -15.2608
   XY=             -3.6893   XZ=              0.0000   YZ=              0.0000

 Normal termination of Gaussian 09 at Fri Feb 17 15:04:05 2017.
