 Gaussian 09, Revision E.01,
 Gaussian 09:  ES64L-G09RevE.01 30-Nov-2015

 ----------------------------------------------------------------------
 #rhf/gen scf(symm,tight,novaracc,noincfock,fulldiag) stable(crhf) gues
 s=read geom=nocrowd test
 ----------------------------------------------------------------------

 hf stability analysis of h12 triangular lattice, y= 0.9339599336918161
 8
 ----------------------------------------------------------------------
 Symbolic Z-matrix:
 Charge =  0 Multiplicity = 1

                         Standard orientation:
 ---------------------------------------------------------------------
 Center     Atomic      Atomic             Coordinates (Angstroms)
 Number     Number       Type             X           Y           Z
 ---------------------------------------------------------------------
      1          1           0        1.030974    2.117637    0.000000
      2          1           0       -0.000000    1.680014   -0.000000
      3          1           0        1.030974    0.997627    0.000000
      4          1           0       -0.000000    0.560005   -0.000000
      5          1           0       -1.030974    1.242392   -0.000000
      6          1           0       -1.030974    0.122382   -0.000000
      7          1           0       -1.030974   -0.997627    0.000000
      8          1           0       -0.000000   -0.560005    0.000000
      9          1           0        1.030974   -0.122382   -0.000000
     10          1           0        1.030974   -1.242392   -0.000000
     11          1           0       -0.000000   -1.680014    0.000000
     12          1           0       -1.030974   -2.117637    0.000000
 ---------------------------------------------------------------------

 SCF Done:  E(RHF) =  -5.86608862478     A.U. after   14 cycles
 E2 =    -0.1149294097D+00 EUMP2 =    -0.59810180344576D+01

 The electronic state is 1-AG.
 Alpha  occ. eigenvalues --   -0.99165  -0.79296  -0.65959  -0.54484  -0.41800
 Alpha  occ. eigenvalues --   -0.27268
 Alpha virt. eigenvalues --    0.03648   0.17871   0.29086   0.29931   0.57890
 Alpha virt. eigenvalues --    0.66846

 Mulliken charges:
               1
     1  H   -0.209755
     2  H    0.096030
     3  H    0.068444
     4  H    0.001797
     5  H   -0.061593
     6  H    0.105078
     7  H    0.068444
     8  H    0.001797
     9  H    0.105078
    10  H   -0.061593
    11  H    0.096030
    12  H   -0.209755
 Sum of Mulliken charges =  -0.00000

 Dipole moment (field-independent basis, Debye):
    X=             -0.0000    Y=              0.0000    Z=             -0.0000  Tot=              0.0000
 Quadrupole moment (field-independent basis, Debye-Ang):
   XX=            -17.7246   YY=            -27.5141   ZZ=            -15.2558
   XY=             -3.7777   XZ=              0.0000   YZ=              0.0000

 Normal termination of Gaussian 09 at Fri Feb 17 15:04:02 2017.
