 Gaussian 09, Revision E.01,
 Gaussian 09:  ES64L-G09RevE.01 30-Nov-2015

 ----------------------------------------------------------------------
 #rhf/gen scf(symm,tight,novaracc,noincfock,fulldiag) stable(crhf) gues
 s=read geom=nocrowd test
 ----------------------------------------------------------------------

 hf stability analysis of h12 triangular lattice, y= 0.8635150515934925
 1
 ----------------------------------------------------------------------
 Symbolic Z-matrix:
 Charge =  0 Multiplicity = 1

                         Standard orientation:
 ---------------------------------------------------------------------
 Center     Atomic      Atomic             Coordinates (Angstroms)
 Number     Number       Type             X           Y           Z
 ---------------------------------------------------------------------
      1          1           0        1.057318    1.911597   -0.000000
      2          1           0        0.000000    1.638156   -0.000000
      3          1           0        1.057318    0.819493    0.000000
      4          1           0        0.000000    0.546052   -0.000000
      5          1           0       -1.057318    1.364715   -0.000000
      6          1           0       -1.057318    0.272611   -0.000000
      7          1           0       -1.057318   -0.819493    0.000000
      8          1           0       -0.000000   -0.546052    0.000000
      9          1           0        1.057318   -0.272611   -0.000000
     10          1           0        1.057318   -1.364715    0.000000
     11          1           0       -0.000000   -1.638156    0.000000
     12          1           0       -1.057318   -1.911597    0.000000
 ---------------------------------------------------------------------

 SCF Done:  E(RHF) =  -5.77876031451     A.U. after   16 cycles
 E2 =    -0.1183766321D+00 EUMP2 =    -0.58971369466492D+01

 The electronic state is 1-AG.
 Alpha  occ. eigenvalues --   -1.00398  -0.79120  -0.68354  -0.52485  -0.44660
 Alpha  occ. eigenvalues --   -0.23107
 Alpha virt. eigenvalues --   -0.00887   0.13909   0.23902   0.37471   0.57228
 Alpha virt. eigenvalues --    0.81690

 Mulliken charges:
               1
     1  H   -0.259966
     2  H    0.098082
     3  H    0.073120
     4  H    0.017952
     5  H   -0.065403
     6  H    0.136215
     7  H    0.073120
     8  H    0.017952
     9  H    0.136215
    10  H   -0.065403
    11  H    0.098082
    12  H   -0.259966
 Sum of Mulliken charges =  -0.00000

 Dipole moment (field-independent basis, Debye):
    X=              0.0000    Y=              0.0000    Z=             -0.0000  Tot=              0.0000
 Quadrupole moment (field-independent basis, Debye-Ang):
   XX=            -17.6942   YY=            -28.3497   ZZ=            -15.1711
   XY=             -4.7359   XZ=              0.0000   YZ=              0.0000

 Normal termination of Gaussian 09 at Fri Feb 17 15:03:09 2017.
