 Gaussian 09, Revision E.01,
 Gaussian 09:  ES64L-G09RevE.01 30-Nov-2015

 ----------------------------------------------------------------------
 #rhf/gen scf(symm,tight,novaracc,noincfock,fulldiag) stable(crhf) gues
 s=read geom=nocrowd test
 ----------------------------------------------------------------------

 ----------------------------------------------------------------------
 hf stability analysis of h12 triangular lattice, y= 1.4074087190092159
 ----------------------------------------------------------------------
 Symbolic Z-matrix:
 Charge =  0 Multiplicity = 1

                         Standard orientation:
 ---------------------------------------------------------------------
 Center     Atomic      Atomic             Coordinates (Angstroms)
 Number     Number       Type             X           Y           Z
 ---------------------------------------------------------------------
      1          1           0        0.787668    3.435352   -0.000000
      2          1           0        0.000000    2.198962   -0.000000
      3          1           0        0.787668    1.969378   -0.000000
      4          1           0        0.000000    0.732987   -0.000000
      5          1           0       -0.787668    0.962571   -0.000000
      6          1           0       -0.787668   -0.503403    0.000000
      7          1           0       -0.787668   -1.969378   -0.000000
      8          1           0       -0.000000   -0.732987   -0.000000
      9          1           0        0.787668    0.503403    0.000000
     10          1           0        0.787668   -0.962571   -0.000000
     11          1           0       -0.000000   -2.198962   -0.000000
     12          1           0       -0.787668   -3.435352   -0.000000
 ---------------------------------------------------------------------

 SCF Done:  E(RHF) =  -5.76173865554     A.U. after   14 cycles
 E2 =    -0.1689773368D+00 EUMP2 =    -0.59307159922980D+01

 The electronic state is 1-AG.
 Alpha  occ. eigenvalues --   -0.85470  -0.74634  -0.61221  -0.49129  -0.39505
 Alpha  occ. eigenvalues --   -0.17781
 Alpha virt. eigenvalues --   -0.01302  -0.00689   0.37137   0.44539   0.61374
 Alpha virt. eigenvalues --    0.84418

 Mulliken charges:
               1
     1  H    0.067128
     2  H    0.114062
     3  H   -0.032908
     4  H   -0.126221
     5  H   -0.059915
     6  H    0.037854
     7  H   -0.032908
     8  H   -0.126221
     9  H    0.037854
    10  H   -0.059915
    11  H    0.114062
    12  H    0.067128
 Sum of Mulliken charges =  -0.00000

 Dipole moment (field-independent basis, Debye):
    X=              0.0000    Y=             -0.0000    Z=             -0.0000  Tot=              0.0000
 Quadrupole moment (field-independent basis, Debye-Ang):
   XX=            -17.0755   YY=             -8.9080   ZZ=            -15.3203
   XY=              1.1466   XZ=             -0.0000   YZ=              0.0000

 Normal termination of Gaussian 09 at Fri Feb 17 15:07:39 2017.
