 Gaussian 09, Revision E.01,
 Gaussian 09:  ES64L-G09RevE.01 30-Nov-2015

 ----------------------------------------------------------------------
 #rhf/gen scf(symm,tight,novaracc,noincfock,fulldiag) stable(crhf) gues
 s=read geom=nocrowd test
 ----------------------------------------------------------------------

 ----------------------------------------------------------------------
 hf stability analysis of h12 triangular lattice, y= 2.1303392641794385
 ----------------------------------------------------------------------
 Symbolic Z-matrix:
 Charge =  0 Multiplicity = 1

                         Standard orientation:
 ---------------------------------------------------------------------
 Center     Atomic      Atomic             Coordinates (Angstroms)
 Number     Number       Type             X           Y           Z
 ---------------------------------------------------------------------
      1          1           0        0.537693    5.300369   -0.000000
      2          1           0        0.000000    3.221263    0.000000
      3          1           0        0.537693    3.152860   -0.000000
      4          1           0        0.000000    1.073754    0.000000
      5          1           0       -0.537693    1.142158    0.000000
      6          1           0       -0.537693   -1.005351    0.000000
      7          1           0       -0.537693   -3.152860   -0.000000
      8          1           0       -0.000000   -1.073754   -0.000000
      9          1           0        0.537693    1.005351    0.000000
     10          1           0        0.537693   -1.142158    0.000000
     11          1           0       -0.000000   -3.221263   -0.000000
     12          1           0       -0.537693   -5.300369   -0.000000
 ---------------------------------------------------------------------

 SCF Done:  E(RHF) =  -5.01724737605     A.U. after   14 cycles
 E2 =    -0.8821512688D+00 EUMP2 =    -0.58993986448474D+01

 The electronic state is 1-AG.
 Alpha  occ. eigenvalues --   -0.91977  -0.88279  -0.70394  -0.70249  -0.25330
 Alpha  occ. eigenvalues --   -0.20056
 Alpha virt. eigenvalues --   -0.14970   0.04495   0.57186   0.57659   1.21837
 Alpha virt. eigenvalues --    1.36348

 Mulliken charges:
               1
     1  H   -0.017044
     2  H   -0.005062
     3  H   -0.000777
     4  H   -0.480909
     5  H    0.254215
     6  H    0.249578
     7  H   -0.000777
     8  H   -0.480909
     9  H    0.249578
    10  H    0.254215
    11  H   -0.005062
    12  H   -0.017044
 Sum of Mulliken charges =   0.00000

 Dipole moment (field-independent basis, Debye):
    X=              0.0000    Y=             -0.0000    Z=              0.0000  Tot=              0.0000
 Quadrupole moment (field-independent basis, Debye-Ang):
   XX=            -16.4521   YY=            -22.2587   ZZ=            -15.5217
   XY=             -0.8912   XZ=              0.0000   YZ=             -0.0000

 Normal termination of Gaussian 09 at Fri Feb 17 15:09:25 2017.
