 Gaussian 09, Revision E.01,
 Gaussian 09:  ES64L-G09RevE.01 30-Nov-2015

 ----------------------------------------------------------------------
 #rhf/gen scf(symm,tight,novaracc,noincfock,fulldiag) stable(crhf) gues
 s=read geom=nocrowd test
 ----------------------------------------------------------------------

 hf stability analysis of h12 triangular lattice, y= 0.4035215248364041
 9
 ----------------------------------------------------------------------
 Symbolic Z-matrix:
 Charge =  0 Multiplicity = 1

                         Standard orientation:
 ---------------------------------------------------------------------
 Center     Atomic      Atomic             Coordinates (Angstroms)
 Number     Number       Type             X           Y           Z
 ---------------------------------------------------------------------
      1          1           0        0.776743    0.962361   -0.000000
      2          1           0        0.000000    2.229890   -0.000000
      3          1           0        0.776743   -0.524232    0.000000
      4          1           0        0.000000    0.743297   -0.000000
      5          1           0       -0.776743    3.497419   -0.000000
      6          1           0       -0.776743    2.010826   -0.000000
      7          1           0       -0.776743    0.524232   -0.000000
      8          1           0       -0.000000   -0.743297   -0.000000
      9          1           0        0.776743   -2.010826    0.000000
     10          1           0        0.776743   -3.497419    0.000000
     11          1           0       -0.000000   -2.229890   -0.000000
     12          1           0       -0.776743   -0.962361   -0.000000
 ---------------------------------------------------------------------

 SCF Done:  E(RHF) =  -5.75662595640     A.U. after   11 cycles
 E2 =    -0.2069948733D+00 EUMP2 =    -0.59636208297214D+01

 The electronic state is 1-AG.
 Alpha  occ. eigenvalues --   -0.86597  -0.75126  -0.61829  -0.50794  -0.40040
 Alpha  occ. eigenvalues --   -0.16921
 Alpha virt. eigenvalues --   -0.03149  -0.00343   0.38108   0.44672   0.61649
 Alpha virt. eigenvalues --    0.84976

 Mulliken charges:
               1
     1  H    0.000965
     2  H    0.086463
     3  H    0.052361
     4  H   -0.145750
     5  H    0.021138
     6  H   -0.015177
     7  H    0.052361
     8  H   -0.145750
     9  H   -0.015177
    10  H    0.021138
    11  H    0.086463
    12  H    0.000965
 Sum of Mulliken charges =  -0.00000

 Dipole moment (field-independent basis, Debye):
    X=              0.0000    Y=             -0.0000    Z=             -0.0000  Tot=              0.0000
 Quadrupole moment (field-independent basis, Debye-Ang):
   XX=            -16.5317   YY=            -14.3723   ZZ=            -15.2917
   XY=              0.4363   XZ=             -0.0000   YZ=             -0.0000

 Normal termination of Gaussian 09 at Fri Feb 17 14:55:26 2017.
