 Gaussian 09, Revision E.01,
 Gaussian 09:  ES64L-G09RevE.01 30-Nov-2015

 ----------------------------------------------------------------------
 #rhf/gen scf(symm,tight,novaracc,noincfock,fulldiag) stable(crhf) gues
 s=read geom=nocrowd test
 ----------------------------------------------------------------------

 hf stability analysis of h12 triangular lattice, y= 0.4427008172522774
 5
 ----------------------------------------------------------------------
 Symbolic Z-matrix:
 Charge =  0 Multiplicity = 1

                         Standard orientation:
 ---------------------------------------------------------------------
 Center     Atomic      Atomic             Coordinates (Angstroms)
 Number     Number       Type             X           Y           Z
 ---------------------------------------------------------------------
      1          1           0        0.838413    0.973225   -0.000000
      2          1           0       -0.000000    2.065867   -0.000000
      3          1           0        0.838413   -0.404019    0.000000
      4          1           0       -0.000000    0.688622   -0.000000
      5          1           0       -0.838413    3.158509   -0.000000
      6          1           0       -0.838413    1.781264   -0.000000
      7          1           0       -0.838413    0.404019    0.000000
      8          1           0       -0.000000   -0.688622   -0.000000
      9          1           0        0.838413   -1.781264   -0.000000
     10          1           0        0.838413   -3.158509   -0.000000
     11          1           0       -0.000000   -2.065867   -0.000000
     12          1           0       -0.838413   -0.973225   -0.000000
 ---------------------------------------------------------------------

 SCF Done:  E(RHF) =  -5.86215688348     A.U. after   17 cycles
 E2 =    -0.1114850335D+00 EUMP2 =    -0.59736419169354D+01

 The electronic state is 1-AG.
 Alpha  occ. eigenvalues --   -0.84786  -0.75192  -0.59651  -0.45528  -0.39328
 Alpha  occ. eigenvalues --   -0.23745
 Alpha virt. eigenvalues --    0.00958   0.09059   0.32271   0.42171   0.57778
 Alpha virt. eigenvalues --    0.77181

 Mulliken charges:
               1
     1  H   -0.120265
     2  H    0.029347
     3  H   -0.131570
     4  H   -0.037186
     5  H    0.158234
     6  H    0.101441
     7  H   -0.131570
     8  H   -0.037186
     9  H    0.101441
    10  H    0.158234
    11  H    0.029347
    12  H   -0.120265
 Sum of Mulliken charges =   0.00000

 Dipole moment (field-independent basis, Debye):
    X=             -0.0000    Y=              0.0000    Z=             -0.0000  Tot=              0.0000
 Quadrupole moment (field-independent basis, Debye-Ang):
   XX=            -18.2460   YY=             -0.3402   ZZ=            -15.5173
   XY=             -6.4476   XZ=              0.0000   YZ=              0.0000

 Normal termination of Gaussian 09 at Fri Feb 17 14:56:03 2017.
