 Gaussian 09, Revision E.01,
 Gaussian 09:  ES64L-G09RevE.01 30-Nov-2015

 ----------------------------------------------------------------------
 #rhf/gen scf(symm,tight,novaracc,noincfock,fulldiag) stable(crhf) gues
 s=read geom=nocrowd test
 ----------------------------------------------------------------------

 hf stability analysis of h12 triangular lattice, y= 0.2357806384192915
 3
 ----------------------------------------------------------------------
 Symbolic Z-matrix:
 Charge =  0 Multiplicity = 1

                         Standard orientation:
 ---------------------------------------------------------------------
 Center     Atomic      Atomic             Coordinates (Angstroms)
 Number     Number       Type             X           Y           Z
 ---------------------------------------------------------------------
      1          1           0        0.469390    1.275198   -0.000000
      2          1           0        0.000000    3.690001   -0.000000
      3          1           0        0.469390   -1.184803    0.000000
      4          1           0        0.000000    1.230000   -0.000000
      5          1           0       -0.469390    6.104805   -0.000000
      6          1           0       -0.469390    3.644804   -0.000000
      7          1           0       -0.469390    1.184803    0.000000
      8          1           0       -0.000000   -1.230000   -0.000000
      9          1           0        0.469390   -3.644804   -0.000000
     10          1           0        0.469390   -6.104805   -0.000000
     11          1           0       -0.000000   -3.690001   -0.000000
     12          1           0       -0.469390   -1.275198   -0.000000
 ---------------------------------------------------------------------

 SCF Done:  E(RHF) =  -4.37144800212     A.U. after   11 cycles
 E2 =    -0.7424201896D+00 EUMP2 =    -0.51138681916967D+01

 The electronic state is 1-AG.
 Alpha  occ. eigenvalues --   -1.00838  -1.00245  -0.73302  -0.73298  -0.22289
 Alpha  occ. eigenvalues --   -0.18072
 Alpha virt. eigenvalues --   -0.13050   0.01419   0.63570   0.63689   1.44405
 Alpha virt. eigenvalues --    1.54682

 Mulliken charges:
               1
     1  H    0.427189
     2  H   -0.002289
     3  H    0.425183
     4  H   -0.721102
     5  H   -0.127740
     6  H   -0.001242
     7  H    0.425183
     8  H   -0.721102
     9  H   -0.001242
    10  H   -0.127740
    11  H   -0.002289
    12  H    0.427189
 Sum of Mulliken charges =   0.00000

 Dipole moment (field-independent basis, Debye):
    X=             -0.0000    Y=              0.0000    Z=              0.0000  Tot=              0.0000
 Quadrupole moment (field-independent basis, Debye-Ang):
   XX=            -16.3620   YY=            -60.8482   ZZ=            -15.5789
   XY=              3.7751   XZ=             -0.0000   YZ=              0.0000

 Normal termination of Gaussian 09 at Fri Feb 17 14:53:23 2017.
