 Gaussian 09, Revision E.01,
 Gaussian 09:  ES64L-G09RevE.01 30-Nov-2015

 ----------------------------------------------------------------------
 #rhf/gen scf(symm,tight,novaracc,noincfock,fulldiag) stable(crhf) gues
 s=read geom=nocrowd test
 ----------------------------------------------------------------------

 hf stability analysis of h12 triangular lattice, y= 0.8149635215757493
 6
 ----------------------------------------------------------------------
 Symbolic Z-matrix:
 Charge =  0 Multiplicity = 1

                         Standard orientation:
 ---------------------------------------------------------------------
 Center     Atomic      Atomic             Coordinates (Angstroms)
 Number     Number       Type             X           Y           Z
 ---------------------------------------------------------------------
      1          1           0        1.069328    1.770040   -0.000000
      2          1           0        0.000000    1.619756   -0.000000
      3          1           0        1.069328    0.690203    0.000000
      4          1           0        0.000000    0.539919   -0.000000
      5          1           0       -1.069328    1.469472   -0.000000
      6          1           0       -1.069328    0.389634   -0.000000
      7          1           0       -1.069328   -0.690203    0.000000
      8          1           0       -0.000000   -0.539919   -0.000000
      9          1           0        1.069328   -0.389634   -0.000000
     10          1           0        1.069328   -1.469472   -0.000000
     11          1           0       -0.000000   -1.619756   -0.000000
     12          1           0       -1.069328   -1.770040    0.000000
 ---------------------------------------------------------------------

 SCF Done:  E(RHF) =  -5.71366351609     A.U. after   17 cycles
 E2 =    -0.1225208082D+00 EUMP2 =    -0.58361843243358D+01

 The electronic state is 1-AG.
 Alpha  occ. eigenvalues --   -1.00713  -0.78910  -0.68882  -0.51112  -0.46415
 Alpha  occ. eigenvalues --   -0.20267
 Alpha virt. eigenvalues --   -0.02424   0.10851   0.22169   0.42380   0.55667
 Alpha virt. eigenvalues --    0.90058

 Mulliken charges:
               1
     1  H   -0.261253
     2  H    0.082438
     3  H    0.068195
     4  H    0.043556
     5  H   -0.064574
     6  H    0.131637
     7  H    0.068195
     8  H    0.043556
     9  H    0.131637
    10  H   -0.064574
    11  H    0.082438
    12  H   -0.261253
 Sum of Mulliken charges =   0.00000

 Dipole moment (field-independent basis, Debye):
    X=             -0.0000    Y=             -0.0000    Z=             -0.0000  Tot=              0.0000
 Quadrupole moment (field-independent basis, Debye-Ang):
   XX=            -17.7805   YY=            -27.8144   ZZ=            -15.1065
   XY=             -4.6515   XZ=              0.0000   YZ=              0.0000

 Normal termination of Gaussian 09 at Thu Feb 16 18:52:54 2017.
