 Gaussian 09, Revision E.01,
 Gaussian 09:  ES64L-G09RevE.01 30-Nov-2015

 ----------------------------------------------------------------------
 #rhf/gen scf(symm,tight,novaracc,noincfock,fulldiag) stable(crhf) gues
 s=read geom=nocrowd test
 ----------------------------------------------------------------------

 hf stability analysis of h12 triangular lattice, y= 0.7305457695626856
 9
 ----------------------------------------------------------------------
 Symbolic Z-matrix:
 Charge =  0 Multiplicity = 1

                         Standard orientation:
 ---------------------------------------------------------------------
 Center     Atomic      Atomic             Coordinates (Angstroms)
 Number     Number       Type             X           Y           Z
 ---------------------------------------------------------------------
      1          1           0        1.072912    1.529905   -0.000000
      2          1           0        0.000000    1.614345   -0.000000
      3          1           0        1.072912    0.453675   -0.000000
      4          1           0        0.000000    0.538115   -0.000000
      5          1           0       -1.072912    1.698785    0.000000
      6          1           0       -1.072912    0.622555    0.000000
      7          1           0       -1.072912   -0.453675   -0.000000
      8          1           0       -0.000000   -0.538115   -0.000000
      9          1           0        1.072912   -0.622555    0.000000
     10          1           0        1.072912   -1.698785   -0.000000
     11          1           0       -0.000000   -1.614345   -0.000000
     12          1           0       -1.072912   -1.529905   -0.000000
 ---------------------------------------------------------------------

 SCF Done:  E(RHF) =  -5.68317967462     A.U. after   16 cycles
 E2 =    -0.1252677885D+00 EUMP2 =    -0.58084474631310D+01

 The electronic state is 1-AG.
 Alpha  occ. eigenvalues --   -1.01150  -0.78987  -0.68934  -0.50693  -0.47177
 Alpha  occ. eigenvalues --   -0.19010
 Alpha virt. eigenvalues --   -0.03047   0.09293   0.21672   0.44106   0.54562
 Alpha virt. eigenvalues --    0.92525

 Mulliken charges:
               1
     1  H   -0.076810
     2  H    0.072416
     3  H    0.119820
     4  H    0.070954
     5  H   -0.248125
     6  H    0.061746
     7  H    0.119820
     8  H    0.070954
     9  H    0.061746
    10  H   -0.248125
    11  H    0.072416
    12  H   -0.076810
 Sum of Mulliken charges =  -0.00000

 Dipole moment (field-independent basis, Debye):
    X=              0.0000    Y=             -0.0000    Z=             -0.0000  Tot=              0.0000
 Quadrupole moment (field-independent basis, Debye-Ang):
   XX=            -18.1302   YY=            -27.3614   ZZ=            -15.0789
   XY=              4.0538   XZ=              0.0000   YZ=             -0.0000

 Normal termination of Gaussian 09 at Fri Feb 17 15:01:09 2017.
