 Gaussian 09, Revision E.01,
 Gaussian 09:  ES64L-G09RevE.01 30-Nov-2015

 ----------------------------------------------------------------------
 #rhf/gen scf(symm,tight,novaracc,noincfock,fulldiag) stable(crhf) gues
 s=read geom=nocrowd test
 ----------------------------------------------------------------------

 hf stability analysis of h12 triangular lattice, y= 0.7241740692380285
 2
 ----------------------------------------------------------------------
 Symbolic Z-matrix:
 Charge =  0 Multiplicity = 1

                         Standard orientation:
 ---------------------------------------------------------------------
 Center     Atomic      Atomic             Coordinates (Angstroms)
 Number     Number       Type             X           Y           Z
 ---------------------------------------------------------------------
      1          1           0        1.072094    1.512347   -0.000000
      2          1           0        0.000000    1.615578   -0.000000
      3          1           0        1.072094    0.435295    0.000000
      4          1           0        0.000000    0.538526   -0.000000
      5          1           0       -1.072094    1.718809   -0.000000
      6          1           0       -1.072094    0.641757   -0.000000
      7          1           0       -1.072094   -0.435295    0.000000
      8          1           0       -0.000000   -0.538526    0.000000
      9          1           0        1.072094   -0.641757   -0.000000
     10          1           0        1.072094   -1.718809    0.000000
     11          1           0       -0.000000   -1.615578    0.000000
     12          1           0       -1.072094   -1.512347    0.000000
 ---------------------------------------------------------------------

 SCF Done:  E(RHF) =  -5.69134136941     A.U. after   16 cycles
 E2 =    -0.1244670093D+00 EUMP2 =    -0.58158083787291D+01

 The electronic state is 1-AG.
 Alpha  occ. eigenvalues --   -1.00959  -0.78933  -0.68908  -0.50771  -0.46971
 Alpha  occ. eigenvalues --   -0.19339
 Alpha virt. eigenvalues --   -0.02837   0.09734   0.21814   0.43726   0.54896
 Alpha virt. eigenvalues --    0.92018

 Mulliken charges:
               1
     1  H   -0.070619
     2  H    0.074488
     3  H    0.123710
     4  H    0.061594
     5  H   -0.252565
     6  H    0.063393
     7  H    0.123710
     8  H    0.061594
     9  H    0.063393
    10  H   -0.252565
    11  H    0.074488
    12  H   -0.070619
 Sum of Mulliken charges =  -0.00000

 Dipole moment (field-independent basis, Debye):
    X=             -0.0000    Y=              0.0000    Z=              0.0000  Tot=              0.0000
 Quadrupole moment (field-independent basis, Debye-Ang):
   XX=            -17.9830   YY=            -27.4778   ZZ=            -15.0855
   XY=              4.2978   XZ=             -0.0000   YZ=              0.0000

 Normal termination of Gaussian 09 at Fri Feb 17 15:01:03 2017.
