 Gaussian 09, Revision E.01,
 Gaussian 09:  ES64L-G09RevE.01 30-Nov-2015

 ----------------------------------------------------------------------
 #rhf/gen scf(symm,tight,novaracc,noincfock,fulldiag) stable(crhf) gues
 s=read geom=nocrowd test
 ----------------------------------------------------------------------

 hf stability analysis of h12 triangular lattice, y= 0.7664958762004193
 7
 ----------------------------------------------------------------------
 Symbolic Z-matrix:
 Charge =  0 Multiplicity = 1

                         Standard orientation:
 ---------------------------------------------------------------------
 Center     Atomic      Atomic             Coordinates (Angstroms)
 Number     Number       Type             X           Y           Z
 ---------------------------------------------------------------------
      1          1           0        1.074488    1.630733   -0.000000
      2          1           0        0.000000    1.611978   -0.000000
      3          1           0        1.074488    0.556081   -0.000000
      4          1           0        0.000000    0.537326   -0.000000
      5          1           0       -1.074488    1.593222   -0.000000
      6          1           0       -1.074488    0.518571   -0.000000
      7          1           0       -1.074488   -0.556081    0.000000
      8          1           0       -0.000000   -0.537326   -0.000000
      9          1           0        1.074488   -0.518571   -0.000000
     10          1           0        1.074488   -1.593222   -0.000000
     11          1           0       -0.000000   -1.611978   -0.000000
     12          1           0       -1.074488   -1.630733   -0.000000
 ---------------------------------------------------------------------

 SCF Done:  E(RHF) =  -5.66128659877     A.U. after   22 cycles
 E2 =    -0.1282770956D+00 EUMP2 =    -0.57895636943340D+01

 The electronic state is 1-AG.
 Alpha  occ. eigenvalues --   -1.02774  -0.79630  -0.69421  -0.50817  -0.47866
 Alpha  occ. eigenvalues --   -0.18160
 Alpha virt. eigenvalues --   -0.04508   0.07713   0.20815   0.44348   0.53116
 Alpha virt. eigenvalues --    0.92609

 Mulliken charges:
               1
     1  H   -0.227071
     2  H    0.086210
     3  H    0.069445
     4  H    0.116043
     5  H   -0.147223
     6  H    0.102596
     7  H    0.069445
     8  H    0.116043
     9  H    0.102596
    10  H   -0.147223
    11  H    0.086210
    12  H   -0.227071
 Sum of Mulliken charges =  -0.00000

 Dipole moment (field-independent basis, Debye):
    X=             -0.0000    Y=              0.0000    Z=              0.0000  Tot=              0.0000
 Quadrupole moment (field-independent basis, Debye-Ang):
   XX=            -19.2253   YY=            -27.3745   ZZ=            -15.0763
   XY=             -1.9294   XZ=              0.0000   YZ=              0.0000

 Normal termination of Gaussian 09 at Fri Feb 17 15:01:44 2017.
