 Gaussian 09, Revision E.01,
 Gaussian 09:  ES64L-G09RevE.01 30-Nov-2015

 ----------------------------------------------------------------------
 #rhf/gen scf(symm,tight,novaracc,noincfock,fulldiag) stable(crhf) gues
 s=read geom=nocrowd test
 ----------------------------------------------------------------------

 hf stability analysis of h12 triangular lattice, y= 0.4860043606964989
 9
 ----------------------------------------------------------------------
 Symbolic Z-matrix:
 Charge =  0 Multiplicity = 1

                         Standard orientation:
 ---------------------------------------------------------------------
 Center     Atomic      Atomic             Coordinates (Angstroms)
 Number     Number       Type             X           Y           Z
 ---------------------------------------------------------------------
      1          1           0        0.899633    1.009811   -0.000000
      2          1           0        0.000000    1.925285   -0.000000
      3          1           0        0.899633   -0.273712    0.000000
      4          1           0        0.000000    0.641762   -0.000000
      5          1           0       -0.899633    2.840759   -0.000000
      6          1           0       -0.899633    1.557235   -0.000000
      7          1           0       -0.899633    0.273712    0.000000
      8          1           0       -0.000000   -0.641762   -0.000000
      9          1           0        0.899633   -1.557235   -0.000000
     10          1           0        0.899633   -2.840759   -0.000000
     11          1           0       -0.000000   -1.925285   -0.000000
     12          1           0       -0.899633   -1.009811    0.000000
 ---------------------------------------------------------------------

 SCF Done:  E(RHF) =  -5.94689147880     A.U. after   14 cycles
 E2 =    -0.1102513743D+00 EUMP2 =    -0.60571428530826D+01

 The electronic state is 1-AG.
 Alpha  occ. eigenvalues --   -0.89793  -0.77091  -0.58814  -0.51299  -0.38083
 Alpha  occ. eigenvalues --   -0.29782
 Alpha virt. eigenvalues --    0.07775   0.20979   0.29041   0.31642   0.54181
 Alpha virt. eigenvalues --    0.61635

 Mulliken charges:
               1
     1  H   -0.102532
     2  H    0.063563
     3  H   -0.060448
     4  H   -0.027943
     5  H    0.052020
     6  H    0.075341
     7  H   -0.060448
     8  H   -0.027943
     9  H    0.075341
    10  H    0.052020
    11  H    0.063563
    12  H   -0.102532
 Sum of Mulliken charges =   0.00000

 Dipole moment (field-independent basis, Debye):
    X=              0.0000    Y=              0.0000    Z=             -0.0000  Tot=              0.0000
 Quadrupole moment (field-independent basis, Debye-Ang):
   XX=            -18.1618   YY=            -12.1899   ZZ=            -15.4777
   XY=             -3.2727   XZ=              0.0000   YZ=              0.0000

 Normal termination of Gaussian 09 at Fri Feb 17 14:56:47 2017.
