 Gaussian 09, Revision E.01,
 Gaussian 09:  ES64L-G09RevE.01 30-Nov-2015

 ----------------------------------------------------------------------
 #rhf/gen scf(symm,tight,novaracc,noincfock,fulldiag) stable(crhf) gues
 s=read geom=nocrowd test
 ----------------------------------------------------------------------

 hf stability analysis of h12 triangular lattice, y= 0.4676948326587840
 9
 ----------------------------------------------------------------------
 Symbolic Z-matrix:
 Charge =  0 Multiplicity = 1

                         Standard orientation:
 ---------------------------------------------------------------------
 Center     Atomic      Atomic             Coordinates (Angstroms)
 Number     Number       Type             X           Y           Z
 ---------------------------------------------------------------------
      1          1           0        0.874716    0.991443   -0.000000
      2          1           0        0.000000    1.980130   -0.000000
      3          1           0        0.874716   -0.328643   -0.000000
      4          1           0        0.000000    0.660043   -0.000000
      5          1           0       -0.874716    2.968816   -0.000000
      6          1           0       -0.874716    1.648730    0.000000
      7          1           0       -0.874716    0.328643    0.000000
      8          1           0       -0.000000   -0.660043   -0.000000
      9          1           0        0.874716   -1.648730   -0.000000
     10          1           0        0.874716   -2.968816   -0.000000
     11          1           0       -0.000000   -1.980130   -0.000000
     12          1           0       -0.874716   -0.991443   -0.000000
 ---------------------------------------------------------------------

 SCF Done:  E(RHF) =  -5.92025783807     A.U. after   14 cycles
 E2 =    -0.1100450534D+00 EUMP2 =    -0.60303028914723D+01

 The electronic state is 1-AG.
 Alpha  occ. eigenvalues --   -0.87746  -0.76346  -0.59197  -0.48532  -0.39133
 Alpha  occ. eigenvalues --   -0.27362
 Alpha virt. eigenvalues --    0.04808   0.16127   0.30067   0.36649   0.54651
 Alpha virt. eigenvalues --    0.67905

 Mulliken charges:
               1
     1  H   -0.115708
     2  H    0.055609
     3  H   -0.086824
     4  H   -0.031529
     5  H    0.098678
     6  H    0.079773
     7  H   -0.086824
     8  H   -0.031529
     9  H    0.079773
    10  H    0.098678
    11  H    0.055609
    12  H   -0.115708
 Sum of Mulliken charges =  -0.00000

 Dipole moment (field-independent basis, Debye):
    X=             -0.0000    Y=              0.0000    Z=             -0.0000  Tot=              0.0000
 Quadrupole moment (field-independent basis, Debye-Ang):
   XX=            -18.2570   YY=             -7.5304   ZZ=            -15.5003
   XY=             -4.6477   XZ=             -0.0000   YZ=              0.0000

 Normal termination of Gaussian 09 at Fri Feb 17 14:56:28 2017.
