 Gaussian 09, Revision E.01,
 Gaussian 09:  ES64L-G09RevE.01 30-Nov-2015

 ----------------------------------------------------------------------
 #rhf/gen scf(symm,tight,novaracc,noincfock,fulldiag) stable(crhf) gues
 s=read geom=nocrowd test
 ----------------------------------------------------------------------

 hf stability analysis of h12 triangular lattice, y= 0.6776762931058321
 1
 ----------------------------------------------------------------------
 Symbolic Z-matrix:
 Charge =  0 Multiplicity = 1

                         Standard orientation:
 ---------------------------------------------------------------------
 Center     Atomic      Atomic             Coordinates (Angstroms)
 Number     Number       Type             X           Y           Z
 ---------------------------------------------------------------------
      1          1           0        1.060710    1.388032    0.000000
      2          1           0        0.000000    1.632916    0.000000
      3          1           0        1.060710    0.299421    0.000000
      4          1           0        0.000000    0.544305    0.000000
      5          1           0       -1.060710    1.877801    0.000000
      6          1           0       -1.060710    0.789190    0.000000
      7          1           0       -1.060710   -0.299421   -0.000000
      8          1           0       -0.000000   -0.544305    0.000000
      9          1           0        1.060710   -0.789190    0.000000
     10          1           0        1.060710   -1.877801    0.000000
     11          1           0       -0.000000   -1.632916    0.000000
     12          1           0       -1.060710   -1.388032   -0.000000
 ---------------------------------------------------------------------

 SCF Done:  E(RHF) =  -5.76320277421     A.U. after   14 cycles
 E2 =    -0.1191903668D+00 EUMP2 =    -0.58823931410206D+01

 The electronic state is 1-AG.
 Alpha  occ. eigenvalues --   -1.00494  -0.79064  -0.68570  -0.52138  -0.45101
 Alpha  occ. eigenvalues --   -0.22413
 Alpha virt. eigenvalues --   -0.01366   0.13188   0.23353   0.38709   0.56936
 Alpha virt. eigenvalues --    0.83941

 Mulliken charges:
               1
     1  H   -0.065126
     2  H    0.095980
     3  H    0.137461
     4  H    0.022135
     5  H   -0.263603
     6  H    0.073153
     7  H    0.137461
     8  H    0.022135
     9  H    0.073153
    10  H   -0.263603
    11  H    0.095980
    12  H   -0.065126
 Sum of Mulliken charges =   0.00000

 Dipole moment (field-independent basis, Debye):
    X=             -0.0000    Y=              0.0000    Z=             -0.0000  Tot=              0.0000
 Quadrupole moment (field-independent basis, Debye-Ang):
   XX=            -17.6927   YY=            -28.3034   ZZ=            -15.1559
   XY=              4.7899   XZ=             -0.0000   YZ=              0.0000

 Normal termination of Gaussian 09 at Fri Feb 17 15:00:15 2017.
