 Gaussian 09, Revision E.01,
 Gaussian 09:  ES64L-G09RevE.01 30-Nov-2015

 ----------------------------------------------------------------------
 #rhf/gen scf(symm,tight,novaracc,noincfock,fulldiag) stable(crhf) gues
 s=read geom=nocrowd test
 ----------------------------------------------------------------------

 hf stability analysis of h12 triangular lattice, y= 0.4768902663057268
 4
 ----------------------------------------------------------------------
 Symbolic Z-matrix:
 Charge =  0 Multiplicity = 1

                         Standard orientation:
 ---------------------------------------------------------------------
 Center     Atomic      Atomic             Coordinates (Angstroms)
 Number     Number       Type             X           Y           Z
 ---------------------------------------------------------------------
      1          1           0        0.887414    1.000160    0.000000
      2          1           0        0.000000    1.951795    0.000000
      3          1           0        0.887414   -0.301037    0.000000
      4          1           0        0.000000    0.650598    0.000000
      5          1           0       -0.887414    2.903430    0.000000
      6          1           0       -0.887414    1.602234   -0.000000
      7          1           0       -0.887414    0.301037    0.000000
      8          1           0       -0.000000   -0.650598    0.000000
      9          1           0        0.887414   -1.602234    0.000000
     10          1           0        0.887414   -2.903430    0.000000
     11          1           0       -0.000000   -1.951795    0.000000
     12          1           0       -0.887414   -1.000160    0.000000
 ---------------------------------------------------------------------

 SCF Done:  E(RHF) =  -5.93525180695     A.U. after   14 cycles
 E2 =    -0.1101217534D+00 EUMP2 =    -0.60453735603686D+01

 The electronic state is 1-AG.
 Alpha  occ. eigenvalues --   -0.88796  -0.76734  -0.59013  -0.49918  -0.38651
 Alpha  occ. eigenvalues --   -0.28604
 Alpha virt. eigenvalues --    0.06296   0.18633   0.29449   0.34163   0.54288
 Alpha virt. eigenvalues --    0.64690

 Mulliken charges:
               1
     1  H   -0.109220
     2  H    0.060047
     3  H   -0.073311
     4  H   -0.029717
     5  H    0.075048
     6  H    0.077152
     7  H   -0.073311
     8  H   -0.029717
     9  H    0.077152
    10  H    0.075048
    11  H    0.060047
    12  H   -0.109220
 Sum of Mulliken charges =  -0.00000

 Dipole moment (field-independent basis, Debye):
    X=             -0.0000    Y=              0.0000    Z=             -0.0000  Tot=              0.0000
 Quadrupole moment (field-independent basis, Debye-Ang):
   XX=            -18.2114   YY=             -9.9744   ZZ=            -15.4895
   XY=             -3.9496   XZ=              0.0000   YZ=              0.0000

 Normal termination of Gaussian 09 at Fri Feb 17 14:56:38 2017.
