 Gaussian 09, Revision E.01,
 Gaussian 09:  ES64L-G09RevE.01 30-Nov-2015

 ----------------------------------------------------------------------
 #rhf/gen scf(symm,tight,novaracc,noincfock,fulldiag) stable(crhf) gues
 s=read geom=nocrowd test
 ----------------------------------------------------------------------

 hf stability analysis of h12 triangular lattice, y= 0.4490208748124050
 5
 ----------------------------------------------------------------------
 Symbolic Z-matrix:
 Charge =  0 Multiplicity = 1

                         Standard orientation:
 ---------------------------------------------------------------------
 Center     Atomic      Atomic             Coordinates (Angstroms)
 Number     Number       Type             X           Y           Z
 ---------------------------------------------------------------------
      1          1           0        0.847831    0.977049   -0.000000
      2          1           0        0.000000    2.042919   -0.000000
      3          1           0        0.847831   -0.384897    0.000000
      4          1           0        0.000000    0.680973   -0.000000
      5          1           0       -0.847831    3.108789   -0.000000
      6          1           0       -0.847831    1.746843   -0.000000
      7          1           0       -0.847831    0.384897    0.000000
      8          1           0       -0.000000   -0.680973   -0.000000
      9          1           0        0.847831   -1.746843   -0.000000
     10          1           0        0.847831   -3.108789   -0.000000
     11          1           0       -0.000000   -2.042919   -0.000000
     12          1           0       -0.847831   -0.977049    0.000000
 ---------------------------------------------------------------------

 SCF Done:  E(RHF) =  -5.87921094633     A.U. after   16 cycles
 E2 =    -0.1105258872D+00 EUMP2 =    -0.59897368335050D+01

 The electronic state is 1-AG.
 Alpha  occ. eigenvalues --   -0.85521  -0.75488  -0.59532  -0.46070  -0.39521
 Alpha  occ. eigenvalues --   -0.24685
 Alpha virt. eigenvalues --    0.01865   0.10896   0.31652   0.41045   0.56632
 Alpha virt. eigenvalues --    0.74798

 Mulliken charges:
               1
     1  H   -0.123501
     2  H    0.039839
     3  H   -0.118230
     4  H   -0.035457
     5  H    0.145464
     6  H    0.091885
     7  H   -0.118230
     8  H   -0.035457
     9  H    0.091885
    10  H    0.145464
    11  H    0.039839
    12  H   -0.123501
 Sum of Mulliken charges =  -0.00000

 Dipole moment (field-independent basis, Debye):
    X=             -0.0000    Y=             -0.0000    Z=             -0.0000  Tot=              0.0000
 Quadrupole moment (field-independent basis, Debye-Ang):
   XX=            -18.2922   YY=             -2.0786   ZZ=            -15.5161
   XY=             -6.0524   XZ=              0.0000   YZ=              0.0000

 Normal termination of Gaussian 09 at Fri Feb 17 14:56:10 2017.
