 Gaussian 09, Revision E.01,
 Gaussian 09:  ES64L-G09RevE.01 30-Nov-2015

 ----------------------------------------------------------------------
 #rhf/gen scf(symm,tight,novaracc,noincfock,fulldiag) stable(crhf) gues
 s=read geom=nocrowd test
 ----------------------------------------------------------------------

 hf stability analysis of h12 triangular lattice, y= 0.5306529471566099
 3
 ----------------------------------------------------------------------
 Symbolic Z-matrix:
 Charge =  0 Multiplicity = 1

                         Standard orientation:
 ---------------------------------------------------------------------
 Center     Atomic      Atomic             Coordinates (Angstroms)
 Number     Number       Type             X           Y           Z
 ---------------------------------------------------------------------
      1          1           0        0.953895    1.070501   -0.000000
      2          1           0        0.000000    1.815766    0.000000
      3          1           0        0.953895   -0.140009   -0.000000
      4          1           0        0.000000    0.605255    0.000000
      5          1           0       -0.953895    2.561031    0.000000
      6          1           0       -0.953895    1.350520    0.000000
      7          1           0       -0.953895    0.140009   -0.000000
      8          1           0       -0.000000   -0.605255    0.000000
      9          1           0        0.953895   -1.350520    0.000000
     10          1           0        0.953895   -2.561031    0.000000
     11          1           0       -0.000000   -1.815766    0.000000
     12          1           0       -0.953895   -1.070501   -0.000000
 ---------------------------------------------------------------------

 SCF Done:  E(RHF) =  -5.96352101017     A.U. after   13 cycles
 E2 =    -0.1112565139D+00 EUMP2 =    -0.60747775240717D+01

 The electronic state is 1-AG.
 Alpha  occ. eigenvalues --   -0.94000  -0.78418  -0.57612  -0.57515  -0.34811
 Alpha  occ. eigenvalues --   -0.34724
 Alpha virt. eigenvalues --    0.14623   0.20459   0.23659   0.36261   0.49016
 Alpha virt. eigenvalues --    0.55347

 Mulliken charges:
               1
     1  H   -0.074485
     2  H    0.075907
     3  H   -0.000423
     4  H   -0.019041
     5  H   -0.052110
     6  H    0.070153
     7  H   -0.000423
     8  H   -0.019041
     9  H    0.070153
    10  H   -0.052110
    11  H    0.075907
    12  H   -0.074485
 Sum of Mulliken charges =   0.00000

 Dipole moment (field-independent basis, Debye):
    X=             -0.0000    Y=              0.0000    Z=              0.0000  Tot=              0.0000
 Quadrupole moment (field-independent basis, Debye-Ang):
   XX=            -17.9307   YY=            -20.3523   ZZ=            -15.4080
   XY=             -0.2597   XZ=              0.0000   YZ=              0.0000

 Normal termination of Gaussian 09 at Fri Feb 17 14:57:35 2017.
