 Gaussian 09, Revision E.01,
 Gaussian 09:  ES64L-G09RevE.01 30-Nov-2015

 ----------------------------------------------------------------------
 #rhf/gen scf(symm,tight,novaracc,noincfock,fulldiag) stable(crhf) gues
 s=read geom=nocrowd test
 ----------------------------------------------------------------------

 ----------------------------------------------------------------------
 hf stability analysis of h12 triangular lattice, y= 2.2510753219802888
 ----------------------------------------------------------------------
 Symbolic Z-matrix:
 Charge =  0 Multiplicity = 1

                         Standard orientation:
 ---------------------------------------------------------------------
 Center     Atomic      Atomic             Coordinates (Angstroms)
 Number     Number       Type             X           Y           Z
 ---------------------------------------------------------------------
      1          1           0        0.509658    5.606030   -0.000000
      2          1           0        0.000000    3.398459   -0.000000
      3          1           0        0.509658    3.340391   -0.000000
      4          1           0        0.000000    1.132820   -0.000000
      5          1           0       -0.509658    1.190888   -0.000000
      6          1           0       -0.509658   -1.074751    0.000000
      7          1           0       -0.509658   -3.340391   -0.000000
      8          1           0       -0.000000   -1.132820   -0.000000
      9          1           0        0.509658    1.074751    0.000000
     10          1           0        0.509658   -1.190888   -0.000000
     11          1           0       -0.000000   -3.398459   -0.000000
     12          1           0       -0.509658   -5.606030   -0.000000
 ---------------------------------------------------------------------

 SCF Done:  E(RHF) =  -4.78390610086     A.U. after   11 cycles
 E2 =    -0.8138383847D+00 EUMP2 =    -0.55977444855262D+01

 The electronic state is 1-AG.
 Alpha  occ. eigenvalues --   -0.95433  -0.93151  -0.71589  -0.71543  -0.24173
 Alpha  occ. eigenvalues --   -0.19311
 Alpha virt. eigenvalues --   -0.14229   0.03115   0.59670   0.59949   1.30307
 Alpha virt. eigenvalues --    1.43050

 Mulliken charges:
               1
     1  H   -0.063503
     2  H   -0.003799
     3  H   -0.001370
     4  H   -0.568257
     5  H    0.318583
     6  H    0.318345
     7  H   -0.001370
     8  H   -0.568257
     9  H    0.318345
    10  H    0.318583
    11  H   -0.003799
    12  H   -0.063503
 Sum of Mulliken charges =  -0.00000

 Dipole moment (field-independent basis, Debye):
    X=              0.0000    Y=             -0.0000    Z=              0.0000  Tot=              0.0000
 Quadrupole moment (field-independent basis, Debye-Ang):
   XX=            -16.4106   YY=            -35.9211   ZZ=            -15.5485
   XY=             -2.0640   XZ=              0.0000   YZ=              0.0000

 Normal termination of Gaussian 09 at Fri Feb 17 15:09:34 2017.
