 Gaussian 09, Revision E.01,
 Gaussian 09:  ES64L-G09RevE.01 30-Nov-2015

 ----------------------------------------------------------------------
 #rhf/gen scf(symm,tight,novaracc,noincfock,fulldiag) stable(crhf) gues
 s=read geom=nocrowd test
 ----------------------------------------------------------------------

 hf stability analysis of h12 triangular lattice, y= 0.8792984807723166
 5
 ----------------------------------------------------------------------
 Symbolic Z-matrix:
 Charge =  0 Multiplicity = 1

                         Standard orientation:
 ---------------------------------------------------------------------
 Center     Atomic      Atomic             Coordinates (Angstroms)
 Number     Number       Type             X           Y           Z
 ---------------------------------------------------------------------
      1          1           0        1.052212    1.957784    0.000000
      2          1           0        0.000000    1.646105    0.000000
      3          1           0        1.052212    0.860381    0.000000
      4          1           0        0.000000    0.548702    0.000000
      5          1           0       -1.052212    1.334425   -0.000000
      6          1           0       -1.052212    0.237022   -0.000000
      7          1           0       -1.052212   -0.860381    0.000000
      8          1           0       -0.000000   -0.548702    0.000000
      9          1           0        1.052212   -0.237022   -0.000000
     10          1           0        1.052212   -1.334425   -0.000000
     11          1           0       -0.000000   -1.646105    0.000000
     12          1           0       -1.052212   -1.957784    0.000000
 ---------------------------------------------------------------------

 SCF Done:  E(RHF) =  -5.79968296920     A.U. after   15 cycles
 E2 =    -0.1174105735D+00 EUMP2 =    -0.59170935427369D+01

 The electronic state is 1-AG.
 Alpha  occ. eigenvalues --   -1.00218  -0.79188  -0.67967  -0.52956  -0.44041
 Alpha  occ. eigenvalues --   -0.24056
 Alpha virt. eigenvalues --   -0.00104   0.14871   0.24797   0.35764   0.57541
 Alpha virt. eigenvalues --    0.78469

 Mulliken charges:
               1
     1  H   -0.252266
     2  H    0.099457
     3  H    0.072358
     4  H    0.013290
     5  H   -0.065217
     6  H    0.132377
     7  H    0.072358
     8  H    0.013290
     9  H    0.132377
    10  H   -0.065217
    11  H    0.099457
    12  H   -0.252266
 Sum of Mulliken charges =   0.00000

 Dipole moment (field-independent basis, Debye):
    X=             -0.0000    Y=             -0.0000    Z=             -0.0000  Tot=              0.0000
 Quadrupole moment (field-independent basis, Debye-Ang):
   XX=            -17.7004   YY=            -28.3244   ZZ=            -15.1912
   XY=             -4.6071   XZ=             -0.0000   YZ=             -0.0000

 Normal termination of Gaussian 09 at Fri Feb 17 15:03:22 2017.
