 Gaussian 09, Revision E.01,
 Gaussian 09:  ES64L-G09RevE.01 30-Nov-2015

 ----------------------------------------------------------------------
 #rhf/gen scf(symm,tight,novaracc,noincfock,fulldiag) stable(crhf) gues
 s=read geom=nocrowd test
 ----------------------------------------------------------------------

 hf stability analysis of h12 triangular lattice, y= 0.5686226315714816
 3
 ----------------------------------------------------------------------
 Symbolic Z-matrix:
 Charge =  0 Multiplicity = 1

                         Standard orientation:
 ---------------------------------------------------------------------
 Center     Atomic      Atomic             Coordinates (Angstroms)
 Number     Number       Type             X           Y           Z
 ---------------------------------------------------------------------
      1          1           0        0.992242    1.137547   -0.000000
      2          1           0       -0.000000    1.745593    0.000000
      3          1           0        0.992242   -0.026182   -0.000000
      4          1           0       -0.000000    0.581864    0.000000
      5          1           0       -0.992242    2.353640    0.000000
      6          1           0       -0.992242    1.189911    0.000000
      7          1           0       -0.992242    0.026182    0.000000
      8          1           0       -0.000000   -0.581864   -0.000000
      9          1           0        0.992242   -1.189911   -0.000000
     10          1           0        0.992242   -2.353640   -0.000000
     11          1           0       -0.000000   -1.745593   -0.000000
     12          1           0       -0.992242   -1.137547   -0.000000
 ---------------------------------------------------------------------

 SCF Done:  E(RHF) =  -5.93638854295     A.U. after   13 cycles
 E2 =    -0.1125621602D+00 EUMP2 =    -0.60489507031328D+01

 The electronic state is 1-AG.
 Alpha  occ. eigenvalues --   -0.96715  -0.79038  -0.61805  -0.56348  -0.38236
 Alpha  occ. eigenvalues --   -0.31543
 Alpha virt. eigenvalues --    0.11205   0.21323   0.22065   0.37364   0.51049
 Alpha virt. eigenvalues --    0.56840

 Mulliken charges:
               1
     1  H   -0.062080
     2  H    0.084866
     3  H    0.048651
     4  H   -0.010587
     5  H   -0.128452
     6  H    0.067602
     7  H    0.048651
     8  H   -0.010587
     9  H    0.067602
    10  H   -0.128452
    11  H    0.084866
    12  H   -0.062080
 Sum of Mulliken charges =  -0.00000

 Dipole moment (field-independent basis, Debye):
    X=              0.0000    Y=             -0.0000    Z=             -0.0000  Tot=              0.0000
 Quadrupole moment (field-independent basis, Debye-Ang):
   XX=            -17.7987   YY=            -24.5645   ZZ=            -15.3418
   XY=              1.8294   XZ=              0.0000   YZ=             -0.0000

 Normal termination of Gaussian 09 at Fri Feb 17 14:58:15 2017.
