 Gaussian 09, Revision E.01,
 Gaussian 09:  ES64L-G09RevE.01 30-Nov-2015

 ----------------------------------------------------------------------
 #rhf/gen scf(symm,tight,novaracc,noincfock,fulldiag) stable(crhf) gues
 s=read geom=nocrowd test
 ----------------------------------------------------------------------

 ----------------------------------------------------------------------
 hf stability analysis of h12 triangular lattice, y= 1.9367771983277440
 ----------------------------------------------------------------------
 Symbolic Z-matrix:
 Charge =  0 Multiplicity = 1

                         Standard orientation:
 ---------------------------------------------------------------------
 Center     Atomic      Atomic             Coordinates (Angstroms)
 Number     Number       Type             X           Y           Z
 ---------------------------------------------------------------------
      1          1           0        0.589258    4.808264    0.000000
      2          1           0        0.000000    2.939376    0.000000
      3          1           0        0.589258    2.848680    0.000000
      4          1           0        0.000000    0.979792    0.000000
      5          1           0       -0.589258    1.070487   -0.000000
      6          1           0       -0.589258   -0.889096   -0.000000
      7          1           0       -0.589258   -2.848680    0.000000
      8          1           0       -0.000000   -0.979792    0.000000
      9          1           0        0.589258    0.889096   -0.000000
     10          1           0        0.589258   -1.070487    0.000000
     11          1           0       -0.000000   -2.939376    0.000000
     12          1           0       -0.589258   -4.808264    0.000000
 ---------------------------------------------------------------------

 SCF Done:  E(RHF) =  -5.34927475987     A.U. after   14 cycles
 E2 =    -0.8246617849D+00 EUMP2 =    -0.61739365447470D+01

 The electronic state is 1-AG.
 Alpha  occ. eigenvalues --   -0.89687  -0.83235  -0.68524  -0.67830  -0.29143
 Alpha  occ. eigenvalues --   -0.19805
 Alpha virt. eigenvalues --   -0.14273   0.04392   0.52680   0.53708   1.04886
 Alpha virt. eigenvalues --    1.22470

 Mulliken charges:
               1
     1  H   -0.005734
     2  H   -0.005853
     3  H    0.001469
     4  H   -0.369644
     5  H    0.197869
     6  H    0.181893
     7  H    0.001469
     8  H   -0.369644
     9  H    0.181893
    10  H    0.197869
    11  H   -0.005853
    12  H   -0.005734
 Sum of Mulliken charges =  -0.00000

 Dipole moment (field-independent basis, Debye):
    X=              0.0000    Y=              0.0000    Z=             -0.0000  Tot=              0.0000
 Quadrupole moment (field-independent basis, Debye-Ang):
   XX=            -16.2603   YY=            -19.5807   ZZ=            -15.4816
   XY=             -0.8501   XZ=             -0.0000   YZ=              0.0000

 Normal termination of Gaussian 09 at Fri Feb 17 15:09:08 2017.
