 Gaussian 09, Revision E.01,
 Gaussian 09:  ES64L-G09RevE.01 30-Nov-2015

 ----------------------------------------------------------------------
 #rhf/gen scf(symm,tight,novaracc,noincfock,fulldiag) stable(crhf) gues
 s=read geom=nocrowd test
 ----------------------------------------------------------------------

 hf stability analysis of h12 triangular lattice, y= 0.3066389812720254
 9
 ----------------------------------------------------------------------
 Symbolic Z-matrix:
 Charge =  0 Multiplicity = 1

                         Standard orientation:
 ---------------------------------------------------------------------
 Center     Atomic      Atomic             Coordinates (Angstroms)
 Number     Number       Type             X           Y           Z
 ---------------------------------------------------------------------
      1          1           0        0.605303    1.052400    0.000000
      2          1           0        0.000000    2.861460    0.000000
      3          1           0        0.605303   -0.855240    0.000000
      4          1           0        0.000000    0.953820    0.000000
      5          1           0       -0.605303    4.670521   -0.000000
      6          1           0       -0.605303    2.762880   -0.000000
      7          1           0       -0.605303    0.855240    0.000000
      8          1           0       -0.000000   -0.953820   -0.000000
      9          1           0        0.605303   -2.762880   -0.000000
     10          1           0        0.605303   -4.670521   -0.000000
     11          1           0       -0.000000   -2.861460   -0.000000
     12          1           0       -0.605303   -1.052400   -0.000000
 ---------------------------------------------------------------------

 SCF Done:  E(RHF) =  -5.42918052910     A.U. after   12 cycles
 E2 =    -0.7933690236D+00 EUMP2 =    -0.62225495526496D+01

 The electronic state is 1-AG.
 Alpha  occ. eigenvalues --   -0.89375  -0.82080  -0.67971  -0.66950  -0.30418
 Alpha  occ. eigenvalues --   -0.19552
 Alpha virt. eigenvalues --   -0.13835   0.04152   0.51337   0.52604   0.99865
 Alpha virt. eigenvalues --    1.18343

 Mulliken charges:
               1
     1  H    0.187386
     2  H   -0.005966
     3  H    0.166879
     4  H   -0.342721
     5  H   -0.008577
     6  H    0.002999
     7  H    0.166879
     8  H   -0.342721
     9  H    0.002999
    10  H   -0.008577
    11  H   -0.005966
    12  H    0.187386
 Sum of Mulliken charges =  -0.00000

 Dipole moment (field-independent basis, Debye):
    X=             -0.0000    Y=             -0.0000    Z=              0.0000  Tot=              0.0000
 Quadrupole moment (field-independent basis, Debye-Ang):
   XX=            -16.1739   YY=            -20.1977   ZZ=            -15.4656
   XY=              1.0142   XZ=              0.0000   YZ=             -0.0000

 Normal termination of Gaussian 09 at Fri Feb 17 14:54:04 2017.
