 Gaussian 09, Revision E.01,
 Gaussian 09:  ES64L-G09RevE.01 30-Nov-2015

 ----------------------------------------------------------------------
 #rhf/gen scf(symm,tight,novaracc,noincfock,fulldiag) stable(crhf) gues
 s=read geom=nocrowd test
 ----------------------------------------------------------------------

 hf stability analysis of h12 triangular lattice, y= 0.7732164846609803
 6
 ----------------------------------------------------------------------
 Symbolic Z-matrix:
 Charge =  0 Multiplicity = 1

                         Standard orientation:
 ---------------------------------------------------------------------
 Center     Atomic      Atomic             Coordinates (Angstroms)
 Number     Number       Type             X           Y           Z
 ---------------------------------------------------------------------
      1          1           0        1.074243    1.649859   -0.000000
      2          1           0        0.000000    1.612346   -0.000000
      3          1           0        1.074243    0.574962   -0.000000
      4          1           0        0.000000    0.537449   -0.000000
      5          1           0       -1.074243    1.574833   -0.000000
      6          1           0       -1.074243    0.499935   -0.000000
      7          1           0       -1.074243   -0.574962   -0.000000
      8          1           0       -0.000000   -0.537449   -0.000000
      9          1           0        1.074243   -0.499935    0.000000
     10          1           0        1.074243   -1.574833    0.000000
     11          1           0       -0.000000   -1.612346   -0.000000
     12          1           0       -1.074243   -1.649859   -0.000000
 ---------------------------------------------------------------------

 SCF Done:  E(RHF) =  -5.66599590094     A.U. after   22 cycles
 E2 =    -0.1273429410D+00 EUMP2 =    -0.57933388419525D+01

 The electronic state is 1-AG.
 Alpha  occ. eigenvalues --   -1.02098  -0.79342  -0.69180  -0.50707  -0.47668
 Alpha  occ. eigenvalues --   -0.18345
 Alpha virt. eigenvalues --   -0.03914   0.08182   0.21162   0.44483   0.53602
 Alpha virt. eigenvalues --    0.92898

 Mulliken charges:
               1
     1  H   -0.234962
     2  H    0.076677
     3  H    0.062830
     4  H    0.101271
     5  H   -0.114357
     6  H    0.108541
     7  H    0.062830
     8  H    0.101271
     9  H    0.108541
    10  H   -0.114357
    11  H    0.076677
    12  H   -0.234962
 Sum of Mulliken charges =  -0.00000

 Dipole moment (field-independent basis, Debye):
    X=             -0.0000    Y=              0.0000    Z=              0.0000  Tot=              0.0000
 Quadrupole moment (field-independent basis, Debye-Ang):
   XX=            -18.7912   YY=            -27.2571   ZZ=            -15.0722
   XY=             -2.8873   XZ=             -0.0000   YZ=              0.0000

 Normal termination of Gaussian 09 at Fri Feb 17 15:01:49 2017.
