 Gaussian 09, Revision E.01,
 Gaussian 09:  ES64L-G09RevE.01 30-Nov-2015

 ----------------------------------------------------------------------
 #rhf/gen scf(symm,tight,novaracc,noincfock,fulldiag) stable(crhf) gues
 s=read geom=nocrowd test
 ----------------------------------------------------------------------

 ----------------------------------------------------------------------
 hf stability analysis of h12 triangular lattice, y= 1.8330252138232914
 ----------------------------------------------------------------------
 Symbolic Z-matrix:
 Charge =  0 Multiplicity = 1

                         Standard orientation:
 ---------------------------------------------------------------------
 Center     Atomic      Atomic             Coordinates (Angstroms)
 Number     Number       Type             X           Y           Z
 ---------------------------------------------------------------------
      1          1           0        0.620844    4.543043    0.000000
      2          1           0        0.000000    2.789834    0.000000
      3          1           0        0.620844    2.683154    0.000000
      4          1           0        0.000000    0.929945    0.000000
      5          1           0       -0.620844    1.036625    0.000000
      6          1           0       -0.620844   -0.823264    0.000000
      7          1           0       -0.620844   -2.683154   -0.000000
      8          1           0       -0.000000   -0.929945   -0.000000
      9          1           0        0.620844    0.823264    0.000000
     10          1           0        0.620844   -1.036625   -0.000000
     11          1           0       -0.000000   -2.789834   -0.000000
     12          1           0       -0.620844   -4.543043   -0.000000
 ---------------------------------------------------------------------

 SCF Done:  E(RHF) =  -5.49699913040     A.U. after   13 cycles
 E2 =    -0.7627648868D+00 EUMP2 =    -0.62597640171886D+01

 The electronic state is 1-AG.
 Alpha  occ. eigenvalues --   -0.89150  -0.81070  -0.67441  -0.66008  -0.31645
 Alpha  occ. eigenvalues --   -0.19262
 Alpha virt. eigenvalues --   -0.13352   0.03894   0.50063   0.51600   0.95193
 Alpha virt. eigenvalues --    1.14502

 Mulliken charges:
               1
     1  H   -0.012204
     2  H   -0.005897
     3  H    0.004915
     4  H   -0.319118
     5  H    0.178862
     6  H    0.153443
     7  H    0.004915
     8  H   -0.319118
     9  H    0.153443
    10  H    0.178862
    11  H   -0.005897
    12  H   -0.012204
 Sum of Mulliken charges =   0.00000

 Dipole moment (field-independent basis, Debye):
    X=             -0.0000    Y=             -0.0000    Z=              0.0000  Tot=              0.0000
 Quadrupole moment (field-independent basis, Debye-Ang):
   XX=            -16.0882   YY=            -20.8730   ZZ=            -15.4485
   XY=             -1.1979   XZ=             -0.0000   YZ=             -0.0000

 Normal termination of Gaussian 09 at Fri Feb 17 15:08:57 2017.
