 Gaussian 09, Revision E.01,
 Gaussian 09:  ES64L-G09RevE.01 30-Nov-2015

 ----------------------------------------------------------------------
 #rhf/gen scf(symm,tight,novaracc,noincfock,fulldiag) stable(crhf) gues
 s=read geom=nocrowd test
 ----------------------------------------------------------------------

 ----------------------------------------------------------------------
 hf stability analysis of h12 triangular lattice, y= 1.0000000336490449
 ----------------------------------------------------------------------
 Symbolic Z-matrix:
 Charge =  0 Multiplicity = 1

                         Standard orientation:
 ---------------------------------------------------------------------
 Center     Atomic      Atomic             Coordinates (Angstroms)
 Number     Number       Type             X           Y           Z
 ---------------------------------------------------------------------
      1          1           0        1.000000    2.309401   -0.000000
      2          1           0        0.000000    1.732051   -0.000000
      3          1           0        1.000000    1.154701   -0.000000
      4          1           0        0.000000    0.577350   -0.000000
      5          1           0       -1.000000    1.154701    0.000000
      6          1           0       -1.000000    0.000000    0.000000
      7          1           0       -1.000000   -1.154701    0.000000
      8          1           0       -0.000000   -0.577350    0.000000
      9          1           0        1.000000   -0.000000    0.000000
     10          1           0        1.000000   -1.154701    0.000000
     11          1           0       -0.000000   -1.732051    0.000000
     12          1           0       -1.000000   -2.309401    0.000000
 ---------------------------------------------------------------------

 SCF Done:  E(RHF) =  -5.92624824582     A.U. after   13 cycles
 E2 =    -0.1129242236D+00 EUMP2 =    -0.60391724694387D+01

 The electronic state is 1-AG.
 Alpha  occ. eigenvalues --   -0.97235  -0.79124  -0.62656  -0.56034  -0.38930
 Alpha  occ. eigenvalues --   -0.30793
 Alpha virt. eigenvalues --    0.09680   0.20745   0.23433   0.35812   0.53688
 Alpha virt. eigenvalues --    0.57128

 Mulliken charges:
               1
     1  H   -0.144383
     2  H    0.086935
     3  H    0.067323
     4  H   -0.008509
     5  H   -0.060875
     6  H    0.059510
     7  H    0.067323
     8  H   -0.008509
     9  H    0.059510
    10  H   -0.060875
    11  H    0.086935
    12  H   -0.144383
 Sum of Mulliken charges =   0.00000

 Dipole moment (field-independent basis, Debye):
    X=              0.0000    Y=              0.0000    Z=              0.0000  Tot=              0.0000
 Quadrupole moment (field-independent basis, Debye-Ang):
   XX=            -17.7786   YY=            -25.2663   ZZ=            -15.3264
   XY=             -2.2399   XZ=              0.0000   YZ=              0.0000

 Normal termination of Gaussian 09 at Fri Feb 17 15:04:45 2017.
