 Gaussian 09, Revision E.01,
 Gaussian 09:  ES64L-G09RevE.01 30-Nov-2015

 ----------------------------------------------------------------------
 #rhf/gen scf(symm,tight,novaracc,noincfock,fulldiag) stable(crhf) gues
 s=read geom=nocrowd test
 ----------------------------------------------------------------------

 hf stability analysis of h12 triangular lattice, y= 0.7766002745861101
 4
 ----------------------------------------------------------------------
 Symbolic Z-matrix:
 Charge =  0 Multiplicity = 1

                         Standard orientation:
 ---------------------------------------------------------------------
 Center     Atomic      Atomic             Coordinates (Angstroms)
 Number     Number       Type             X           Y           Z
 ---------------------------------------------------------------------
      1          1           0        1.074058    1.659517   -0.000000
      2          1           0        0.000000    1.612623   -0.000000
      3          1           0        1.074058    0.584435   -0.000000
      4          1           0        0.000000    0.537541   -0.000000
      5          1           0       -1.074058    1.565728   -0.000000
      6          1           0       -1.074058    0.490646   -0.000000
      7          1           0       -1.074058   -0.584435   -0.000000
      8          1           0       -0.000000   -0.537541   -0.000000
      9          1           0        1.074058   -0.490646   -0.000000
     10          1           0        1.074058   -1.565728   -0.000000
     11          1           0       -0.000000   -1.612623   -0.000000
     12          1           0       -1.074058   -1.659517   -0.000000
 ---------------------------------------------------------------------

 SCF Done:  E(RHF) =  -5.66893497685     A.U. after   22 cycles
 E2 =    -0.1269092801D+00 EUMP2 =    -0.57958442569496D+01

 The electronic state is 1-AG.
 Alpha  occ. eigenvalues --   -1.01835  -0.79236  -0.69098  -0.50677  -0.47570
 Alpha  occ. eigenvalues --   -0.18456
 Alpha virt. eigenvalues --   -0.03683   0.08408   0.21296   0.44484   0.53817
 Alpha virt. eigenvalues --    0.92940

 Mulliken charges:
               1
     1  H   -0.237943
     2  H    0.074097
     3  H    0.061495
     4  H    0.094374
     5  H   -0.103035
     6  H    0.111012
     7  H    0.061495
     8  H    0.094374
     9  H    0.111012
    10  H   -0.103035
    11  H    0.074097
    12  H   -0.237943
 Sum of Mulliken charges =   0.00000

 Dipole moment (field-independent basis, Debye):
    X=             -0.0000    Y=              0.0000    Z=              0.0000  Tot=              0.0000
 Quadrupole moment (field-independent basis, Debye-Ang):
   XX=            -18.6157   YY=            -27.2435   ZZ=            -15.0719
   XY=             -3.2188   XZ=              0.0000   YZ=              0.0000

 Normal termination of Gaussian 09 at Fri Feb 17 15:01:53 2017.
