 Gaussian 09, Revision E.01,
 Gaussian 09:  ES64L-G09RevE.01 30-Nov-2015

 ----------------------------------------------------------------------
 #rhf/gen scf(symm,tight,novaracc,noincfock,fulldiag) stable(crhf) gues
 s=read geom=nocrowd test
 ----------------------------------------------------------------------

 ----------------------------------------------------------------------
 hf stability analysis of h12 triangular lattice, y= 1.1806129676413906
 ----------------------------------------------------------------------
 Symbolic Z-matrix:
 Charge =  0 Multiplicity = 1

                         Standard orientation:
 ---------------------------------------------------------------------
 Center     Atomic      Atomic             Coordinates (Angstroms)
 Number     Number       Type             X           Y           Z
 ---------------------------------------------------------------------
      1          1           0        0.903602    2.820431    0.000000
      2          1           0        0.000000    1.916829    0.000000
      3          1           0        0.903602    1.542545    0.000000
      4          1           0        0.000000    0.638943    0.000000
      5          1           0       -0.903602    1.013227    0.000000
      6          1           0       -0.903602   -0.264659    0.000000
      7          1           0       -0.903602   -1.542545    0.000000
      8          1           0       -0.000000   -0.638943    0.000000
      9          1           0        0.903602    0.264659    0.000000
     10          1           0        0.903602   -1.013227    0.000000
     11          1           0       -0.000000   -1.916829    0.000000
     12          1           0       -0.903602   -2.820431    0.000000
 ---------------------------------------------------------------------

 SCF Done:  E(RHF) =  -5.95007209906     A.U. after   13 cycles
 E2 =    -0.1103016956D+00 EUMP2 =    -0.60603737946884D+01

 The electronic state is 1-AG.
 Alpha  occ. eigenvalues --   -0.90114  -0.77203  -0.58744  -0.51752  -0.37881
 Alpha  occ. eigenvalues --   -0.30160
 Alpha virt. eigenvalues --    0.08265   0.21691   0.28984   0.30807   0.54187
 Alpha virt. eigenvalues --    0.60653

 Mulliken charges:
               1
     1  H    0.044501
     2  H    0.064600
     3  H    0.074845
     4  H   -0.027356
     5  H   -0.100328
     6  H   -0.056261
     7  H    0.074845
     8  H   -0.027356
     9  H   -0.056261
    10  H   -0.100328
    11  H    0.064600
    12  H    0.044501
 Sum of Mulliken charges =   0.00000

 Dipole moment (field-independent basis, Debye):
    X=             -0.0000    Y=             -0.0000    Z=              0.0000  Tot=              0.0000
 Quadrupole moment (field-independent basis, Debye-Ang):
   XX=            -18.1449   YY=            -12.8793   ZZ=            -15.4735
   XY=              3.0523   XZ=             -0.0000   YZ=             -0.0000

 Normal termination of Gaussian 09 at Fri Feb 17 15:06:20 2017.
