 Gaussian 09, Revision E.01,
 Gaussian 09:  ES64L-G09RevE.01 30-Nov-2015

 ----------------------------------------------------------------------
 #rhf/gen scf(symm,tight,novaracc,noincfock,fulldiag) stable(crhf) gues
 s=read geom=nocrowd test
 ----------------------------------------------------------------------

 hf stability analysis of h12 triangular lattice, y= 0.8955390333684565
 3
 ----------------------------------------------------------------------
 Symbolic Z-matrix:
 Charge =  0 Multiplicity = 1

                         Standard orientation:
 ---------------------------------------------------------------------
 Center     Atomic      Atomic             Coordinates (Angstroms)
 Number     Number       Type             X           Y           Z
 ---------------------------------------------------------------------
      1          1           0        1.046437    2.005322    0.000000
      2          1           0        0.000000    1.655189    0.000000
      3          1           0        1.046437    0.901863    0.000000
      4          1           0        0.000000    0.551730    0.000000
      5          1           0       -1.046437    1.305056    0.000000
      6          1           0       -1.046437    0.201597   -0.000000
      7          1           0       -1.046437   -0.901863    0.000000
      8          1           0       -0.000000   -0.551730   -0.000000
      9          1           0        1.046437   -0.201597   -0.000000
     10          1           0        1.046437   -1.305056   -0.000000
     11          1           0       -0.000000   -1.655189   -0.000000
     12          1           0       -1.046437   -2.005322    0.000000
 ---------------------------------------------------------------------

 SCF Done:  E(RHF) =  -5.82057574501     A.U. after   15 cycles
 E2 =    -0.1165570330D+00 EUMP2 =    -0.59371327779972D+01

 The electronic state is 1-AG.
 Alpha  occ. eigenvalues --   -0.99972  -0.79243  -0.67468  -0.53431  -0.43389
 Alpha  occ. eigenvalues --   -0.25029
 Alpha virt. eigenvalues --    0.00854   0.15823   0.25890   0.34007   0.57760
 Alpha virt. eigenvalues --    0.75047

 Mulliken charges:
               1
     1  H   -0.241707
     2  H    0.099447
     3  H    0.071149
     4  H    0.009338
     5  H   -0.064420
     6  H    0.126193
     7  H    0.071149
     8  H    0.009338
     9  H    0.126193
    10  H   -0.064420
    11  H    0.099447
    12  H   -0.241707
 Sum of Mulliken charges =  -0.00000

 Dipole moment (field-independent basis, Debye):
    X=             -0.0000    Y=              0.0000    Z=             -0.0000  Tot=              0.0000
 Quadrupole moment (field-independent basis, Debye-Ang):
   XX=            -17.7076   YY=            -28.1957   ZZ=            -15.2111
   XY=             -4.4169   XZ=             -0.0000   YZ=             -0.0000

 Normal termination of Gaussian 09 at Fri Feb 17 15:03:34 2017.
