 Gaussian 09, Revision E.01,
 Gaussian 09:  ES64L-G09RevE.01 30-Nov-2015

 ----------------------------------------------------------------------
 #rhf/gen scf(symm,tight,novaracc,noincfock,fulldiag) stable(crhf) gues
 s=read geom=nocrowd test
 ----------------------------------------------------------------------

 hf stability analysis of h12 triangular lattice, y= 0.4135443701547177
 3
 ----------------------------------------------------------------------
 Symbolic Z-matrix:
 Charge =  0 Multiplicity = 1

                         Standard orientation:
 ---------------------------------------------------------------------
 Center     Atomic      Atomic             Coordinates (Angstroms)
 Number     Number       Type             X           Y           Z
 ---------------------------------------------------------------------
      1          1           0        0.793029    0.962938    0.000000
      2          1           0       -0.000000    2.184095    0.000000
      3          1           0        0.793029   -0.493126   -0.000000
      4          1           0       -0.000000    0.728032    0.000000
      5          1           0       -0.793029    3.405253    0.000000
      6          1           0       -0.793029    1.949189    0.000000
      7          1           0       -0.793029    0.493126   -0.000000
      8          1           0       -0.000000   -0.728032    0.000000
      9          1           0        0.793029   -1.949189    0.000000
     10          1           0        0.793029   -3.405253    0.000000
     11          1           0       -0.000000   -2.184095    0.000000
     12          1           0       -0.793029   -0.962938   -0.000000
 ---------------------------------------------------------------------

 SCF Done:  E(RHF) =  -5.76550002740     A.U. after   13 cycles
 E2 =    -0.1558227512D+00 EUMP2 =    -0.59213227785870D+01

 The electronic state is 1-AG.
 Alpha  occ. eigenvalues --   -0.84914  -0.74439  -0.60915  -0.48322  -0.39236
 Alpha  occ. eigenvalues --   -0.18239
 Alpha virt. eigenvalues --   -0.00929  -0.00224   0.36617   0.44497   0.61319
 Alpha virt. eigenvalues --    0.84184

 Mulliken charges:
               1
     1  H   -0.091765
     2  H    0.127315
     3  H    0.028550
     4  H   -0.115456
     5  H    0.092656
     6  H   -0.041300
     7  H    0.028550
     8  H   -0.115456
     9  H   -0.041300
    10  H    0.092656
    11  H    0.127315
    12  H   -0.091765
 Sum of Mulliken charges =  -0.00000

 Dipole moment (field-independent basis, Debye):
    X=             -0.0000    Y=              0.0000    Z=              0.0000  Tot=              0.0000
 Quadrupole moment (field-independent basis, Debye-Ang):
   XX=            -17.3931   YY=             -6.0071   ZZ=            -15.3414
   XY=             -2.0518   XZ=             -0.0000   YZ=             -0.0000

 Normal termination of Gaussian 09 at Fri Feb 17 14:55:35 2017.
