 Gaussian 09, Revision E.01,
 Gaussian 09:  ES64L-G09RevE.01 30-Nov-2015

 ----------------------------------------------------------------------
 #rhf/gen scf(symm,tight,novaracc,noincfock,fulldiag) stable(crhf) gues
 s=read geom=nocrowd test
 ----------------------------------------------------------------------

 hf stability analysis of h12 triangular lattice, y= 0.3350007865764852
 4
 ----------------------------------------------------------------------
 Symbolic Z-matrix:
 Charge =  0 Multiplicity = 1

                         Standard orientation:
 ---------------------------------------------------------------------
 Center     Atomic      Atomic             Coordinates (Angstroms)
 Number     Number       Type             X           Y           Z
 ---------------------------------------------------------------------
      1          1           0        0.657692    1.005686    0.000000
      2          1           0        0.000000    2.633530    0.000000
      3          1           0        0.657692   -0.750001   -0.000000
      4          1           0        0.000000    0.877843    0.000000
      5          1           0       -0.657692    4.261374    0.000000
      6          1           0       -0.657692    2.505687    0.000000
      7          1           0       -0.657692    0.750001    0.000000
      8          1           0       -0.000000   -0.877843    0.000000
      9          1           0        0.657692   -2.505687    0.000000
     10          1           0        0.657692   -4.261374    0.000000
     11          1           0       -0.000000   -2.633530    0.000000
     12          1           0       -0.657692   -1.005686    0.000000
 ---------------------------------------------------------------------

 SCF Done:  E(RHF) =  -5.62288812134     A.U. after   12 cycles
 E2 =    -0.6876147003D+00 EUMP2 =    -0.63105028216189D+01

 The electronic state is 1-AG.
 Alpha  occ. eigenvalues --   -0.88912  -0.79169  -0.66216  -0.63387  -0.34545
 Alpha  occ. eigenvalues --   -0.18382
 Alpha virt. eigenvalues --   -0.11946   0.03131   0.47128   0.49451   0.84780
 Alpha virt. eigenvalues --    1.05876

 Mulliken charges:
               1
     1  H    0.164554
     2  H   -0.004909
     3  H    0.125199
     4  H   -0.271540
     5  H   -0.024970
     6  H    0.011666
     7  H    0.125199
     8  H   -0.271540
     9  H    0.011666
    10  H   -0.024970
    11  H   -0.004909
    12  H    0.164554
 Sum of Mulliken charges =  -0.00000

 Dipole moment (field-independent basis, Debye):
    X=              0.0000    Y=             -0.0000    Z=             -0.0000  Tot=              0.0000
 Quadrupole moment (field-independent basis, Debye-Ang):
   XX=            -15.8832   YY=            -22.7705   ZZ=            -15.4035
   XY=              1.7409   XZ=              0.0000   YZ=             -0.0000

 Normal termination of Gaussian 09 at Fri Feb 17 14:54:25 2017.
