 Gaussian 09, Revision E.01,
 Gaussian 09:  ES64L-G09RevE.01 30-Nov-2015

 ----------------------------------------------------------------------
 #rhf/gen scf(symm,tight,novaracc,noincfock,fulldiag) stable(crhf) gues
 s=read geom=nocrowd test
 ----------------------------------------------------------------------

 hf stability analysis of h12 triangular lattice, y= 0.5482239839410609
 8
 ----------------------------------------------------------------------
 Symbolic Z-matrix:
 Charge =  0 Multiplicity = 1

                         Standard orientation:
 ---------------------------------------------------------------------
 Center     Atomic      Atomic             Coordinates (Angstroms)
 Number     Number       Type             X           Y           Z
 ---------------------------------------------------------------------
      1          1           0        0.972561    1.099922   -0.000000
      2          1           0        0.000000    1.780917    0.000000
      3          1           0        0.972561   -0.087356   -0.000000
      4          1           0        0.000000    0.593639    0.000000
      5          1           0       -0.972561    2.461912    0.000000
      6          1           0       -0.972561    1.274634    0.000000
      7          1           0       -0.972561    0.087356   -0.000000
      8          1           0       -0.000000   -0.593639    0.000000
      9          1           0        0.972561   -1.274634    0.000000
     10          1           0        0.972561   -2.461912    0.000000
     11          1           0       -0.000000   -1.780917    0.000000
     12          1           0       -0.972561   -1.099922   -0.000000
 ---------------------------------------------------------------------

 SCF Done:  E(RHF) =  -5.95480027249     A.U. after   13 cycles
 E2 =    -0.1118064727D+00 EUMP2 =    -0.60666067451712D+01

 The electronic state is 1-AG.
 Alpha  occ. eigenvalues --   -0.95350  -0.78758  -0.59618  -0.57050  -0.36483
 Alpha  occ. eigenvalues --   -0.33273
 Alpha virt. eigenvalues --    0.14668   0.19344   0.22630   0.39404   0.46961
 Alpha virt. eigenvalues --    0.56062

 Mulliken charges:
               1
     1  H   -0.067274
     2  H    0.080060
     3  H    0.022550
     4  H   -0.015252
     5  H   -0.088841
     6  H    0.068756
     7  H    0.022550
     8  H   -0.015252
     9  H    0.068756
    10  H   -0.088841
    11  H    0.080060
    12  H   -0.067274
 Sum of Mulliken charges =   0.00000

 Dipole moment (field-independent basis, Debye):
    X=              0.0000    Y=             -0.0000    Z=             -0.0000  Tot=              0.0000
 Quadrupole moment (field-independent basis, Debye-Ang):
   XX=            -17.8607   YY=            -22.5570   ZZ=            -15.3777
   XY=              0.7661   XZ=              0.0000   YZ=             -0.0000

 Normal termination of Gaussian 09 at Fri Feb 17 14:57:53 2017.
