 Gaussian 09, Revision E.01,
 Gaussian 09:  ES64L-G09RevE.01 30-Nov-2015

 ----------------------------------------------------------------------
 #rhf/gen scf(symm,tight,novaracc,noincfock,fulldiag) stable(crhf) gues
 s=read geom=nocrowd test
 ----------------------------------------------------------------------

 hf stability analysis of h12 triangular lattice, y= 0.7401925230820305
 4
 ----------------------------------------------------------------------
 Symbolic Z-matrix:
 Charge =  0 Multiplicity = 1

                         Standard orientation:
 ---------------------------------------------------------------------
 Center     Atomic      Atomic             Coordinates (Angstroms)
 Number     Number       Type             X           Y           Z
 ---------------------------------------------------------------------
      1          1           0        1.073833    1.556683    0.000000
      2          1           0        0.000000    1.612961    0.000000
      3          1           0        1.073833    0.481376    0.000000
      4          1           0        0.000000    0.537654    0.000000
      5          1           0       -1.073833    1.669238    0.000000
      6          1           0       -1.073833    0.593931    0.000000
      7          1           0       -1.073833   -0.481376    0.000000
      8          1           0       -0.000000   -0.537654    0.000000
      9          1           0        1.073833   -0.593931    0.000000
     10          1           0        1.073833   -1.669238    0.000000
     11          1           0       -0.000000   -1.612961    0.000000
     12          1           0       -1.073833   -1.556683    0.000000
 ---------------------------------------------------------------------

 SCF Done:  E(RHF) =  -5.67216587034     A.U. after   16 cycles
 E2 =    -0.1264892621D+00 EUMP2 =    -0.57986551324469D+01

 The electronic state is 1-AG.
 Alpha  occ. eigenvalues --   -1.01615  -0.79151  -0.69036  -0.50661  -0.47473
 Alpha  occ. eigenvalues --   -0.18580
 Alpha virt. eigenvalues --   -0.03486   0.08632   0.21409   0.44445   0.54017
 Alpha virt. eigenvalues --    0.92920

 Mulliken charges:
               1
     1  H   -0.094054
     2  H    0.072588
     3  H    0.113348
     4  H    0.087891
     5  H   -0.240683
     6  H    0.060910
     7  H    0.113348
     8  H    0.087891
     9  H    0.060910
    10  H   -0.240683
    11  H    0.072588
    12  H   -0.094054
 Sum of Mulliken charges =  -0.00000

 Dipole moment (field-independent basis, Debye):
    X=              0.0000    Y=             -0.0000    Z=             -0.0000  Tot=              0.0000
 Quadrupole moment (field-independent basis, Debye-Ang):
   XX=            -18.4645   YY=            -27.2514   ZZ=            -15.0727
   XY=              3.4887   XZ=             -0.0000   YZ=              0.0000

 Normal termination of Gaussian 09 at Fri Feb 17 15:01:18 2017.
