 Gaussian 09, Revision E.01,
 Gaussian 09:  ES64L-G09RevE.01 30-Nov-2015

 ----------------------------------------------------------------------
 #rhf/gen scf(symm,tight,novaracc,noincfock,fulldiag) stable(crhf) gues
 s=read geom=nocrowd test
 ----------------------------------------------------------------------

 hf stability analysis of h12 triangular lattice, y= 0.9122757376900774
 2
 ----------------------------------------------------------------------
 Symbolic Z-matrix:
 Charge =  0 Multiplicity = 1

                         Standard orientation:
 ---------------------------------------------------------------------
 Center     Atomic      Atomic             Coordinates (Angstroms)
 Number     Number       Type             X           Y           Z
 ---------------------------------------------------------------------
      1          1           0        1.039988    2.054288    0.000000
      2          1           0        0.000000    1.665452   -0.000000
      3          1           0        1.039988    0.943986    0.000000
      4          1           0        0.000000    0.555151   -0.000000
      5          1           0       -1.039988    1.276616   -0.000000
      6          1           0       -1.039988    0.166315   -0.000000
      7          1           0       -1.039988   -0.943986    0.000000
      8          1           0       -0.000000   -0.555151   -0.000000
      9          1           0        1.039988   -0.166315   -0.000000
     10          1           0        1.039988   -1.276616   -0.000000
     11          1           0       -0.000000   -1.665452   -0.000000
     12          1           0       -1.039988   -2.054288    0.000000
 ---------------------------------------------------------------------

 SCF Done:  E(RHF) =  -5.84117419040     A.U. after   14 cycles
 E2 =    -0.1157914757D+00 EUMP2 =    -0.59569656661498D+01

 The electronic state is 1-AG.
 Alpha  occ. eigenvalues --   -0.99656  -0.79280  -0.66861  -0.53902  -0.42704
 Alpha  occ. eigenvalues --   -0.26017
 Alpha virt. eigenvalues --    0.01987   0.16752   0.27185   0.32213   0.57881
 Alpha virt. eigenvalues --    0.71470

 Mulliken charges:
               1
     1  H   -0.228740
     2  H    0.098380
     3  H    0.069842
     4  H    0.005826
     5  H   -0.063218
     6  H    0.117910
     7  H    0.069842
     8  H    0.005826
     9  H    0.117910
    10  H   -0.063218
    11  H    0.098380
    12  H   -0.228740
 Sum of Mulliken charges =   0.00000

 Dipole moment (field-independent basis, Debye):
    X=             -0.0000    Y=             -0.0000    Z=             -0.0000  Tot=              0.0000
 Quadrupole moment (field-independent basis, Debye-Ang):
   XX=            -17.7148   YY=            -27.9609   ZZ=            -15.2310
   XY=             -4.1681   XZ=             -0.0000   YZ=             -0.0000

 Normal termination of Gaussian 09 at Fri Feb 17 15:03:46 2017.
