 Gaussian 09, Revision E.01,
 Gaussian 09:  ES64L-G09RevE.01 30-Nov-2015

 ----------------------------------------------------------------------
 #rhf/gen scf(symm,tight,novaracc,noincfock,fulldiag) stable(crhf) gues
 s=read geom=nocrowd test
 ----------------------------------------------------------------------

 hf stability analysis of h12 triangular lattice, y= 0.3758679504228169
 5
 ----------------------------------------------------------------------
 Symbolic Z-matrix:
 Charge =  0 Multiplicity = 1

                         Standard orientation:
 ---------------------------------------------------------------------
 Center     Atomic      Atomic             Coordinates (Angstroms)
 Number     Number       Type             X           Y           Z
 ---------------------------------------------------------------------
      1          1           0        0.730193    0.969359   -0.000000
      2          1           0        0.000000    2.372046   -0.000000
      3          1           0        0.730193   -0.612005   -0.000000
      4          1           0        0.000000    0.790682   -0.000000
      5          1           0       -0.730193    3.774733   -0.000000
      6          1           0       -0.730193    2.193369   -0.000000
      7          1           0       -0.730193    0.612005   -0.000000
      8          1           0       -0.000000   -0.790682   -0.000000
      9          1           0        0.730193   -2.193369   -0.000000
     10          1           0        0.730193   -3.774733   -0.000000
     11          1           0       -0.000000   -2.372046   -0.000000
     12          1           0       -0.730193   -0.969359   -0.000000
 ---------------------------------------------------------------------

 SCF Done:  E(RHF) =  -5.74613130221     A.U. after   19 cycles
 E2 =    -0.4721458742D+00 EUMP2 =    -0.62182771764386D+01

 The electronic state is 1-AG.
 Alpha  occ. eigenvalues --   -0.88744  -0.76885  -0.63904  -0.56510  -0.39545
 Alpha  occ. eigenvalues --   -0.16365
 Alpha virt. eigenvalues --   -0.07949   0.01132   0.41551   0.46030   0.67678
 Alpha virt. eigenvalues --    0.91032

 Mulliken charges:
               1
     1  H    0.149371
     2  H   -0.006711
     3  H    0.057733
     4  H   -0.197578
     5  H   -0.051352
     6  H    0.048538
     7  H    0.057733
     8  H   -0.197578
     9  H    0.048538
    10  H   -0.051352
    11  H   -0.006711
    12  H    0.149371
 Sum of Mulliken charges =   0.00000

 Dipole moment (field-independent basis, Debye):
    X=              0.0000    Y=              0.0000    Z=             -0.0000  Tot=              0.0000
 Quadrupole moment (field-independent basis, Debye-Ang):
   XX=            -15.5921   YY=            -24.6206   ZZ=            -15.3147
   XY=              2.5757   XZ=              0.0000   YZ=              0.0000

 Normal termination of Gaussian 09 at Fri Feb 17 14:54:58 2017.
