 Gaussian 09, Revision E.01,
 Gaussian 09:  ES64L-G09RevE.01 30-Nov-2015

 ----------------------------------------------------------------------
 #rhf/gen scf(symm,tight,novaracc,noincfock,fulldiag) stable(crhf) gues
 s=read geom=nocrowd test
 ----------------------------------------------------------------------

 ----------------------------------------------------------------------
 hf stability analysis of h12 triangular lattice, y= 2.4486760461856742
 ----------------------------------------------------------------------
 Symbolic Z-matrix:
 Charge =  0 Multiplicity = 1

                         Standard orientation:
 ---------------------------------------------------------------------
 Center     Atomic      Atomic             Coordinates (Angstroms)
 Number     Number       Type             X           Y           Z
 ---------------------------------------------------------------------
      1          1           0        0.469390    6.104806    0.000000
      2          1           0       -0.000000    3.690002    0.000000
      3          1           0        0.469390    3.644805    0.000000
      4          1           0       -0.000000    1.230001    0.000000
      5          1           0       -0.469390    1.275198    0.000000
      6          1           0       -0.469390   -1.184804   -0.000000
      7          1           0       -0.469390   -3.644805   -0.000000
      8          1           0       -0.000000   -1.230001   -0.000000
      9          1           0        0.469390    1.184804    0.000000
     10          1           0        0.469390   -1.275198   -0.000000
     11          1           0       -0.000000   -3.690002   -0.000000
     12          1           0       -0.469390   -6.104806   -0.000000
 ---------------------------------------------------------------------

 SCF Done:  E(RHF) =  -4.37130157578     A.U. after   12 cycles
 E2 =    -0.7432675375D+00 EUMP2 =    -0.51145691132989D+01

 The electronic state is 1-AG.
 Alpha  occ. eigenvalues --   -1.00813  -1.00221  -0.73298  -0.73294  -0.22270
 Alpha  occ. eigenvalues --   -0.18082
 Alpha virt. eigenvalues --   -0.13063   0.01436   0.63573   0.63693   1.44431
 Alpha virt. eigenvalues --    1.54707

 Mulliken charges:
               1
     1  H   -0.127325
     2  H   -0.002002
     3  H   -0.001536
     4  H   -0.720890
     5  H    0.424296
     6  H    0.427457
     7  H   -0.001536
     8  H   -0.720890
     9  H    0.427457
    10  H    0.424296
    11  H   -0.002002
    12  H   -0.127325
 Sum of Mulliken charges =  -0.00000

 Dipole moment (field-independent basis, Debye):
    X=             -0.0000    Y=             -0.0000    Z=              0.0000  Tot=              0.0000
 Quadrupole moment (field-independent basis, Debye-Ang):
   XX=            -16.3556   YY=            -60.7211   ZZ=            -15.5778
   XY=             -3.7033   XZ=             -0.0000   YZ=             -0.0000

 Normal termination of Gaussian 09 at Fri Feb 17 15:09:46 2017.
