 Gaussian 09, Revision E.01,
 Gaussian 09:  ES64L-G09RevE.01 30-Nov-2015

 ----------------------------------------------------------------------
 #rhf/gen scf(symm,tight,novaracc,noincfock,fulldiag) stable(crhf) gues
 s=read geom=nocrowd test
 ----------------------------------------------------------------------

 hf stability analysis of h12 triangular lattice, y= 0.6476646814092581
 5
 ----------------------------------------------------------------------
 Symbolic Z-matrix:
 Charge =  0 Multiplicity = 1

                         Standard orientation:
 ---------------------------------------------------------------------
 Center     Atomic      Atomic             Coordinates (Angstroms)
 Number     Number       Type             X           Y           Z
 ---------------------------------------------------------------------
      1          1           0        1.047943    1.312312   -0.000000
      2          1           0       -0.000000    1.652809   -0.000000
      3          1           0        1.047943    0.210439   -0.000000
      4          1           0       -0.000000    0.550936   -0.000000
      5          1           0       -1.047943    1.993307   -0.000000
      6          1           0       -1.047943    0.891434    0.000000
      7          1           0       -1.047943   -0.210439   -0.000000
      8          1           0        0.000000   -0.550936   -0.000000
      9          1           0        1.047943   -0.891434   -0.000000
     10          1           0        1.047943   -1.993307   -0.000000
     11          1           0        0.000000   -1.652809   -0.000000
     12          1           0       -1.047943   -1.312312   -0.000000
 ---------------------------------------------------------------------

 SCF Done:  E(RHF) =  -5.81536962158     A.U. after   14 cycles
 E2 =    -0.1167612791D+00 EUMP2 =    -0.59321309006939D+01

 The electronic state is 1-AG.
 Alpha  occ. eigenvalues --   -1.00040  -0.79231  -0.67603  -0.53312  -0.43555
 Alpha  occ. eigenvalues --   -0.24784
 Alpha virt. eigenvalues --    0.00598   0.15587   0.25598   0.34450   0.57715
 Alpha virt. eigenvalues --    0.75919

 Mulliken charges:
               1
     1  H   -0.064668
     2  H    0.099562
     3  H    0.127947
     4  H    0.010276
     5  H   -0.244589
     6  H    0.071472
     7  H    0.127947
     8  H    0.010276
     9  H    0.071472
    10  H   -0.244589
    11  H    0.099562
    12  H   -0.064668
 Sum of Mulliken charges =   0.00000

 Dipole moment (field-independent basis, Debye):
    X=              0.0000    Y=             -0.0000    Z=              0.0000  Tot=              0.0000
 Quadrupole moment (field-independent basis, Debye-Ang):
   XX=            -17.7058   YY=            -28.2377   ZZ=            -15.2061
   XY=              4.4700   XZ=              0.0000   YZ=             -0.0000

 Normal termination of Gaussian 09 at Thu Feb 16 18:52:21 2017.
