 Gaussian 09, Revision E.01,
 Gaussian 09:  ES64L-G09RevE.01 30-Nov-2015

 ----------------------------------------------------------------------
 #rhf/gen scf(symm,tight,novaracc,noincfock,fulldiag) stable(crhf) gues
 s=read geom=nocrowd test
 ----------------------------------------------------------------------

 ----------------------------------------------------------------------
 hf stability analysis of h12 triangular lattice, y= 1.0940617386278098
 ----------------------------------------------------------------------
 Symbolic Z-matrix:
 Charge =  0 Multiplicity = 1

                         Standard orientation:
 ---------------------------------------------------------------------
 Center     Atomic      Atomic             Coordinates (Angstroms)
 Number     Number       Type             X           Y           Z
 ---------------------------------------------------------------------
      1          1           0        0.950620    2.578180   -0.000000
      2          1           0        0.000000    1.822023   -0.000000
      3          1           0        0.950620    1.363498   -0.000000
      4          1           0        0.000000    0.607341   -0.000000
      5          1           0       -0.950620    1.065865   -0.000000
      6          1           0       -0.950620   -0.148816    0.000000
      7          1           0       -0.950620   -1.363498   -0.000000
      8          1           0       -0.000000   -0.607341   -0.000000
      9          1           0        0.950620    0.148816    0.000000
     10          1           0        0.950620   -1.065865   -0.000000
     11          1           0       -0.000000   -1.822023   -0.000000
     12          1           0       -0.950620   -2.578180   -0.000000
 ---------------------------------------------------------------------

 SCF Done:  E(RHF) =  -5.96423858900     A.U. after   12 cycles
 E2 =    -0.1111733897D+00 EUMP2 =    -0.60754119786558D+01

 The electronic state is 1-AG.
 Alpha  occ. eigenvalues --   -0.93757  -0.78351  -0.57702  -0.57143  -0.34962
 Alpha  occ. eigenvalues --   -0.34515
 Alpha virt. eigenvalues --    0.14260   0.21039   0.23811   0.35505   0.49668
 Alpha virt. eigenvalues --    0.55231

 Mulliken charges:
               1
     1  H   -0.045729
     2  H    0.075200
     3  H    0.070414
     4  H   -0.019655
     5  H   -0.075933
     6  H   -0.004298
     7  H    0.070414
     8  H   -0.019655
     9  H   -0.004298
    10  H   -0.075933
    11  H    0.075200
    12  H   -0.045729
 Sum of Mulliken charges =   0.00000

 Dipole moment (field-independent basis, Debye):
    X=             -0.0000    Y=             -0.0000    Z=             -0.0000  Tot=              0.0000
 Quadrupole moment (field-independent basis, Debye-Ang):
   XX=            -17.9438   YY=            -19.9347   ZZ=            -15.4130
   XY=              0.4407   XZ=             -0.0000   YZ=              0.0000

 Normal termination of Gaussian 09 at Fri Feb 17 15:05:40 2017.
