 Gaussian 09, Revision E.01,
 Gaussian 09:  ES64L-G09RevE.01 30-Nov-2015

 ----------------------------------------------------------------------
 #rhf/gen scf(symm,tight,novaracc,noincfock,fulldiag) stable(crhf) gues
 s=read geom=nocrowd test
 ----------------------------------------------------------------------

 hf stability analysis of h12 triangular lattice, y= 0.5129460835266602
 7
 ----------------------------------------------------------------------
 Symbolic Z-matrix:
 Charge =  0 Multiplicity = 1

                         Standard orientation:
 ---------------------------------------------------------------------
 Center     Atomic      Atomic             Coordinates (Angstroms)
 Number     Number       Type             X           Y           Z
 ---------------------------------------------------------------------
      1          1           0        0.933522    1.043895   -0.000000
      2          1           0       -0.000000    1.855393    0.000000
      3          1           0        0.933522   -0.193034   -0.000000
      4          1           0       -0.000000    0.618464    0.000000
      5          1           0       -0.933522    2.666892    0.000000
      6          1           0       -0.933522    1.429963    0.000000
      7          1           0       -0.933522    0.193034   -0.000000
      8          1           0        0.000000   -0.618464    0.000000
      9          1           0        0.933522   -1.429963    0.000000
     10          1           0        0.933522   -2.666892    0.000000
     11          1           0        0.000000   -1.855393    0.000000
     12          1           0       -0.933522   -1.043895   -0.000000
 ---------------------------------------------------------------------

 SCF Done:  E(RHF) =  -5.96426056992     A.U. after   13 cycles
 E2 =    -0.1107928288D+00 EUMP2 =    -0.60750533987687D+01

 The electronic state is 1-AG.
 Alpha  occ. eigenvalues --   -0.92467  -0.77974  -0.58131  -0.55190  -0.36130
 Alpha  occ. eigenvalues --   -0.32957
 Alpha virt. eigenvalues --    0.12095   0.24306   0.24460   0.31734   0.53451
 Alpha virt. eigenvalues --    0.54692

 Mulliken charges:
               1
     1  H   -0.084169
     2  H    0.071525
     3  H   -0.023884
     4  H   -0.022664
     5  H   -0.012655
     6  H    0.071846
     7  H   -0.023884
     8  H   -0.022664
     9  H    0.071846
    10  H   -0.012655
    11  H    0.071525
    12  H   -0.084169
 Sum of Mulliken charges =   0.00000

 Dipole moment (field-independent basis, Debye):
    X=              0.0000    Y=             -0.0000    Z=              0.0000  Tot=              0.0000
 Quadrupole moment (field-independent basis, Debye-Ang):
   XX=            -18.0153   YY=            -17.6020   ZZ=            -15.4373
   XY=             -1.3887   XZ=             -0.0000   YZ=             -0.0000

 Normal termination of Gaussian 09 at Fri Feb 17 14:57:16 2017.
