 Gaussian 09, Revision E.01,
 Gaussian 09:  ES64L-G09RevE.01 30-Nov-2015

 ----------------------------------------------------------------------
 #rhf/gen scf(symm,tight,novaracc,noincfock,fulldiag) stable(crhf) gues
 s=read geom=nocrowd test
 ----------------------------------------------------------------------

 hf stability analysis of h12 triangular lattice, y= 0.5511430676164930
 1
 ----------------------------------------------------------------------
 Symbolic Z-matrix:
 Charge =  0 Multiplicity = 1

                         Standard orientation:
 ---------------------------------------------------------------------
 Center     Atomic      Atomic             Coordinates (Angstroms)
 Number     Number       Type             X           Y           Z
 ---------------------------------------------------------------------
      1          1           0        0.975510    1.105085    0.000000
      2          1           0        0.000000    1.775534    0.000000
      3          1           0        0.975510   -0.078604   -0.000000
      4          1           0        0.000000    0.591845    0.000000
      5          1           0       -0.975510    2.445984    0.000000
      6          1           0       -0.975510    1.262294    0.000000
      7          1           0       -0.975510    0.078604   -0.000000
      8          1           0       -0.000000   -0.591845    0.000000
      9          1           0        0.975510   -1.262294    0.000000
     10          1           0        0.975510   -2.445984    0.000000
     11          1           0       -0.000000   -1.775534    0.000000
     12          1           0       -0.975510   -1.105085    0.000000
 ---------------------------------------------------------------------

 SCF Done:  E(RHF) =  -5.95267089788     A.U. after   13 cycles
 E2 =    -0.1119068338D+00 EUMP2 =    -0.60645777316439D+01

 The electronic state is 1-AG.
 Alpha  occ. eigenvalues --   -0.95559  -0.78805  -0.59948  -0.56953  -0.36745
 Alpha  occ. eigenvalues --   -0.33028
 Alpha virt. eigenvalues --    0.14249   0.19624   0.22447   0.39448   0.47164
 Alpha virt. eigenvalues --    0.56180

 Mulliken charges:
               1
     1  H   -0.066321
     2  H    0.080746
     3  H    0.026331
     4  H   -0.014602
     5  H   -0.094710
     6  H    0.068556
     7  H    0.026331
     8  H   -0.014602
     9  H    0.068556
    10  H   -0.094710
    11  H    0.080746
    12  H   -0.066321
 Sum of Mulliken charges =   0.00000

 Dipole moment (field-independent basis, Debye):
    X=              0.0000    Y=              0.0000    Z=             -0.0000  Tot=              0.0000
 Quadrupole moment (field-independent basis, Debye-Ang):
   XX=            -17.8505   YY=            -22.8783   ZZ=            -15.3725
   XY=              0.9269   XZ=              0.0000   YZ=             -0.0000

 Normal termination of Gaussian 09 at Fri Feb 17 14:57:56 2017.
