 Gaussian 09, Revision E.01,
 Gaussian 09:  ES64L-G09RevE.01 30-Nov-2015

 ----------------------------------------------------------------------
 #rhf/gen scf(symm,tight,novaracc,noincfock,fulldiag) stable(crhf) gues
 s=read geom=nocrowd test
 ----------------------------------------------------------------------

 hf stability analysis of h12 triangular lattice, y= 0.2411143230343760
 2
 ----------------------------------------------------------------------
 Symbolic Z-matrix:
 Charge =  0 Multiplicity = 1

                         Standard orientation:
 ---------------------------------------------------------------------
 Center     Atomic      Atomic             Coordinates (Angstroms)
 Number     Number       Type             X           Y           Z
 ---------------------------------------------------------------------
      1          1           0        0.479802    1.251622    0.000000
      2          1           0        0.000000    3.609926    0.000000
      3          1           0        0.479802   -1.154995   -0.000000
      4          1           0        0.000000    1.203309    0.000000
      5          1           0       -0.479802    5.968230    0.000000
      6          1           0       -0.479802    3.561612    0.000000
      7          1           0       -0.479802    1.154995   -0.000000
      8          1           0       -0.000000   -1.203309    0.000000
      9          1           0        0.479802   -3.561612    0.000000
     10          1           0        0.479802   -5.968230    0.000000
     11          1           0       -0.000000   -3.609926    0.000000
     12          1           0       -0.479802   -1.251622    0.000000
 ---------------------------------------------------------------------

 SCF Done:  E(RHF) =  -4.48786419939     A.U. after   10 cycles
 E2 =    -0.7582418901D+00 EUMP2 =    -0.52461060895083D+01

 The electronic state is 1-AG.
 Alpha  occ. eigenvalues --   -0.99392  -0.98408  -0.72860  -0.72851  -0.22808
 Alpha  occ. eigenvalues --   -0.18408
 Alpha virt. eigenvalues --   -0.13364   0.01817   0.62518   0.62668   1.40512
 Alpha virt. eigenvalues --    1.51415

 Mulliken charges:
               1
     1  H    0.397938
     2  H   -0.002581
     3  H    0.395569
     4  H   -0.678124
     5  H   -0.111418
     6  H   -0.001385
     7  H    0.395569
     8  H   -0.678124
     9  H   -0.001385
    10  H   -0.111418
    11  H   -0.002581
    12  H    0.397938
 Sum of Mulliken charges =  -0.00000

 Dipole moment (field-independent basis, Debye):
    X=              0.0000    Y=             -0.0000    Z=             -0.0000  Tot=              0.0000
 Quadrupole moment (field-independent basis, Debye-Ang):
   XX=            -16.3779   YY=            -53.6894   ZZ=            -15.5727
   XY=              3.3536   XZ=             -0.0000   YZ=              0.0000

 Normal termination of Gaussian 09 at Fri Feb 17 14:53:25 2017.
