 Gaussian 09, Revision E.01,
 Gaussian 09:  ES64L-G09RevE.01 30-Nov-2015

 ----------------------------------------------------------------------
 #rhf/gen scf(symm,tight,novaracc,noincfock,fulldiag) stable(crhf) gues
 s=read geom=nocrowd test
 ----------------------------------------------------------------------

 hf stability analysis of h12 triangular lattice, y= 0.5010379721798762
 2
 ----------------------------------------------------------------------
 Symbolic Z-matrix:
 Charge =  0 Multiplicity = 1

                         Standard orientation:
 ---------------------------------------------------------------------
 Center     Atomic      Atomic             Coordinates (Angstroms)
 Number     Number       Type             X           Y           Z
 ---------------------------------------------------------------------
      1          1           0        0.918964    1.027839    0.000000
      2          1           0        0.000000    1.884787    0.000000
      3          1           0        0.918964   -0.228685   -0.000000
      4          1           0        0.000000    0.628262    0.000000
      5          1           0       -0.918964    2.741734    0.000000
      6          1           0       -0.918964    1.485210    0.000000
      7          1           0       -0.918964    0.228685    0.000000
      8          1           0       -0.000000   -0.628262    0.000000
      9          1           0        0.918964   -1.485210    0.000000
     10          1           0        0.918964   -2.741734    0.000000
     11          1           0       -0.000000   -1.884787    0.000000
     12          1           0       -0.918964   -1.027839    0.000000
 ---------------------------------------------------------------------

 SCF Done:  E(RHF) =  -5.95954983808     A.U. after   14 cycles
 E2 =    -0.1105289793D+00 EUMP2 =    -0.60700788174231D+01

 The electronic state is 1-AG.
 Alpha  occ. eigenvalues --   -0.91336  -0.77615  -0.58449  -0.53517  -0.37029
 Alpha  occ. eigenvalues --   -0.31609
 Alpha virt. eigenvalues --    0.10205   0.23794   0.27541   0.29547   0.54359
 Alpha virt. eigenvalues --    0.56902

 Mulliken charges:
               1
     1  H   -0.091857
     2  H    0.068299
     3  H   -0.039867
     4  H   -0.025018
     5  H    0.015256
     6  H    0.073187
     7  H   -0.039867
     8  H   -0.025018
     9  H    0.073187
    10  H    0.015256
    11  H    0.068299
    12  H   -0.091857
 Sum of Mulliken charges =   0.00000

 Dipole moment (field-independent basis, Debye):
    X=              0.0000    Y=             -0.0000    Z=              0.0000  Tot=              0.0000
 Quadrupole moment (field-independent basis, Debye-Ang):
   XX=            -18.0784   YY=            -15.4081   ZZ=            -15.4560
   XY=             -2.1981   XZ=              0.0000   YZ=              0.0000

 Normal termination of Gaussian 09 at Fri Feb 17 14:57:04 2017.
