 Gaussian 09, Revision E.01,
 Gaussian 09:  ES64L-G09RevE.01 30-Nov-2015

 ----------------------------------------------------------------------
 #rhf/gen scf(symm,tight,novaracc,noincfock,fulldiag) stable(crhf) gues
 s=read geom=nocrowd test
 ----------------------------------------------------------------------

 ----------------------------------------------------------------------
 hf stability analysis of h12 triangular lattice, y= 2.5688804782633659
 ----------------------------------------------------------------------
 Symbolic Z-matrix:
 Charge =  0 Multiplicity = 1

                         Standard orientation:
 ---------------------------------------------------------------------
 Center     Atomic      Atomic             Coordinates (Angstroms)
 Number     Number       Type             X           Y           Z
 ---------------------------------------------------------------------
      1          1           0        0.447785    6.407557   -0.000000
      2          1           0        0.000000    3.868040    0.000000
      3          1           0        0.447785    3.828864   -0.000000
      4          1           0        0.000000    1.289347    0.000000
      5          1           0       -0.447785    1.328523    0.000000
      6          1           0       -0.447785   -1.250170    0.000000
      7          1           0       -0.447785   -3.828864    0.000000
      8          1           0       -0.000000   -1.289347    0.000000
      9          1           0        0.447785    1.250170   -0.000000
     10          1           0        0.447785   -1.328523    0.000000
     11          1           0       -0.000000   -3.868040    0.000000
     12          1           0       -0.447785   -6.407557    0.000000
 ---------------------------------------------------------------------

 SCF Done:  E(RHF) =  -4.10558802070     A.U. after   22 cycles
 E2 =    -0.7126369190D+00 EUMP2 =    -0.48182249397259D+01

 The electronic state is 1-AG.
 Alpha  occ. eigenvalues --   -1.04116  -1.04007  -0.74226  -0.74225  -0.21172
 Alpha  occ. eigenvalues --   -0.17320
 Alpha virt. eigenvalues --   -0.12349   0.00657   0.65848   0.65919   1.53047
 Alpha virt. eigenvalues --    1.62057

 Mulliken charges:
               1
     1  H   -0.162091
     2  H   -0.001719
     3  H   -0.000943
     4  H   -0.819612
     5  H    0.492883
     6  H    0.491483
     7  H   -0.000943
     8  H   -0.819612
     9  H    0.491483
    10  H    0.492883
    11  H   -0.001719
    12  H   -0.162091
 Sum of Mulliken charges =  -0.00000

 Dipole moment (field-independent basis, Debye):
    X=              0.0000    Y=             -0.0000    Z=             -0.0000  Tot=              0.0000
 Quadrupole moment (field-independent basis, Debye-Ang):
   XX=            -16.3240   YY=            -78.0215   ZZ=            -15.5888
   XY=             -4.6694   XZ=              0.0000   YZ=              0.0000

 Normal termination of Gaussian 09 at Mon Feb 13 17:29:22 2017.
