 Gaussian 09, Revision E.01,
 Gaussian 09:  ES64L-G09RevE.01 30-Nov-2015

 ----------------------------------------------------------------------
 #rhf/gen scf(symm,tight,novaracc,noincfock,fulldiag) stable(crhf) gues
 s=read geom=nocrowd test
 ----------------------------------------------------------------------

 ----------------------------------------------------------------------
 hf stability analysis of h12 triangular lattice, y= 1.1662555983306084
 ----------------------------------------------------------------------
 Symbolic Z-matrix:
 Charge =  0 Multiplicity = 1

                         Standard orientation:
 ---------------------------------------------------------------------
 Center     Atomic      Atomic             Coordinates (Angstroms)
 Number     Number       Type             X           Y           Z
 ---------------------------------------------------------------------
      1          1           0        0.911385    2.780575    0.000000
      2          1           0        0.000000    1.900461    0.000000
      3          1           0        0.911385    1.513601    0.000000
      4          1           0        0.000000    0.633487    0.000000
      5          1           0       -0.911385    1.020347    0.000000
      6          1           0       -0.911385   -0.246627    0.000000
      7          1           0       -0.911385   -1.513601    0.000000
      8          1           0       -0.000000   -0.633487    0.000000
      9          1           0        0.911385    0.246627    0.000000
     10          1           0        0.911385   -1.020347    0.000000
     11          1           0       -0.000000   -1.900461    0.000000
     12          1           0       -0.911385   -2.780575    0.000000
 ---------------------------------------------------------------------

 SCF Done:  E(RHF) =  -5.95544159464     A.U. after   12 cycles
 E2 =    -0.1104105040D+00 EUMP2 =    -0.60658520986200D+01

 The electronic state is 1-AG.
 Alpha  occ. eigenvalues --   -0.90737  -0.77416  -0.58600  -0.52645  -0.37463
 Alpha  occ. eigenvalues --   -0.30898
 Alpha virt. eigenvalues --    0.09239   0.22928   0.29073   0.29156   0.54247
 Alpha virt. eigenvalues --    0.58741

 Mulliken charges:
               1
     1  H    0.029711
     2  H    0.066526
     3  H    0.073962
     4  H   -0.026187
     5  H   -0.096012
     6  H   -0.048001
     7  H    0.073962
     8  H   -0.026187
     9  H   -0.048001
    10  H   -0.096012
    11  H    0.066526
    12  H    0.029711
 Sum of Mulliken charges =  -0.00000

 Dipole moment (field-independent basis, Debye):
    X=             -0.0000    Y=             -0.0000    Z=              0.0000  Tot=              0.0000
 Quadrupole moment (field-independent basis, Debye-Ang):
   XX=            -18.1114   YY=            -14.1882   ZZ=            -15.4649
   XY=              2.6197   XZ=             -0.0000   YZ=             -0.0000

 Normal termination of Gaussian 09 at Fri Feb 17 15:06:14 2017.
