 Gaussian 09, Revision E.01,
 Gaussian 09:  ES64L-G09RevE.01 30-Nov-2015

 ----------------------------------------------------------------------
 #rhf/gen scf(symm,tight,novaracc,noincfock,fulldiag) stable(crhf) gues
 s=read geom=nocrowd test
 ----------------------------------------------------------------------

 hf stability analysis of h12 triangular lattice, y= 0.4920397018298700
 0
 ----------------------------------------------------------------------
 Symbolic Z-matrix:
 Charge =  0 Multiplicity = 1

                         Standard orientation:
 ---------------------------------------------------------------------
 Center     Atomic      Atomic             Coordinates (Angstroms)
 Number     Number       Type             X           Y           Z
 ---------------------------------------------------------------------
      1          1           0        0.907519    1.016740   -0.000000
      2          1           0        0.000000    1.908556    0.000000
      3          1           0        0.907519   -0.255631   -0.000000
      4          1           0        0.000000    0.636185    0.000000
      5          1           0       -0.907519    2.800372    0.000000
      6          1           0       -0.907519    1.528002    0.000000
      7          1           0       -0.907519    0.255631   -0.000000
      8          1           0       -0.000000   -0.636185    0.000000
      9          1           0        0.907519   -1.528002    0.000000
     10          1           0        0.907519   -2.800372    0.000000
     11          1           0       -0.000000   -1.908556    0.000000
     12          1           0       -0.907519   -1.016740   -0.000000
 ---------------------------------------------------------------------

 SCF Done:  E(RHF) =  -5.95291898607     A.U. after   14 cycles
 E2 =    -0.1103548151D+00 EUMP2 =    -0.60632738011684D+01

 The electronic state is 1-AG.
 Alpha  occ. eigenvalues --   -0.90428  -0.77311  -0.58673  -0.52201  -0.37674
 Alpha  occ. eigenvalues --   -0.30532
 Alpha virt. eigenvalues --    0.08753   0.22347   0.28989   0.29977   0.54210
 Alpha virt. eigenvalues --    0.59688

 Mulliken charges:
               1
     1  H   -0.098152
     2  H    0.065585
     3  H   -0.052114
     4  H   -0.026771
     5  H    0.037064
     6  H    0.074388
     7  H   -0.052114
     8  H   -0.026771
     9  H    0.074388
    10  H    0.037064
    11  H    0.065585
    12  H   -0.098152
 Sum of Mulliken charges =  -0.00000

 Dipole moment (field-independent basis, Debye):
    X=             -0.0000    Y=             -0.0000    Z=              0.0000  Tot=              0.0000
 Quadrupole moment (field-independent basis, Debye-Ang):
   XX=            -18.1281   YY=            -13.5452   ZZ=            -15.4692
   XY=             -2.8346   XZ=             -0.0000   YZ=             -0.0000

 Normal termination of Gaussian 09 at Fri Feb 17 14:56:54 2017.
