 Gaussian 09, Revision E.01,
 Gaussian 09:  ES64L-G09RevE.01 30-Nov-2015

 ----------------------------------------------------------------------
 #rhf/gen scf(symm,tight,novaracc,noincfock,fulldiag) stable(crhf) gues
 s=read geom=nocrowd test
 ----------------------------------------------------------------------

 hf stability analysis of h12 triangular lattice, y= 0.4829747999860826
 7
 ----------------------------------------------------------------------
 Symbolic Z-matrix:
 Charge =  0 Multiplicity = 1

                         Standard orientation:
 ---------------------------------------------------------------------
 Center     Atomic      Atomic             Coordinates (Angstroms)
 Number     Number       Type             X           Y           Z
 ---------------------------------------------------------------------
      1          1           0        0.895613    1.006494    0.000000
      2          1           0        0.000000    1.933928    0.000000
      3          1           0        0.895613   -0.282792    0.000000
      4          1           0        0.000000    0.644643    0.000000
      5          1           0       -0.895613    2.861362   -0.000000
      6          1           0       -0.895613    1.572077   -0.000000
      7          1           0       -0.895613    0.282792    0.000000
      8          1           0       -0.000000   -0.644643    0.000000
      9          1           0        0.895613   -1.572077   -0.000000
     10          1           0        0.895613   -2.861362   -0.000000
     11          1           0       -0.000000   -1.933928    0.000000
     12          1           0       -0.895613   -1.006494    0.000000
 ---------------------------------------------------------------------

 SCF Done:  E(RHF) =  -5.40615652529     A.U. after   15 cycles
 E2 =    -0.3836570681D+00 EUMP2 =    -0.57898135933500D+01

 The electronic state is 1-AG.
 Alpha  occ. eigenvalues --   -0.95743  -0.77309  -0.56081  -0.55311  -0.31595
 Alpha  occ. eigenvalues --   -0.09288
 Alpha virt. eigenvalues --   -0.18755   0.14659   0.26244   0.28450   0.51271
 Alpha virt. eigenvalues --    0.55005

 Mulliken charges:
               1
     1  H   -0.118542
     2  H    0.050997
     3  H    0.087825
     4  H    0.113658
     5  H   -0.035914
     6  H   -0.098025
     7  H    0.087825
     8  H    0.113658
     9  H   -0.098025
    10  H   -0.035914
    11  H    0.050997
    12  H   -0.118542
 Sum of Mulliken charges =  -0.00000

 Dipole moment (field-independent basis, Debye):
    X=             -0.0000    Y=              0.0000    Z=              0.0000  Tot=              0.0000
 Quadrupole moment (field-independent basis, Debye-Ang):
   XX=            -19.1671   YY=            -23.3750   ZZ=            -15.0869
   XY=              1.1707   XZ=             -0.0000   YZ=              0.0000

 Normal termination of Gaussian 09 at Fri Feb 17 11:35:27 2017.
