 Gaussian 09, Revision E.01,
 Gaussian 09:  ES64L-G09RevE.01 30-Nov-2015

 ----------------------------------------------------------------------
 #rhf/gen scf(symm,tight,novaracc,noincfock,fulldiag) stable(crhf) gues
 s=read geom=nocrowd test
 ----------------------------------------------------------------------

 ----------------------------------------------------------------------
 hf stability analysis of h12 triangular lattice, y= 2.3437412473608381
 ----------------------------------------------------------------------
 Symbolic Z-matrix:
 Charge =  0 Multiplicity = 1

                         Standard orientation:
 ---------------------------------------------------------------------
 Center     Atomic      Atomic             Coordinates (Angstroms)
 Number     Number       Type             X           Y           Z
 ---------------------------------------------------------------------
      1          1           0        0.489975    5.840130   -0.000000
      2          1           0        0.000000    3.534977    0.000000
      3          1           0        0.489975    3.483478   -0.000000
      4          1           0        0.000000    1.178326    0.000000
      5          1           0       -0.489975    1.229824    0.000000
      6          1           0       -0.489975   -1.126827    0.000000
      7          1           0       -0.489975   -3.483478    0.000000
      8          1           0       -0.000000   -1.178326    0.000000
      9          1           0        0.489975    1.126827    0.000000
     10          1           0        0.489975   -1.229824    0.000000
     11          1           0       -0.000000   -3.534977    0.000000
     12          1           0       -0.489975   -5.840130    0.000000
 ---------------------------------------------------------------------

 SCF Done:  E(RHF) =  -4.46485412750     A.U. after   10 cycles
 E2 =    -0.1093444603D+01 EUMP2 =    -0.55582987301221D+01

 The electronic state is 1-AG.
 Alpha  occ. eigenvalues --   -0.91352  -0.91260  -0.71506  -0.71494  -0.20457
 Alpha  occ. eigenvalues --   -0.13704
 Alpha virt. eigenvalues --   -0.15939   0.00430   0.62453   0.62553   1.44440
 Alpha virt. eigenvalues --    1.54286

 Mulliken charges:
               1
     1  H    0.001225
     2  H   -0.002256
     3  H   -0.004251
     4  H   -0.596230
     5  H    0.300695
     6  H    0.300817
     7  H   -0.004251
     8  H   -0.596230
     9  H    0.300817
    10  H    0.300695
    11  H   -0.002256
    12  H    0.001225
 Sum of Mulliken charges =  -0.00000

 Dipole moment (field-independent basis, Debye):
    X=             -0.0000    Y=             -0.0000    Z=              0.0000  Tot=              0.0000
 Quadrupole moment (field-independent basis, Debye-Ang):
   XX=            -15.8560   YY=            -18.4124   ZZ=            -15.2372
   XY=              0.0134   XZ=             -0.0000   YZ=              0.0000

 Normal termination of Gaussian 09 at Fri Feb 17 11:37:59 2017.
