 Gaussian 09, Revision E.01,
 Gaussian 09:  ES64L-G09RevE.01 30-Nov-2015

 ----------------------------------------------------------------------
 #rhf/gen scf(symm,tight,novaracc,noincfock,fulldiag) stable(crhf) gues
 s=read geom=nocrowd test
 ----------------------------------------------------------------------

 hf stability analysis of h10 triangular lattice, y= 0.8683163399550856
 1
 ----------------------------------------------------------------------
 Symbolic Z-matrix:
 Charge =  0 Multiplicity = 1

                         Standard orientation:
 ---------------------------------------------------------------------
 Center     Atomic      Atomic             Coordinates (Angstroms)
 Number     Number       Type             X           Y           Z
 ---------------------------------------------------------------------
      1          1           0        2.111641    1.117155    0.000000
      2          1           0        2.111641    0.023503    0.000000
      3          1           0        1.055820    0.831991    0.000000
      4          1           0        1.055820   -0.261662    0.000000
      5          1           0        0.000000    0.546826    0.000000
      6          1           0       -0.000000   -0.546826    0.000000
      7          1           0       -1.055820    0.261662   -0.000000
      8          1           0       -1.055820   -0.831991   -0.000000
      9          1           0       -2.111641   -0.023503   -0.000000
     10          1           0       -2.111641   -1.117155   -0.000000
 ---------------------------------------------------------------------

 SCF Done:  E(RHF) =  -4.85362610642     A.U. after    2 cycles
 E2 =    -0.1071501391D+00 EUMP2 =    -0.49607762454937D+01

 The electronic state is 1-AG.
 Alpha  occ. eigenvalues --   -0.86956  -0.74048  -0.52941  -0.45008  -0.29387
 Alpha virt. eigenvalues --   -0.03168   0.17596   0.32512   0.53213   0.80092

 Mulliken charges:
               1
     1  H    0.116973
     2  H   -0.042155
     3  H   -0.026863
     4  H   -0.039983
     5  H   -0.007971
     6  H   -0.007971
     7  H   -0.039983
     8  H   -0.026863
     9  H   -0.042155
    10  H    0.116973
 Sum of Mulliken charges =  -0.00000

 Dipole moment (field-independent basis, Debye):
    X=              0.0000    Y=             -0.0000    Z=             -0.0000  Tot=              0.0000
 Quadrupole moment (field-independent basis, Debye-Ang):
   XX=            -10.6285   YY=            -15.9459   ZZ=            -12.9653
   XY=              3.7744   XZ=              0.0000   YZ=              0.0000

 Normal termination of Gaussian 09 at Tue Feb 21 09:43:09 2017.
