 Gaussian 09, Revision E.01,
 Gaussian 09:  ES64L-G09RevE.01 30-Nov-2015

 ----------------------------------------------------------------------
 #rhf/gen scf(symm,tight,novaracc,noincfock,fulldiag) stable(crhf) gues
 s=read geom=nocrowd test
 ----------------------------------------------------------------------

 ----------------------------------------------------------------------
 hf stability analysis of h10 triangular lattice, y= 1.2876041009716590
 ----------------------------------------------------------------------
 Symbolic Z-matrix:
 Charge =  0 Multiplicity = 1

                         Standard orientation:
 ---------------------------------------------------------------------
 Center     Atomic      Atomic             Coordinates (Angstroms)
 Number     Number       Type             X           Y           Z
 ---------------------------------------------------------------------
      1          1           0        1.693800    2.818766   -0.000000
      2          1           0        1.693800    1.455322   -0.000000
      3          1           0        0.846900    1.750244   -0.000000
      4          1           0        0.846900    0.386800   -0.000000
      5          1           0       -0.000000    0.681722   -0.000000
      6          1           0       -0.000000   -0.681722   -0.000000
      7          1           0       -0.846900   -0.386800   -0.000000
      8          1           0       -0.846900   -1.750244   -0.000000
      9          1           0       -1.693800   -1.455322   -0.000000
     10          1           0       -1.693800   -2.818766   -0.000000
 ---------------------------------------------------------------------

 SCF Done:  E(RHF) =  -4.72215191358     A.U. after    7 cycles
 E2 =    -0.1894413983D+00 EUMP2 =    -0.49115933119074D+01

 The electronic state is 1-AG.
 Alpha  occ. eigenvalues --   -0.83736  -0.74092  -0.59355  -0.40702  -0.11076
 Alpha virt. eigenvalues --    0.01566   0.09137   0.19381   0.38192   0.54828

 Mulliken charges:
               1
     1  H   -0.257549
     2  H    0.047236
     3  H    0.135075
     4  H    0.032100
     5  H    0.043138
     6  H    0.043138
     7  H    0.032100
     8  H    0.135075
     9  H    0.047236
    10  H   -0.257549
 Sum of Mulliken charges =   0.00000

 Dipole moment (field-independent basis, Debye):
    X=              0.0000    Y=              0.0000    Z=              0.0000  Tot=              0.0000
 Quadrupole moment (field-independent basis, Debye-Ang):
   XX=            -17.9107   YY=            -31.3926   ZZ=            -12.7878
   XY=            -11.9539   XZ=             -0.0000   YZ=             -0.0000

 Normal termination of Gaussian 09 at Mon Feb 20 16:41:01 2017.
