 Gaussian 09, Revision E.01,
 Gaussian 09:  ES64L-G09RevE.01 30-Nov-2015

 ----------------------------------------------------------------------
 #rhf/gen scf(symm,tight,novaracc,noincfock,fulldiag) stable(crhf) gues
 s=read geom=nocrowd test
 ----------------------------------------------------------------------

 hf stability analysis of h10 triangular lattice, y= 0.8683265437530619
 5
 ----------------------------------------------------------------------
 Symbolic Z-matrix:
 Charge =  0 Multiplicity = 1

                         Standard orientation:
 ---------------------------------------------------------------------
 Center     Atomic      Atomic             Coordinates (Angstroms)
 Number     Number       Type             X           Y           Z
 ---------------------------------------------------------------------
      1          1           0        2.111634    1.117207    0.000000
      2          1           0        2.111634    0.023551    0.000000
      3          1           0        1.055817    0.832017    0.000000
      4          1           0        1.055817   -0.261639   -0.000000
      5          1           0        0.000000    0.546828    0.000000
      6          1           0       -0.000000   -0.546828    0.000000
      7          1           0       -1.055817    0.261639   -0.000000
      8          1           0       -1.055817   -0.832017    0.000000
      9          1           0       -2.111634   -0.023551    0.000000
     10          1           0       -2.111634   -1.117207    0.000000
 ---------------------------------------------------------------------

 SCF Done:  E(RHF) =  -4.85362017345     A.U. after    2 cycles
 E2 =    -0.1071505476D+00 EUMP2 =    -0.49607707210006D+01

 The electronic state is 1-AG.
 Alpha  occ. eigenvalues --   -0.86956  -0.74048  -0.52941  -0.45007  -0.29387
 Alpha virt. eigenvalues --   -0.03168   0.17596   0.32511   0.53214   0.80091

 Mulliken charges:
               1
     1  H    0.116978
     2  H   -0.042162
     3  H   -0.026862
     4  H   -0.039984
     5  H   -0.007970
     6  H   -0.007970
     7  H   -0.039984
     8  H   -0.026862
     9  H   -0.042162
    10  H    0.116978
 Sum of Mulliken charges =  -0.00000

 Dipole moment (field-independent basis, Debye):
    X=              0.0000    Y=             -0.0000    Z=              0.0000  Tot=              0.0000
 Quadrupole moment (field-independent basis, Debye-Ang):
   XX=            -10.6286   YY=            -15.9456   ZZ=            -12.9653
   XY=              3.7747   XZ=              0.0000   YZ=              0.0000

 Normal termination of Gaussian 09 at Tue Feb 21 09:45:35 2017.
