 Gaussian 09, Revision E.01,
 Gaussian 09:  ES64L-G09RevE.01 30-Nov-2015

 ----------------------------------------------------------------------
 #rhf/gen scf(symm,tight,novaracc,noincfock,fulldiag) stable(crhf) gues
 s=read geom=nocrowd test
 ----------------------------------------------------------------------

 hf stability analysis of h10 triangular lattice, y= 0.8674200594573238
 1
 ----------------------------------------------------------------------
 Symbolic Z-matrix:
 Charge =  0 Multiplicity = 1

                         Standard orientation:
 ---------------------------------------------------------------------
 Center     Atomic      Atomic             Coordinates (Angstroms)
 Number     Number       Type             X           Y           Z
 ---------------------------------------------------------------------
      1          1           0        2.112207    1.112644   -0.000000
      2          1           0        2.112207    0.019285   -0.000000
      3          1           0        1.056104    0.829662   -0.000000
      4          1           0        1.056104   -0.263697   -0.000000
      5          1           0        0.000000    0.546680    0.000000
      6          1           0       -0.000000   -0.546680    0.000000
      7          1           0       -1.056104    0.263697   -0.000000
      8          1           0       -1.056104   -0.829662   -0.000000
      9          1           0       -2.112207   -0.019285   -0.000000
     10          1           0       -2.112207   -1.112644   -0.000000
 ---------------------------------------------------------------------

 SCF Done:  E(RHF) =  -4.85414534171     A.U. after    6 cycles
 E2 =    -0.1071144161D+00 EUMP2 =    -0.49612597578325D+01

 The electronic state is 1-AG.
 Alpha  occ. eigenvalues --   -0.86968  -0.74055  -0.52936  -0.45036  -0.29415
 Alpha virt. eigenvalues --   -0.03143   0.17565   0.32570   0.53190   0.80235

 Mulliken charges:
               1
     1  H    0.116474
     2  H   -0.041551
     3  H   -0.026980
     4  H   -0.039858
     5  H   -0.008085
     6  H   -0.008085
     7  H   -0.039858
     8  H   -0.026980
     9  H   -0.041551
    10  H    0.116474
 Sum of Mulliken charges =  -0.00000

 Dipole moment (field-independent basis, Debye):
    X=             -0.0000    Y=              0.0000    Z=             -0.0000  Tot=              0.0000
 Quadrupole moment (field-independent basis, Debye-Ang):
   XX=            -10.6194   YY=            -15.9679   ZZ=            -12.9651
   XY=              3.7480   XZ=             -0.0000   YZ=             -0.0000

 Normal termination of Gaussian 09 at Mon Feb 20 16:15:13 2017.
