 Gaussian 09, Revision E.01,
 Gaussian 09:  ES64L-G09RevE.01 30-Nov-2015

 ----------------------------------------------------------------------
 #rhf/gen scf(symm,tight,novaracc,noincfock,fulldiag) stable(crhf) gues
 s=read geom=nocrowd test
 ----------------------------------------------------------------------

 hf stability analysis of h10 triangular lattice, y= 0.4509070092210429
 3
 ----------------------------------------------------------------------
 Symbolic Z-matrix:
 Charge =  0 Multiplicity = 1

                         Standard orientation:
 ---------------------------------------------------------------------
 Center     Atomic      Atomic             Coordinates (Angstroms)
 Number     Number       Type             X           Y           Z
 ---------------------------------------------------------------------
      1          1           0        1.701223   -1.437147   -0.000000
      2          1           0        1.701223   -2.794642   -0.000000
      3          1           0        0.850611   -0.379200   -0.000000
      4          1           0        0.850611   -1.736695   -0.000000
      5          1           0        0.000000    0.678747    0.000000
      6          1           0       -0.000000   -0.678747    0.000000
      7          1           0       -0.850611    1.736695   -0.000000
      8          1           0       -0.850611    0.379200   -0.000000
      9          1           0       -1.701223    2.794642   -0.000000
     10          1           0       -1.701223    1.437147   -0.000000
 ---------------------------------------------------------------------

 SCF Done:  E(RHF) =  -4.71569856871     A.U. after    7 cycles
 E2 =    -0.1831317862D+00 EUMP2 =    -0.48988303549122D+01

 The electronic state is 1-AG.
 Alpha  occ. eigenvalues --   -0.83882  -0.74162  -0.59261  -0.40393  -0.11100
 Alpha virt. eigenvalues --    0.01354   0.09461   0.19076   0.37966   0.54625

 Mulliken charges:
               1
     1  H    0.046185
     2  H   -0.259240
     3  H    0.030500
     4  H    0.139133
     5  H    0.043421
     6  H    0.043421
     7  H    0.139133
     8  H    0.030500
     9  H   -0.259240
    10  H    0.046185
 Sum of Mulliken charges =  -0.00000

 Dipole moment (field-independent basis, Debye):
    X=             -0.0000    Y=             -0.0000    Z=              0.0000  Tot=              0.0000
 Quadrupole moment (field-independent basis, Debye-Ang):
   XX=            -18.0671   YY=            -31.1310   ZZ=            -12.7873
   XY=             11.9405   XZ=              0.0000   YZ=             -0.0000

 Normal termination of Gaussian 09 at Mon Feb 20 15:44:56 2017.
