 Gaussian 09, Revision E.01,
 Gaussian 09:  ES64L-G09RevE.01 30-Nov-2015

 ----------------------------------------------------------------------
 #rhf/gen scf(symm,tight,novaracc,noincfock,fulldiag) stable(crhf) gues
 s=read geom=nocrowd test
 ----------------------------------------------------------------------

 hf stability analysis of h10 triangular lattice, y= 0.6667980048883402
 9
 ----------------------------------------------------------------------
 Symbolic Z-matrix:
 Charge =  0 Multiplicity = 1

                         Standard orientation:
 ---------------------------------------------------------------------
 Center     Atomic      Atomic             Coordinates (Angstroms)
 Number     Number       Type             X           Y           Z
 ---------------------------------------------------------------------
      1          1           0        2.113189   -0.011903    0.000000
      2          1           0        2.113189   -1.104754    0.000000
      3          1           0        1.056594    0.267261    0.000000
      4          1           0        1.056594   -0.825590    0.000000
      5          1           0       -0.000000    0.546426    0.000000
      6          1           0       -0.000000   -0.546426    0.000000
      7          1           0       -1.056594    0.825590    0.000000
      8          1           0       -1.056594   -0.267261    0.000000
      9          1           0       -2.113189    1.104754    0.000000
     10          1           0       -2.113189    0.011903    0.000000
 ---------------------------------------------------------------------

 SCF Done:  E(RHF) =  -4.85504303560     A.U. after    6 cycles
 E2 =    -0.1070527716D+00 EUMP2 =    -0.49620958071875D+01

 The electronic state is 1-AG.
 Alpha  occ. eigenvalues --   -0.86989  -0.74068  -0.52929  -0.45085  -0.29462
 Alpha virt. eigenvalues --   -0.03100   0.17511   0.32670   0.53150   0.80483

 Mulliken charges:
               1
     1  H   -0.040492
     2  H    0.115596
     3  H   -0.039643
     4  H   -0.027181
     5  H   -0.008280
     6  H   -0.008280
     7  H   -0.027181
     8  H   -0.039643
     9  H    0.115596
    10  H   -0.040492
 Sum of Mulliken charges =  -0.00000

 Dipole moment (field-independent basis, Debye):
    X=             -0.0000    Y=             -0.0000    Z=              0.0000  Tot=              0.0000
 Quadrupole moment (field-independent basis, Debye-Ang):
   XX=            -10.6038   YY=            -16.0060   ZZ=            -12.9649
   XY=             -3.7016   XZ=              0.0000   YZ=              0.0000

 Normal termination of Gaussian 09 at Mon Feb 20 16:06:29 2017.
