 Gaussian 09, Revision E.01,
 Gaussian 09:  ES64L-G09RevE.01 30-Nov-2015

 ----------------------------------------------------------------------
 #rhf/gen scf(symm,tight,novaracc,noincfock,fulldiag) stable(crhf) gues
 s=read geom=nocrowd test
 ----------------------------------------------------------------------

 hf stability analysis of h10 triangular lattice, y= 0.8683238750498194
 5
 ----------------------------------------------------------------------
 Symbolic Z-matrix:
 Charge =  0 Multiplicity = 1

                         Standard orientation:
 ---------------------------------------------------------------------
 Center     Atomic      Atomic             Coordinates (Angstroms)
 Number     Number       Type             X           Y           Z
 ---------------------------------------------------------------------
      1          1           0        2.111636    1.117193    0.000000
      2          1           0        2.111636    0.023538    0.000000
      3          1           0        1.055818    0.832010    0.000000
      4          1           0        1.055818   -0.261645    0.000000
      5          1           0        0.000000    0.546827    0.000000
      6          1           0       -0.000000   -0.546827    0.000000
      7          1           0       -1.055818    0.261645    0.000000
      8          1           0       -1.055818   -0.832010    0.000000
      9          1           0       -2.111636   -0.023538    0.000000
     10          1           0       -2.111636   -1.117193    0.000000
 ---------------------------------------------------------------------

 SCF Done:  E(RHF) =  -4.85362172520     A.U. after    2 cycles
 E2 =    -0.1071504407D+00 EUMP2 =    -0.49607721659208D+01

 The electronic state is 1-AG.
 Alpha  occ. eigenvalues --   -0.86956  -0.74048  -0.52941  -0.45008  -0.29387
 Alpha virt. eigenvalues --   -0.03168   0.17596   0.32511   0.53213   0.80091

 Mulliken charges:
               1
     1  H    0.116977
     2  H   -0.042160
     3  H   -0.026862
     4  H   -0.039984
     5  H   -0.007970
     6  H   -0.007970
     7  H   -0.039984
     8  H   -0.026862
     9  H   -0.042160
    10  H    0.116977
 Sum of Mulliken charges =  -0.00000

 Dipole moment (field-independent basis, Debye):
    X=             -0.0000    Y=             -0.0000    Z=              0.0000  Tot=              0.0000
 Quadrupole moment (field-independent basis, Debye-Ang):
   XX=            -10.6286   YY=            -15.9457   ZZ=            -12.9653
   XY=              3.7746   XZ=              0.0000   YZ=              0.0000

 Normal termination of Gaussian 09 at Tue Feb 21 09:44:57 2017.
