 Gaussian 09, Revision E.01,
 Gaussian 09:  ES64L-G09RevE.01 30-Nov-2015

 ----------------------------------------------------------------------
 #rhf/gen scf(symm,tight,novaracc,noincfock,fulldiag) stable(crhf) gues
 s=read geom=nocrowd test
 ----------------------------------------------------------------------

 hf stability analysis of h10 triangular lattice, y= 0.6643926763610613
 6
 ----------------------------------------------------------------------
 Symbolic Z-matrix:
 Charge =  0 Multiplicity = 1

                         Standard orientation:
 ---------------------------------------------------------------------
 Center     Atomic      Atomic             Coordinates (Angstroms)
 Number     Number       Type             X           Y           Z
 ---------------------------------------------------------------------
      1          1           0        2.111213   -0.026667    0.000000
      2          1           0        2.111213   -1.120541    0.000000
      3          1           0        1.055606    0.260135    0.000000
      4          1           0        1.055606   -0.833739    0.000000
      5          1           0        0.000000    0.546937   -0.000000
      6          1           0       -0.000000   -0.546937    0.000000
      7          1           0       -1.055606    0.833739    0.000000
      8          1           0       -1.055606   -0.260135    0.000000
      9          1           0       -2.111213    1.120541    0.000000
     10          1           0       -2.111213    0.026667    0.000000
 ---------------------------------------------------------------------

 SCF Done:  E(RHF) =  -4.85323361209     A.U. after    6 cycles
 E2 =    -0.1071771744D+00 EUMP2 =    -0.49604107864862D+01

 The electronic state is 1-AG.
 Alpha  occ. eigenvalues --   -0.86947  -0.74042  -0.52944  -0.44987  -0.29367
 Alpha virt. eigenvalues --   -0.03187   0.17619   0.32468   0.53231   0.79985

 Mulliken charges:
               1
     1  H   -0.042608
     2  H    0.117346
     3  H   -0.040078
     4  H   -0.026775
     5  H   -0.007885
     6  H   -0.007885
     7  H   -0.026775
     8  H   -0.040078
     9  H    0.117346
    10  H   -0.042608
 Sum of Mulliken charges =   0.00000

 Dipole moment (field-independent basis, Debye):
    X=              0.0000    Y=             -0.0000    Z=              0.0000  Tot=              0.0000
 Quadrupole moment (field-independent basis, Debye-Ang):
   XX=            -10.6354   YY=            -15.9293   ZZ=            -12.9654
   XY=             -3.7942   XZ=             -0.0000   YZ=              0.0000

 Normal termination of Gaussian 09 at Mon Feb 20 15:58:08 2017.
