 Gaussian 09, Revision E.01,
 Gaussian 09:  ES64L-G09RevE.01 30-Nov-2015

 ----------------------------------------------------------------------
 #rhf/gen scf(symm,tight,novaracc,noincfock,fulldiag) stable(crhf) gues
 s=read geom=nocrowd test
 ----------------------------------------------------------------------

 hf stability analysis of h10 triangular lattice, y= 0.8721415768685929
 5
 ----------------------------------------------------------------------
 Symbolic Z-matrix:
 Charge =  0 Multiplicity = 1

                         Standard orientation:
 ---------------------------------------------------------------------
 Center     Atomic      Atomic             Coordinates (Angstroms)
 Number     Number       Type             X           Y           Z
 ---------------------------------------------------------------------
      1          1           0        2.109184    1.136358    0.000000
      2          1           0        2.109184    0.041432    0.000000
      3          1           0        1.054592    0.841911    0.000000
      4          1           0        1.054592   -0.253016    0.000000
      5          1           0        0.000000    0.547463    0.000000
      6          1           0       -0.000000   -0.547463    0.000000
      7          1           0       -1.054592    0.253016    0.000000
      8          1           0       -1.054592   -0.841911    0.000000
      9          1           0       -2.109184   -0.041432    0.000000
     10          1           0       -2.109184   -1.136358    0.000000
 ---------------------------------------------------------------------

 SCF Done:  E(RHF) =  -4.85136784917     A.U. after    6 cycles
 E2 =    -0.1073060959D+00 EUMP2 =    -0.49586739450327D+01

 The electronic state is 1-AG.
 Alpha  occ. eigenvalues --   -0.86904  -0.74017  -0.52958  -0.44886  -0.29270
 Alpha virt. eigenvalues --   -0.03275   0.17728   0.32263   0.53312   0.79477

 Mulliken charges:
               1
     1  H    0.119071
     2  H   -0.044715
     3  H   -0.026348
     4  H   -0.040538
     5  H   -0.007469
     6  H   -0.007469
     7  H   -0.040538
     8  H   -0.026348
     9  H   -0.044715
    10  H    0.119071
 Sum of Mulliken charges =   0.00000

 Dipole moment (field-independent basis, Debye):
    X=             -0.0000    Y=             -0.0000    Z=              0.0000  Tot=              0.0000
 Quadrupole moment (field-independent basis, Debye-Ang):
   XX=            -10.6680   YY=            -15.8506   ZZ=            -12.9660
   XY=              3.8860   XZ=             -0.0000   YZ=              0.0000

 Normal termination of Gaussian 09 at Mon Feb 20 16:27:38 2017.
