 Gaussian 09, Revision E.01,
 Gaussian 09:  ES64L-G09RevE.01 30-Nov-2015

 ----------------------------------------------------------------------
 #rhf/gen scf(symm,tight,novaracc,noincfock,fulldiag) stable(crhf) gues
 s=read geom=nocrowd test
 ----------------------------------------------------------------------

 hf stability analysis of h10 triangular lattice, y= 0.8705633810941086
 9
 ----------------------------------------------------------------------
 Symbolic Z-matrix:
 Charge =  0 Multiplicity = 1

                         Standard orientation:
 ---------------------------------------------------------------------
 Center     Atomic      Atomic             Coordinates (Angstroms)
 Number     Number       Type             X           Y           Z
 ---------------------------------------------------------------------
      1          1           0        2.110205    1.128446    0.000000
      2          1           0        2.110205    0.034049    0.000000
      3          1           0        1.055103    0.837822    0.000000
      4          1           0        1.055103   -0.256575    0.000000
      5          1           0        0.000000    0.547198    0.000000
      6          1           0       -0.000000   -0.547198    0.000000
      7          1           0       -1.055103    0.256575    0.000000
      8          1           0       -1.055103   -0.837822    0.000000
      9          1           0       -2.110205   -0.034049    0.000000
     10          1           0       -2.110205   -1.128446    0.000000
 ---------------------------------------------------------------------

 SCF Done:  E(RHF) =  -4.85230781689     A.U. after    6 cycles
 E2 =    -0.1072410642D+00 EUMP2 =    -0.49595488810957D+01

 The electronic state is 1-AG.
 Alpha  occ. eigenvalues --   -0.86925  -0.74030  -0.52951  -0.44936  -0.29319
 Alpha virt. eigenvalues --   -0.03231   0.17673   0.32366   0.53271   0.79732

 Mulliken charges:
               1
     1  H    0.118212
     2  H   -0.043663
     3  H   -0.026564
     4  H   -0.040305
     5  H   -0.007680
     6  H   -0.007680
     7  H   -0.040305
     8  H   -0.026564
     9  H   -0.043663
    10  H    0.118212
 Sum of Mulliken charges =  -0.00000

 Dipole moment (field-independent basis, Debye):
    X=             -0.0000    Y=              0.0000    Z=              0.0000  Tot=              0.0000
 Quadrupole moment (field-independent basis, Debye-Ang):
   XX=            -10.6515   YY=            -15.8902   ZZ=            -12.9657
   XY=              3.8402   XZ=              0.0000   YZ=              0.0000

 Normal termination of Gaussian 09 at Mon Feb 20 16:23:30 2017.
