 Gaussian 09, Revision E.01,
 Gaussian 09:  ES64L-G09RevE.01 30-Nov-2015

 ----------------------------------------------------------------------
 #rhf/gen scf(symm,tight,novaracc,noincfock,fulldiag) stable(crhf) gues
 s=read geom=nocrowd test
 ----------------------------------------------------------------------

 hf stability analysis of h10 triangular lattice, y= 0.4496500805017584
 8
 ----------------------------------------------------------------------
 Symbolic Z-matrix:
 Charge =  0 Multiplicity = 1

                         Standard orientation:
 ---------------------------------------------------------------------
 Center     Atomic      Atomic             Coordinates (Angstroms)
 Number     Number       Type             X           Y           Z
 ---------------------------------------------------------------------
      1          1           0        1.697521   -1.446220    0.000000
      2          1           0        1.697521   -2.806675    0.000000
      3          1           0        0.848760   -0.382996    0.000000
      4          1           0        0.848760   -1.743451    0.000000
      5          1           0        0.000000    0.680228    0.000000
      6          1           0       -0.000000   -0.680228    0.000000
      7          1           0       -0.848760    1.743451   -0.000000
      8          1           0       -0.848760    0.382996   -0.000000
      9          1           0       -1.697521    2.806675   -0.000000
     10          1           0       -1.697521    1.446220   -0.000000
 ---------------------------------------------------------------------

 SCF Done:  E(RHF) =  -4.71890147014     A.U. after    7 cycles
 E2 =    -0.1862379350D+00 EUMP2 =    -0.49051394051702D+01

 The electronic state is 1-AG.
 Alpha  occ. eigenvalues --   -0.83811  -0.74128  -0.59309  -0.40547  -0.11085
 Alpha virt. eigenvalues --    0.01467   0.09289   0.19227   0.38077   0.54725

 Mulliken charges:
               1
     1  H    0.046736
     2  H   -0.258485
     3  H    0.031356
     4  H    0.137121
     5  H    0.043273
     6  H    0.043273
     7  H    0.137121
     8  H    0.031356
     9  H   -0.258485
    10  H    0.046736
 Sum of Mulliken charges =  -0.00000

 Dipole moment (field-independent basis, Debye):
    X=             -0.0000    Y=              0.0000    Z=              0.0000  Tot=              0.0000
 Quadrupole moment (field-independent basis, Debye-Ang):
   XX=            -17.9899   YY=            -31.2675   ZZ=            -12.7875
   XY=             11.9514   XZ=             -0.0000   YZ=              0.0000

 Normal termination of Gaussian 09 at Mon Feb 20 15:40:50 2017.
