 Gaussian 09, Revision E.01,
 Gaussian 09:  ES64L-G09RevE.01 30-Nov-2015

 ----------------------------------------------------------------------
 #rhf/gen scf(symm,tight,novaracc,noincfock,fulldiag) stable(crhf) gues
 s=read geom=nocrowd test
 ----------------------------------------------------------------------

 hf stability analysis of h10 triangular lattice, y= 0.4521619835073459
 3
 ----------------------------------------------------------------------
 Symbolic Z-matrix:
 Charge =  0 Multiplicity = 1

                         Standard orientation:
 ---------------------------------------------------------------------
 Center     Atomic      Atomic             Coordinates (Angstroms)
 Number     Number       Type             X           Y           Z
 ---------------------------------------------------------------------
      1          1           0        1.704907   -1.428103    0.000000
      2          1           0        1.704907   -2.782665    0.000000
      3          1           0        0.852453   -0.375411    0.000000
      4          1           0        0.852453   -1.729973    0.000000
      5          1           0       -0.000000    0.677281   -0.000000
      6          1           0       -0.000000   -0.677281   -0.000000
      7          1           0       -0.852453    1.729973    0.000000
      8          1           0       -0.852453    0.375411    0.000000
      9          1           0       -1.704907    2.782665    0.000000
     10          1           0       -1.704907    1.428103    0.000000
 ---------------------------------------------------------------------

 SCF Done:  E(RHF) =  -4.71254614491     A.U. after    8 cycles
 E2 =    -0.1801287155D+00 EUMP2 =    -0.48926748603776D+01

 The electronic state is 1-AG.
 Alpha  occ. eigenvalues --   -0.83950  -0.74194  -0.59212  -0.40238  -0.11122
 Alpha virt. eigenvalues --    0.01231   0.09649   0.18930   0.37857   0.54529

 Mulliken charges:
               1
     1  H    0.045586
     2  H   -0.259808
     3  H    0.029528
     4  H    0.141105
     5  H    0.043590
     6  H    0.043590
     7  H    0.141105
     8  H    0.029528
     9  H   -0.259808
    10  H    0.045586
 Sum of Mulliken charges =  -0.00000

 Dipole moment (field-independent basis, Debye):
    X=             -0.0000    Y=              0.0000    Z=             -0.0000  Tot=              0.0000
 Quadrupole moment (field-independent basis, Debye-Ang):
   XX=            -18.1420   YY=            -30.9831   ZZ=            -12.7872
   XY=             11.9212   XZ=              0.0000   YZ=             -0.0000

 Normal termination of Gaussian 09 at Mon Feb 20 15:49:00 2017.
