 Gaussian 09, Revision E.01,
 Gaussian 09:  ES64L-G09RevE.01 30-Nov-2015

 ----------------------------------------------------------------------
 #rhf/gen scf(symm,tight,novaracc,noincfock,fulldiag) stable(crhf) gues
 s=read geom=nocrowd test
 ----------------------------------------------------------------------

 hf stability analysis of h10 triangular lattice, y= 0.8683295578329071
 1
 ----------------------------------------------------------------------
 Symbolic Z-matrix:
 Charge =  0 Multiplicity = 1

                         Standard orientation:
 ---------------------------------------------------------------------
 Center     Atomic      Atomic             Coordinates (Angstroms)
 Number     Number       Type             X           Y           Z
 ---------------------------------------------------------------------
      1          1           0        2.111632    1.117222    0.000000
      2          1           0        2.111632    0.023565    0.000000
      3          1           0        1.055816    0.832025    0.000000
      4          1           0        1.055816   -0.261632    0.000000
      5          1           0       -0.000000    0.546828    0.000000
      6          1           0       -0.000000   -0.546828   -0.000000
      7          1           0       -1.055816    0.261632    0.000000
      8          1           0       -1.055816   -0.832025    0.000000
      9          1           0       -2.111632   -0.023565    0.000000
     10          1           0       -2.111632   -1.117222    0.000000
 ---------------------------------------------------------------------

 SCF Done:  E(RHF) =  -4.85361842082     A.U. after    1 cycles
 E2 =    -0.1071506685D+00 EUMP2 =    -0.49607690892753D+01

 The electronic state is 1-AG.
 Alpha  occ. eigenvalues --   -0.86956  -0.74048  -0.52941  -0.45007  -0.29387
 Alpha virt. eigenvalues --   -0.03169   0.17596   0.32511   0.53214   0.80090

 Mulliken charges:
               1
     1  H    0.116980
     2  H   -0.042164
     3  H   -0.026862
     4  H   -0.039985
     5  H   -0.007969
     6  H   -0.007969
     7  H   -0.039985
     8  H   -0.026862
     9  H   -0.042164
    10  H    0.116980
 Sum of Mulliken charges =  -0.00000

 Dipole moment (field-independent basis, Debye):
    X=             -0.0000    Y=             -0.0000    Z=              0.0000  Tot=              0.0000
 Quadrupole moment (field-independent basis, Debye-Ang):
   XX=            -10.6286   YY=            -15.9455   ZZ=            -12.9653
   XY=              3.7748   XZ=             -0.0000   YZ=             -0.0000

 Normal termination of Gaussian 09 at Tue Feb 21 15:02:50 2017.
