 Gaussian 09, Revision E.01,
 Gaussian 09:  ES64L-G09RevE.01 30-Nov-2015

 ----------------------------------------------------------------------
 #rhf/gen scf(symm,tight,novaracc,noincfock,fulldiag) stable(crhf) gues
 s=read geom=nocrowd test
 ----------------------------------------------------------------------

 hf stability analysis of h10 triangular lattice, y= 0.4068814698559844
 5
 ----------------------------------------------------------------------
 Symbolic Z-matrix:
 Charge =  0 Multiplicity = 1

                         Standard orientation:
 ---------------------------------------------------------------------
 Center     Atomic      Atomic             Coordinates (Angstroms)
 Number     Number       Type             X           Y           Z
 ---------------------------------------------------------------------
      1          1           0       -0.000000    0.813763    1.418964
      2          1           0       -0.000000    0.406881    2.837929
      3          1           0       -0.000000    0.406881   -0.000000
      4          1           0        0.000000    0.000000    1.418964
      5          1           0       -0.000000   -0.406881    0.000000
      6          1           0       -0.000000   -0.813763   -1.418964
      7          1           0        0.000000   -0.000000   -1.418964
      8          1           0       -0.000000   -0.406881   -2.837929
      9          1           0        0.000000    0.813763   -1.418964
     10          1           0        0.000000    0.406881   -2.837929
     11          1           0       -0.000000   -0.406881    2.837929
     12          1           0       -0.000000   -0.813763    1.418964
 ---------------------------------------------------------------------

 SCF Done:  E(RHF) =  -5.82898697735     A.U. after    9 cycles
 E2 =    -0.1047122737D+00 EUMP2 =    -0.59336992510854D+01

 The electronic state is 1-AG.
 Alpha  occ. eigenvalues --   -0.90670  -0.81733  -0.64784  -0.51232  -0.42718
 Alpha  occ. eigenvalues --   -0.34712
 Alpha virt. eigenvalues --   -0.19350   0.27014   0.40837   0.53049   0.62558
 Alpha virt. eigenvalues --    0.66467

 Mulliken charges:
               1
     1  H   -0.156381
     2  H    0.041745
     3  H    0.224604
     4  H    0.004668
     5  H    0.224604
     6  H   -0.156381
     7  H    0.004668
     8  H    0.041745
     9  H   -0.156381
    10  H    0.041745
    11  H    0.041745
    12  H   -0.156381
 Sum of Mulliken charges =  -0.00000

 Dipole moment (field-independent basis, Debye):
    X=              0.0000    Y=             -0.0000    Z=              0.0000  Tot=              0.0000
 Quadrupole moment (field-independent basis, Debye-Ang):
   XX=            -15.6172   YY=            -20.4605   ZZ=            -16.9407
   XY=             -0.0000   XZ=              0.0000   YZ=             -0.0000

 Normal termination of Gaussian 09 at Fri Feb 17 15:22:54 2017.
