 Gaussian 09, Revision E.01,
 Gaussian 09:  ES64L-G09RevE.01 30-Nov-2015

 ----------------------------------------------------------------------
 #rhf/gen scf(symm,tight,novaracc,noincfock,fulldiag) stable(crhf) gues
 s=read geom=nocrowd test
 ----------------------------------------------------------------------

 hf stability analysis of h10 triangular lattice, y= 0.2247478695127229
 1
 ----------------------------------------------------------------------
 Symbolic Z-matrix:
 Charge =  0 Multiplicity = 1

                         Standard orientation:
 ---------------------------------------------------------------------
 Center     Atomic      Atomic             Coordinates (Angstroms)
 Number     Number       Type             X           Y           Z
 ---------------------------------------------------------------------
      1          1           0        0.000000    0.449496    2.568880
      2          1           0        0.000000    0.224748    5.137760
      3          1           0        0.000000    0.224748    0.000000
      4          1           0        0.000000   -0.000000    2.568880
      5          1           0       -0.000000   -0.224748   -0.000000
      6          1           0       -0.000000   -0.449496   -2.568880
      7          1           0        0.000000    0.000000   -2.568880
      8          1           0       -0.000000   -0.224748   -5.137760
      9          1           0        0.000000    0.449496   -2.568880
     10          1           0        0.000000    0.224748   -5.137760
     11          1           0       -0.000000   -0.224748    5.137760
     12          1           0       -0.000000   -0.449496    2.568880
 ---------------------------------------------------------------------

 SCF Done:  E(RHF) =  -2.84750897911     A.U. after   11 cycles
 E2 =    -0.1716457427D+00 EUMP2 =    -0.30191547218308D+01

 The electronic state is 1-AG.
 Alpha  occ. eigenvalues --   -0.82973  -0.79202  -0.76340  -0.73358  -0.14536
 Alpha  occ. eigenvalues --   -0.14198
 Alpha virt. eigenvalues --   -0.63330   0.51059   0.60747   0.60793   1.76887
 Alpha virt. eigenvalues --    1.77011

 Mulliken charges:
               1
     1  H   -0.131523
     2  H    0.102864
     3  H    0.266125
     4  H   -0.208807
     5  H    0.266125
     6  H   -0.131523
     7  H   -0.208807
     8  H    0.102864
     9  H   -0.131523
    10  H    0.102864
    11  H    0.102864
    12  H   -0.131523
 Sum of Mulliken charges =   0.00000

 Dipole moment (field-independent basis, Debye):
    X=             -0.0000    Y=             -0.0000    Z=             -0.0000  Tot=              0.0000
 Quadrupole moment (field-independent basis, Debye-Ang):
   XX=            -15.0716   YY=            -21.0518   ZZ=              8.9857
   XY=             -0.0000   XZ=             -0.0000   YZ=             -0.0000

 Normal termination of Gaussian 09 at Fri Feb 17 15:22:29 2017.
