 Gaussian 09, Revision E.01,
 Gaussian 09:  ES64L-G09RevE.01 30-Nov-2015

 ----------------------------------------------------------------------
 #rhf/gen scf(symm,tight,novaracc,noincfock,fulldiag) stable(crhf) gues
 s=read geom=nocrowd test
 ----------------------------------------------------------------------

 hf stability analysis of h10 triangular lattice, y= 0.4829747999860826
 7
 ----------------------------------------------------------------------
 Symbolic Z-matrix:
 Charge =  0 Multiplicity = 1

                         Standard orientation:
 ---------------------------------------------------------------------
 Center     Atomic      Atomic             Coordinates (Angstroms)
 Number     Number       Type             X           Y           Z
 ---------------------------------------------------------------------
      1          1           0        0.000000    0.965950    1.195405
      2          1           0        0.000000    0.482975    2.390809
      3          1           0       -0.000000    0.482975    0.000000
      4          1           0        0.000000    0.000000    1.195405
      5          1           0       -0.000000   -0.482975   -0.000000
      6          1           0       -0.000000   -0.965950   -1.195405
      7          1           0        0.000000    0.000000   -1.195405
      8          1           0       -0.000000   -0.482975   -2.390809
      9          1           0        0.000000    0.965950   -1.195405
     10          1           0        0.000000    0.482975   -2.390809
     11          1           0       -0.000000   -0.482975    2.390809
     12          1           0       -0.000000   -0.965950    1.195405
 ---------------------------------------------------------------------

 SCF Done:  E(RHF) =  -6.02021725648     A.U. after    8 cycles
 E2 =    -0.1075481480D+00 EUMP2 =    -0.61277654044523D+01

 The electronic state is 1-AG.
 Alpha  occ. eigenvalues --   -0.94082  -0.81860  -0.60503  -0.51719  -0.40069
 Alpha  occ. eigenvalues --   -0.39396
 Alpha virt. eigenvalues --    0.04175   0.19751   0.37919   0.39503   0.44409
 Alpha virt. eigenvalues --    0.60387

 Mulliken charges:
               1
     1  H   -0.072603
     2  H   -0.004130
     3  H    0.148267
     4  H    0.005200
     5  H    0.148267
     6  H   -0.072603
     7  H    0.005200
     8  H   -0.004130
     9  H   -0.072603
    10  H   -0.004130
    11  H   -0.004130
    12  H   -0.072603
 Sum of Mulliken charges =  -0.00000

 Dipole moment (field-independent basis, Debye):
    X=             -0.0000    Y=             -0.0000    Z=              0.0000  Tot=              0.0000
 Quadrupole moment (field-independent basis, Debye-Ang):
   XX=            -15.4894   YY=            -18.6884   ZZ=            -21.8175
   XY=             -0.0000   XZ=              0.0000   YZ=             -0.0000

 Normal termination of Gaussian 09 at Fri Feb 17 15:23:07 2017.
