 Gaussian 09, Revision E.01,
 Gaussian 09:  ES64L-G09RevE.01 30-Nov-2015

 ----------------------------------------------------------------------
 #rhf/gen scf(symm,tight,novaracc,noincfock,fulldiag) stable(crhf) gues
 s=read geom=nocrowd test
 ----------------------------------------------------------------------

 hf stability analysis of h10 triangular lattice, y= 0.3503135618487248
 1
 ----------------------------------------------------------------------
 Symbolic Z-matrix:
 Charge =  0 Multiplicity = 1

                         Standard orientation:
 ---------------------------------------------------------------------
 Center     Atomic      Atomic             Coordinates (Angstroms)
 Number     Number       Type             X           Y           Z
 ---------------------------------------------------------------------
      1          1           0        0.000000    0.700627    1.648096
      2          1           0        0.000000    0.350314    3.296191
      3          1           0        0.000000    0.350314    0.000000
      4          1           0        0.000000    0.000000    1.648096
      5          1           0       -0.000000   -0.350314   -0.000000
      6          1           0       -0.000000   -0.700627   -1.648096
      7          1           0        0.000000    0.000000   -1.648096
      8          1           0       -0.000000   -0.350314   -3.296191
      9          1           0        0.000000    0.700627   -1.648096
     10          1           0        0.000000    0.350314   -3.296191
     11          1           0       -0.000000   -0.350314    3.296191
     12          1           0       -0.000000   -0.700627    1.648096
 ---------------------------------------------------------------------

 SCF Done:  E(RHF) =  -5.40256250911     A.U. after    9 cycles
 E2 =    -0.5428127110D-01 EUMP2 =    -0.54568437802144D+01

 The electronic state is 1-AG.
 Alpha  occ. eigenvalues --   -0.87444  -0.80530  -0.67716  -0.58699  -0.34799
 Alpha  occ. eigenvalues --   -0.29771
 Alpha virt. eigenvalues --   -0.35467   0.33137   0.44144   0.49382   0.87856
 Alpha virt. eigenvalues --    0.89793

 Mulliken charges:
               1
     1  H   -0.205257
     2  H    0.069990
     3  H    0.277400
     4  H   -0.006868
     5  H    0.277400
     6  H   -0.205257
     7  H   -0.006868
     8  H    0.069990
     9  H   -0.205257
    10  H    0.069990
    11  H    0.069990
    12  H   -0.205257
 Sum of Mulliken charges =  -0.00000

 Dipole moment (field-independent basis, Debye):
    X=              0.0000    Y=              0.0000    Z=              0.0000  Tot=              0.0000
 Quadrupole moment (field-independent basis, Debye-Ang):
   XX=            -15.6145   YY=            -21.2168   ZZ=            -12.1051
   XY=             -0.0000   XZ=             -0.0000   YZ=              0.0000

 Normal termination of Gaussian 09 at Fri Feb 17 15:22:45 2017.
