 Gaussian 09, Revision E.01,
 Gaussian 09:  ES64L-G09RevE.01 30-Nov-2015

 ----------------------------------------------------------------------
 #rhf/gen scf(symm,tight,novaracc,noincfock,fulldiag) stable(crhf) gues
 s=read geom=nocrowd test
 ----------------------------------------------------------------------

 hf stability analysis of h10 triangular lattice, y= 0.5188669005588153
 5
 ----------------------------------------------------------------------
 Symbolic Z-matrix:
 Charge =  0 Multiplicity = 1

                         Standard orientation:
 ---------------------------------------------------------------------
 Center     Atomic      Atomic             Coordinates (Angstroms)
 Number     Number       Type             X           Y           Z
 ---------------------------------------------------------------------
      1          1           0       -0.000000    1.037734    1.112714
      2          1           0       -0.000000    0.518867    2.225427
      3          1           0       -0.000000    0.518867   -0.000000
      4          1           0       -0.000000    0.000000    1.112714
      5          1           0       -0.000000   -0.518867    0.000000
      6          1           0       -0.000000   -1.037734   -1.112714
      7          1           0        0.000000   -0.000000   -1.112714
      8          1           0       -0.000000   -0.518867   -2.225427
      9          1           0        0.000000    1.037734   -1.112714
     10          1           0        0.000000    0.518867   -2.225427
     11          1           0       -0.000000   -0.518867    2.225427
     12          1           0       -0.000000   -1.037734    1.112714
 ---------------------------------------------------------------------

 SCF Done:  E(RHF) =  -6.00215907781     A.U. after    9 cycles
 E2 =    -0.1122296931D+00 EUMP2 =    -0.61143887708563D+01

 The electronic state is 1-AG.
 Alpha  occ. eigenvalues --   -0.95211  -0.81288  -0.58148  -0.55410  -0.40994
 Alpha  occ. eigenvalues --   -0.34411
 Alpha virt. eigenvalues --    0.13816   0.17104   0.31178   0.36765   0.39766
 Alpha virt. eigenvalues --    0.62824

 Mulliken charges:
               1
     1  H   -0.033568
     2  H   -0.027830
     3  H    0.113571
     4  H    0.009225
     5  H    0.113571
     6  H   -0.033568
     7  H    0.009225
     8  H   -0.027830
     9  H   -0.033568
    10  H   -0.027830
    11  H   -0.027830
    12  H   -0.033568
 Sum of Mulliken charges =  -0.00000

 Dipole moment (field-independent basis, Debye):
    X=             -0.0000    Y=              0.0000    Z=             -0.0000  Tot=              0.0000
 Quadrupole moment (field-independent basis, Debye-Ang):
   XX=            -15.4001   YY=            -17.6336   ZZ=            -23.6018
   XY=             -0.0000   XZ=              0.0000   YZ=             -0.0000

 Normal termination of Gaussian 09 at Fri Feb 17 15:23:13 2017.
