 Gaussian 09, Revision E.01,
 Gaussian 09:  ES64L-G09RevE.01 30-Nov-2015

 ----------------------------------------------------------------------
 #rhf/gen scf(symm,tight,novaracc,noincfock,fulldiag) stable(crhf) gues
 s=read geom=nocrowd test
 ----------------------------------------------------------------------

 hf stability analysis of h10 triangular lattice, y= 0.6006400760937612
 4
 ----------------------------------------------------------------------
 Symbolic Z-matrix:
 Charge =  0 Multiplicity = 1

                         Standard orientation:
 ---------------------------------------------------------------------
 Center     Atomic      Atomic             Coordinates (Angstroms)
 Number     Number       Type             X           Y           Z
 ---------------------------------------------------------------------
      1          1           0        0.000000    1.201280    0.961225
      2          1           0        0.000000    0.600640    1.922450
      3          1           0        0.000000    0.600640    0.000000
      4          1           0       -0.000000    0.000000    0.961225
      5          1           0       -0.000000   -0.600640    0.000000
      6          1           0       -0.000000   -1.201280   -0.961225
      7          1           0        0.000000    0.000000   -0.961225
      8          1           0       -0.000000   -0.600640   -1.922450
      9          1           0        0.000000    1.201280   -0.961225
     10          1           0        0.000000    0.600640   -1.922450
     11          1           0       -0.000000   -0.600640    1.922450
     12          1           0       -0.000000   -1.201280    0.961225
 ---------------------------------------------------------------------

 SCF Done:  E(RHF) =  -5.78809115346     A.U. after   10 cycles
 E2 =    -0.1301064451D+00 EUMP2 =    -0.59181975985348D+01

 The electronic state is 1-AG.
 Alpha  occ. eigenvalues --   -0.96818  -0.78829  -0.62551  -0.52022  -0.43452
 Alpha  occ. eigenvalues --   -0.20697
 Alpha virt. eigenvalues --    0.07816   0.13170   0.24210   0.41173   0.49099
 Alpha virt. eigenvalues --    0.61484

 Mulliken charges:
               1
     1  H    0.039528
     2  H   -0.081478
     3  H    0.037122
     4  H    0.046780
     5  H    0.037122
     6  H    0.039528
     7  H    0.046780
     8  H   -0.081478
     9  H    0.039528
    10  H   -0.081478
    11  H   -0.081478
    12  H    0.039528
 Sum of Mulliken charges =   0.00000

 Dipole moment (field-independent basis, Debye):
    X=             -0.0000    Y=             -0.0000    Z=              0.0000  Tot=              0.0000
 Quadrupole moment (field-independent basis, Debye-Ang):
   XX=            -15.1653   YY=            -15.1379   ZZ=            -26.4692
   XY=              0.0000   XZ=              0.0000   YZ=             -0.0000

 Normal termination of Gaussian 09 at Fri Feb 17 15:23:28 2017.
