 Gaussian 09, Revision E.01,
 Gaussian 09:  ES64L-G09RevE.01 30-Nov-2015

 ----------------------------------------------------------------------
 #rhf/gen scf(symm,tight,novaracc,noincfock,fulldiag) stable(crhf) gues
 s=read geom=nocrowd test
 ----------------------------------------------------------------------

 hf stability analysis of h10 triangular lattice, y= 0.2848531043101661
 9
 ----------------------------------------------------------------------
 Symbolic Z-matrix:
 Charge =  0 Multiplicity = 1

                         Standard orientation:
 ---------------------------------------------------------------------
 Center     Atomic      Atomic             Coordinates (Angstroms)
 Number     Number       Type             X           Y           Z
 ---------------------------------------------------------------------
      1          1           0        0.000000    0.569706    2.026835
      2          1           0        0.000000    0.284853    4.053670
      3          1           0        0.000000    0.284853    0.000000
      4          1           0        0.000000   -0.000000    2.026835
      5          1           0       -0.000000   -0.284853   -0.000000
      6          1           0       -0.000000   -0.569706   -2.026835
      7          1           0        0.000000    0.000000   -2.026835
      8          1           0       -0.000000   -0.284853   -4.053670
      9          1           0        0.000000    0.569706   -2.026835
     10          1           0        0.000000    0.284853   -4.053670
     11          1           0       -0.000000   -0.284853    4.053670
     12          1           0       -0.000000   -0.569706    2.026835
 ---------------------------------------------------------------------

 SCF Done:  E(RHF) =  -4.44612019423     A.U. after   10 cycles
 E2 =    -0.1208928916D+00 EUMP2 =    -0.45670130858100D+01

 The electronic state is 1-AG.
 Alpha  occ. eigenvalues --   -0.83865  -0.78763  -0.71736  -0.66502  -0.24189
 Alpha  occ. eigenvalues --   -0.22204
 Alpha virt. eigenvalues --   -0.51496   0.40362   0.50840   0.51645   1.27092
 Alpha virt. eigenvalues --    1.27464

 Mulliken charges:
               1
     1  H   -0.216260
     2  H    0.095731
     3  H    0.303987
     4  H   -0.062928
     5  H    0.303987
     6  H   -0.216260
     7  H   -0.062928
     8  H    0.095731
     9  H   -0.216260
    10  H    0.095731
    11  H    0.095731
    12  H   -0.216260
 Sum of Mulliken charges =  -0.00000

 Dipole moment (field-independent basis, Debye):
    X=             -0.0000    Y=             -0.0000    Z=             -0.0000  Tot=              0.0000
 Quadrupole moment (field-independent basis, Debye-Ang):
   XX=            -15.4384   YY=            -21.4091   ZZ=             -3.4676
   XY=             -0.0000   XZ=             -0.0000   YZ=              0.0000

 Normal termination of Gaussian 09 at Fri Feb 17 15:22:36 2017.
