 Gaussian 09, Revision E.01,
 Gaussian 09:  ES64L-G09RevE.01 30-Nov-2015

 ----------------------------------------------------------------------
 #rhf/gen scf(symm,tight,novaracc,noincfock,fulldiag) stable(crhf) gues
 s=read geom=nocrowd test
 ----------------------------------------------------------------------

 hf stability analysis of h10 triangular lattice, y= 0.3650915174764740
 0
 ----------------------------------------------------------------------
 Symbolic Z-matrix:
 Charge =  0 Multiplicity = 1

                         Standard orientation:
 ---------------------------------------------------------------------
 Center     Atomic      Atomic             Coordinates (Angstroms)
 Number     Number       Type             X           Y           Z
 ---------------------------------------------------------------------
      1          1           0        0.000000    0.730183    1.581385
      2          1           0        0.000000    0.365092    3.162770
      3          1           0        0.000000    0.365092   -0.000000
      4          1           0        0.000000    0.000000    1.581385
      5          1           0       -0.000000   -0.365092    0.000000
      6          1           0       -0.000000   -0.730183   -1.581385
      7          1           0        0.000000   -0.000000   -1.581385
      8          1           0       -0.000000   -0.365092   -3.162770
      9          1           0        0.000000    0.730183   -1.581385
     10          1           0        0.000000    0.365092   -3.162770
     11          1           0       -0.000000   -0.365092    3.162770
     12          1           0       -0.000000   -0.730183    1.581385
 ---------------------------------------------------------------------

 SCF Done:  E(RHF) =  -5.54343823068     A.U. after    9 cycles
 E2 =     0.3489716703D-01 EUMP2 =    -0.55085410636440D+01

 The electronic state is 1-AG.
 Alpha  occ. eigenvalues --   -0.88318  -0.80915  -0.66933  -0.56823  -0.36987
 Alpha  occ. eigenvalues --   -0.31204
 Alpha virt. eigenvalues --   -0.31428   0.31543   0.43066   0.49969   0.80584
 Alpha virt. eigenvalues --    0.82995

 Mulliken charges:
               1
     1  H   -0.194716
     2  H    0.063105
     3  H    0.264831
     4  H   -0.001608
     5  H    0.264831
     6  H   -0.194716
     7  H   -0.001608
     8  H    0.063105
     9  H   -0.194716
    10  H    0.063105
    11  H    0.063105
    12  H   -0.194716
 Sum of Mulliken charges =  -0.00000

 Dipole moment (field-independent basis, Debye):
    X=              0.0000    Y=             -0.0000    Z=              0.0000  Tot=              0.0000
 Quadrupole moment (field-independent basis, Debye-Ang):
   XX=            -15.6263   YY=            -21.0710   ZZ=            -13.5128
   XY=             -0.0000   XZ=             -0.0000   YZ=              0.0000

 Normal termination of Gaussian 09 at Fri Feb 17 15:22:47 2017.
