 Gaussian 09, Revision E.01,
 Gaussian 09:  ES64L-G09RevE.01 30-Nov-2015

 ----------------------------------------------------------------------
 #rhf/gen scf(symm,tight,novaracc,noincfock,fulldiag) stable(crhf) gues
 s=read geom=nocrowd test
 ----------------------------------------------------------------------

 hf stability analysis of h10 triangular lattice, y= 0.5070038553873883
 5
 ----------------------------------------------------------------------
 Symbolic Z-matrix:
 Charge =  0 Multiplicity = 1

                         Standard orientation:
 ---------------------------------------------------------------------
 Center     Atomic      Atomic             Coordinates (Angstroms)
 Number     Number       Type             X           Y           Z
 ---------------------------------------------------------------------
      1          1           0       -0.000000    1.014008    1.138749
      2          1           0       -0.000000    0.507004    2.277499
      3          1           0       -0.000000    0.507004    0.000000
      4          1           0       -0.000000    0.000000    1.138749
      5          1           0       -0.000000   -0.507004    0.000000
      6          1           0       -0.000000   -1.014008   -1.138749
      7          1           0        0.000000    0.000000   -1.138749
      8          1           0       -0.000000   -0.507004   -2.277499
      9          1           0        0.000000    1.014008   -1.138749
     10          1           0        0.000000    0.507004   -2.277499
     11          1           0       -0.000000   -0.507004    2.277499
     12          1           0       -0.000000   -1.014008    1.138749
 ---------------------------------------------------------------------

 SCF Done:  E(RHF) =  -6.01434330053     A.U. after    9 cycles
 E2 =    -0.1104907865D+00 EUMP2 =    -0.61248340870093D+01

 The electronic state is 1-AG.
 Alpha  occ. eigenvalues --   -0.94872  -0.81519  -0.58952  -0.54228  -0.40504
 Alpha  occ. eigenvalues --   -0.36308
 Alpha virt. eigenvalues --    0.11106   0.17916   0.32724   0.39126   0.39634
 Alpha virt. eigenvalues --    0.62172

 Mulliken charges:
               1
     1  H   -0.046203
     2  H   -0.019918
     3  H    0.124918
     4  H    0.007323
     5  H    0.124918
     6  H   -0.046203
     7  H    0.007323
     8  H   -0.019918
     9  H   -0.046203
    10  H   -0.019918
    11  H   -0.019918
    12  H   -0.046203
 Sum of Mulliken charges =  -0.00000

 Dipole moment (field-independent basis, Debye):
    X=             -0.0000    Y=              0.0000    Z=             -0.0000  Tot=              0.0000
 Quadrupole moment (field-independent basis, Debye-Ang):
   XX=            -15.4309   YY=            -17.9930   ZZ=            -23.0472
   XY=             -0.0000   XZ=              0.0000   YZ=              0.0000

 Normal termination of Gaussian 09 at Fri Feb 17 15:23:11 2017.
