 Gaussian 09, Revision E.01,
 Gaussian 09:  ES64L-G09RevE.01 30-Nov-2015

 ----------------------------------------------------------------------
 #rhf/gen scf(symm,tight,novaracc,noincfock,fulldiag) stable(crhf) gues
 s=read geom=nocrowd test
 ----------------------------------------------------------------------

 hf stability analysis of h10 triangular lattice, y= 0.3023959355609886
 5
 ----------------------------------------------------------------------
 Symbolic Z-matrix:
 Charge =  0 Multiplicity = 1

                         Standard orientation:
 ---------------------------------------------------------------------
 Center     Atomic      Atomic             Coordinates (Angstroms)
 Number     Number       Type             X           Y           Z
 ---------------------------------------------------------------------
      1          1           0       -0.000000    0.604792    1.909253
      2          1           0        0.000000    0.302396    3.818505
      3          1           0       -0.000000    0.302396   -0.000000
      4          1           0        0.000000    0.000000    1.909253
      5          1           0       -0.000000   -0.302396    0.000000
      6          1           0       -0.000000   -0.604792   -1.909253
      7          1           0        0.000000   -0.000000   -1.909253
      8          1           0       -0.000000   -0.302396   -3.818505
      9          1           0        0.000000    0.604792   -1.909253
     10          1           0        0.000000    0.302396   -3.818505
     11          1           0       -0.000000   -0.302396    3.818505
     12          1           0       -0.000000   -0.604792    1.909253
 ---------------------------------------------------------------------

 SCF Done:  E(RHF) =  -4.76438634813     A.U. after   10 cycles
 E2 =    -0.1129286001D+00 EUMP2 =    -0.48773149482660D+01

 The electronic state is 1-AG.
 Alpha  occ. eigenvalues --   -0.84698  -0.79168  -0.70545  -0.64470  -0.27128
 Alpha  occ. eigenvalues --   -0.24400
 Alpha virt. eigenvalues --   -0.47528   0.38253   0.48714   0.50203   1.15330
 Alpha virt. eigenvalues --    1.16023

 Mulliken charges:
               1
     1  H   -0.220948
     2  H    0.089954
     3  H    0.303406
     4  H   -0.041417
     5  H    0.303406
     6  H   -0.220948
     7  H   -0.041417
     8  H    0.089954
     9  H   -0.220948
    10  H    0.089954
    11  H    0.089954
    12  H   -0.220948
 Sum of Mulliken charges =  -0.00000

 Dipole moment (field-independent basis, Debye):
    X=             -0.0000    Y=             -0.0000    Z=             -0.0000  Tot=              0.0000
 Quadrupole moment (field-independent basis, Debye-Ang):
   XX=            -15.5077   YY=            -21.4290   ZZ=             -6.2664
   XY=             -0.0000   XZ=             -0.0000   YZ=             -0.0000

 Normal termination of Gaussian 09 at Fri Feb 17 15:22:38 2017.
