 Gaussian 09, Revision E.01,
 Gaussian 09:  ES64L-G09RevE.01 30-Nov-2015

 ----------------------------------------------------------------------
 #rhf/gen scf(symm,tight,novaracc,noincfock,fulldiag) stable(crhf) gues
 s=read geom=nocrowd test
 ----------------------------------------------------------------------

 hf stability analysis of h10 triangular lattice, y= 0.4201353311163031
 9
 ----------------------------------------------------------------------
 Symbolic Z-matrix:
 Charge =  0 Multiplicity = 1

                         Standard orientation:
 ---------------------------------------------------------------------
 Center     Atomic      Atomic             Coordinates (Angstroms)
 Number     Number       Type             X           Y           Z
 ---------------------------------------------------------------------
      1          1           0        0.000000    0.840271    1.374201
      2          1           0        0.000000    0.420135    2.748401
      3          1           0       -0.000000    0.420135   -0.000000
      4          1           0        0.000000    0.000000    1.374201
      5          1           0       -0.000000   -0.420135    0.000000
      6          1           0       -0.000000   -0.840271   -1.374201
      7          1           0        0.000000   -0.000000   -1.374201
      8          1           0       -0.000000   -0.420135   -2.748401
      9          1           0        0.000000    0.840271   -1.374201
     10          1           0        0.000000    0.420135   -2.748401
     11          1           0       -0.000000   -0.420135    2.748401
     12          1           0       -0.000000   -0.840271    1.374201
 ---------------------------------------------------------------------

 SCF Done:  E(RHF) =  -5.88946378263     A.U. after    8 cycles
 E2 =    -0.1041900136D+00 EUMP2 =    -0.59936537962664D+01

 The electronic state is 1-AG.
 Alpha  occ. eigenvalues --   -0.91357  -0.81889  -0.64092  -0.49375  -0.44409
 Alpha  occ. eigenvalues --   -0.35673
 Alpha virt. eigenvalues --   -0.15348   0.25622   0.40371   0.54303   0.57539
 Alpha virt. eigenvalues --    0.61952

 Mulliken charges:
               1
     1  H   -0.142481
     2  H    0.034356
     3  H    0.211240
     4  H    0.005010
     5  H    0.211240
     6  H   -0.142481
     7  H    0.005010
     8  H    0.034356
     9  H   -0.142481
    10  H    0.034356
    11  H    0.034356
    12  H   -0.142481
 Sum of Mulliken charges =  -0.00000

 Dipole moment (field-independent basis, Debye):
    X=              0.0000    Y=             -0.0000    Z=              0.0000  Tot=              0.0000
 Quadrupole moment (field-independent basis, Debye-Ang):
   XX=            -15.6035   YY=            -20.2087   ZZ=            -17.9032
   XY=             -0.0000   XZ=              0.0000   YZ=             -0.0000

 Normal termination of Gaussian 09 at Fri Feb 17 15:22:56 2017.
