 Gaussian 09, Revision E.01,
 Gaussian 09:  ES64L-G09RevE.01 30-Nov-2015

 ----------------------------------------------------------------------
 #rhf/gen scf(symm,tight,novaracc,noincfock,fulldiag) stable(crhf) gues
 s=read geom=nocrowd test
 ----------------------------------------------------------------------

 hf stability analysis of h10 triangular lattice, y= 0.5657123745340343
 3
 ----------------------------------------------------------------------
 Symbolic Z-matrix:
 Charge =  0 Multiplicity = 1

                         Standard orientation:
 ---------------------------------------------------------------------
 Center     Atomic      Atomic             Coordinates (Angstroms)
 Number     Number       Type             X           Y           Z
 ---------------------------------------------------------------------
      1          1           0       -0.000000    1.131425    1.020572
      2          1           0       -0.000000    0.565712    2.041144
      3          1           0        0.000000    0.565712    0.000000
      4          1           0       -0.000000    0.000000    1.020572
      5          1           0       -0.000000   -0.565712   -0.000000
      6          1           0       -0.000000   -1.131425   -1.020572
      7          1           0        0.000000    0.000000   -1.020572
      8          1           0       -0.000000   -0.565712   -2.041144
      9          1           0        0.000000    1.131425   -1.020572
     10          1           0        0.000000    0.565712   -2.041144
     11          1           0       -0.000000   -0.565712    2.041144
     12          1           0       -0.000000   -1.131425    1.020572
 ---------------------------------------------------------------------

 SCF Done:  E(RHF) =  -5.90369628538     A.U. after   10 cycles
 E2 =    -0.1210292012D+00 EUMP2 =    -0.60247254865661D+01

 The electronic state is 1-AG.
 Alpha  occ. eigenvalues --   -0.96256  -0.80028  -0.59718  -0.54738  -0.42591
 Alpha  occ. eigenvalues --   -0.26680
 Alpha virt. eigenvalues --    0.13248   0.14508   0.28845   0.37956   0.40547
 Alpha virt. eigenvalues --    0.63418

 Mulliken charges:
               1
     1  H    0.012185
     2  H   -0.059204
     3  H    0.069716
     4  H    0.024320
     5  H    0.069716
     6  H    0.012185
     7  H    0.024320
     8  H   -0.059204
     9  H    0.012185
    10  H   -0.059204
    11  H   -0.059204
    12  H    0.012185
 Sum of Mulliken charges =  -0.00000

 Dipole moment (field-independent basis, Debye):
    X=             -0.0000    Y=             -0.0000    Z=             -0.0000  Tot=              0.0000
 Quadrupole moment (field-independent basis, Debye-Ang):
   XX=            -15.2694   YY=            -16.1673   ZZ=            -25.4582
   XY=             -0.0000   XZ=              0.0000   YZ=              0.0000

 Normal termination of Gaussian 09 at Fri Feb 17 15:23:22 2017.
