 Gaussian 09, Revision E.01,
 Gaussian 09:  ES64L-G09RevE.01 30-Nov-2015

 ----------------------------------------------------------------------
 #rhf/gen scf(symm,tight,novaracc,noincfock,fulldiag) stable(crhf) geom
 =nocrowd test
 ----------------------------------------------------------------------

 hf stability analysis of h10 triangular lattice, y= 0.3006836243755992
 6
 ----------------------------------------------------------------------
 Symbolic Z-matrix:
 Charge =  0 Multiplicity = 1

                         Standard orientation:
 ---------------------------------------------------------------------
 Center     Atomic      Atomic             Coordinates (Angstroms)
 Number     Number       Type             X           Y           Z
 ---------------------------------------------------------------------
      1          1           0        0.000000    0.300684    3.840251
      2          1           0        0.000000    0.000000    5.760376
      3          1           0        0.000000    0.000000    1.920125
      4          1           0       -0.000000   -0.300684    3.840251
      5          1           0       -0.000000    0.300684   -0.000000
      6          1           0       -0.000000   -0.300684    0.000000
      7          1           0        0.000000   -0.000000   -1.920125
      8          1           0        0.000000    0.300684   -3.840251
      9          1           0       -0.000000   -0.300684   -3.840251
     10          1           0        0.000000   -0.000000   -5.760376
 ---------------------------------------------------------------------

 SCF Done:  E(RHF) =  -4.66383271327     A.U. after    9 cycles
 E2 =    -0.3331339315D+00 EUMP2 =    -0.49969666447543D+01

 The electronic state is 1-AG.
 Alpha  occ. eigenvalues --   -0.70250  -0.69882  -0.68877  -0.27261  -0.24435
 Alpha virt. eigenvalues --   -0.09071  -0.05958   0.48385   0.48827   0.50221

 Mulliken charges:
               1
     1  H    0.022539
     2  H   -0.047049
     3  H   -0.003021
     4  H    0.022539
     5  H    0.004992
     6  H    0.004992
     7  H   -0.003021
     8  H    0.022539
     9  H    0.022539
    10  H   -0.047049
 Sum of Mulliken charges =  -0.00000

 Dipole moment (field-independent basis, Debye):
    X=             -0.0000    Y=             -0.0000    Z=              0.0000  Tot=              0.0000
 Quadrupole moment (field-independent basis, Debye-Ang):
   XX=            -13.6065   YY=            -12.6379   ZZ=            -23.6906
   XY=              0.0000   XZ=              0.0000   YZ=             -0.0000

 Normal termination of Gaussian 09 at Thu Feb  9 16:04:49 2017.
