 Gaussian 09, Revision E.01,
 Gaussian 09:  ES64L-G09RevE.01 30-Nov-2015

 ----------------------------------------------------------------------
 #rhf/gen scf(symm,tight,novaracc,noincfock,fulldiag) stable(crhf) geom
 =nocrowd test
 ----------------------------------------------------------------------

 hf stability analysis of h10 triangular lattice, y= 0.5837502117588856
 4
 ----------------------------------------------------------------------
 Symbolic Z-matrix:
 Charge =  0 Multiplicity = 1

                         Standard orientation:
 ---------------------------------------------------------------------
 Center     Atomic      Atomic             Coordinates (Angstroms)
 Number     Number       Type             X           Y           Z
 ---------------------------------------------------------------------
      1          1           0        0.000000    0.583750    1.978073
      2          1           0        0.000000    0.000000    2.967110
      3          1           0        0.000000    0.000000    0.989037
      4          1           0       -0.000000   -0.583750    1.978073
      5          1           0        0.000000    0.583750    0.000000
      6          1           0       -0.000000   -0.583750   -0.000000
      7          1           0        0.000000   -0.000000   -0.989037
      8          1           0        0.000000    0.583750   -1.978073
      9          1           0       -0.000000   -0.583750   -1.978073
     10          1           0        0.000000   -0.000000   -2.967110
 ---------------------------------------------------------------------

 SCF Done:  E(RHF) =  -4.77001202280     A.U. after    9 cycles
 E2 =    -0.1475007517D+00 EUMP2 =    -0.49175127745427D+01

 The electronic state is 1-AG.
 Alpha  occ. eigenvalues --   -0.79233  -0.72462  -0.56867  -0.31347  -0.21538
 Alpha virt. eigenvalues --    0.04282   0.08908   0.21312   0.38512   0.66030

 Mulliken charges:
               1
     1  H    0.135901
     2  H   -0.080739
     3  H   -0.190839
     4  H    0.135901
     5  H   -0.000223
     6  H   -0.000223
     7  H   -0.190839
     8  H    0.135901
     9  H    0.135901
    10  H   -0.080739
 Sum of Mulliken charges =  -0.00000

 Dipole moment (field-independent basis, Debye):
    X=             -0.0000    Y=             -0.0000    Z=              0.0000  Tot=              0.0000
 Quadrupole moment (field-independent basis, Debye-Ang):
   XX=            -13.1521   YY=            -13.9289   ZZ=            -13.0883
   XY=             -0.0000   XZ=              0.0000   YZ=              0.0000

 Normal termination of Gaussian 09 at Thu Feb  9 15:47:19 2017.
