 Gaussian 09, Revision E.01,
 Gaussian 09:  ES64L-G09RevE.01 30-Nov-2015

 ----------------------------------------------------------------------
 #rhf/gen scf(symm,tight,novaracc,noincfock,fulldiag) stable(crhf) geom
 =nocrowd test
 ----------------------------------------------------------------------

 hf stability analysis of h10 triangular lattice, y= 0.2710133450063199
 1
 ----------------------------------------------------------------------
 Symbolic Z-matrix:
 Charge =  0 Multiplicity = 1

                         Standard orientation:
 ---------------------------------------------------------------------
 Center     Atomic      Atomic             Coordinates (Angstroms)
 Number     Number       Type             X           Y           Z
 ---------------------------------------------------------------------
      1          1           0        0.000000    0.271013    4.260678
      2          1           0        0.000000    0.000000    6.391017
      3          1           0        0.000000    0.000000    2.130339
      4          1           0       -0.000000   -0.271013    4.260678
      5          1           0        0.000000    0.271013    0.000000
      6          1           0       -0.000000   -0.271013    0.000000
      7          1           0        0.000000    0.000000   -2.130339
      8          1           0        0.000000    0.271013   -4.260678
      9          1           0       -0.000000   -0.271013   -4.260678
     10          1           0        0.000000    0.000000   -6.391017
 ---------------------------------------------------------------------

 SCF Done:  E(RHF) =  -4.51040844832     A.U. after   11 cycles
 E2 =    -0.4409196867D+00 EUMP2 =    -0.49513281350011D+01

 The electronic state is 1-AG.
 Alpha  occ. eigenvalues --   -0.70884  -0.70725  -0.70265  -0.25941  -0.24268
 Alpha virt. eigenvalues --   -0.11166  -0.09373   0.55221   0.55442   0.56188

 Mulliken charges:
               1
     1  H    0.006751
     2  H   -0.019967
     3  H    0.006839
     4  H    0.006751
     5  H   -0.000376
     6  H   -0.000376
     7  H    0.006839
     8  H    0.006751
     9  H    0.006751
    10  H   -0.019967
 Sum of Mulliken charges =  -0.00000

 Dipole moment (field-independent basis, Debye):
    X=             -0.0000    Y=              0.0000    Z=              0.0000  Tot=              0.0000
 Quadrupole moment (field-independent basis, Debye-Ang):
   XX=            -13.5907   YY=            -12.8063   ZZ=            -19.8535
   XY=              0.0000   XZ=              0.0000   YZ=             -0.0000

 Normal termination of Gaussian 09 at Thu Feb  9 16:05:54 2017.
