 Gaussian 09, Revision E.01,
 Gaussian 09:  ES64L-G09RevE.01 30-Nov-2015

 ----------------------------------------------------------------------
 #rhf/gen scf(symm,tight,novaracc,noincfock,fulldiag) stable(crhf) geom
 =nocrowd test
 ----------------------------------------------------------------------

 hf stability analysis of h10 triangular lattice, y= 0.5622188630285949
 2
 ----------------------------------------------------------------------
 Symbolic Z-matrix:
 Charge =  0 Multiplicity = 1

                         Standard orientation:
 ---------------------------------------------------------------------
 Center     Atomic      Atomic             Coordinates (Angstroms)
 Number     Number       Type             X           Y           Z
 ---------------------------------------------------------------------
      1          1           0        0.000000    0.562219    2.053827
      2          1           0        0.000000   -0.000000    3.080741
      3          1           0        0.000000   -0.000000    1.026914
      4          1           0       -0.000000   -0.562219    2.053827
      5          1           0        0.000000    0.562219    0.000000
      6          1           0       -0.000000   -0.562219   -0.000000
      7          1           0        0.000000    0.000000   -1.026914
      8          1           0        0.000000    0.562219   -2.053827
      9          1           0       -0.000000   -0.562219   -2.053827
     10          1           0        0.000000    0.000000   -3.080741
 ---------------------------------------------------------------------

 SCF Done:  E(RHF) =  -4.73909348832     A.U. after    9 cycles
 E2 =    -0.1596658092D+00 EUMP2 =    -0.48987592974834D+01

 The electronic state is 1-AG.
 Alpha  occ. eigenvalues --   -0.78006  -0.71986  -0.57157  -0.31587  -0.18483
 Alpha virt. eigenvalues --    0.06030   0.06034   0.22072   0.34491   0.62447

 Mulliken charges:
               1
     1  H    0.110981
     2  H   -0.044670
     3  H   -0.163282
     4  H    0.110981
     5  H   -0.014010
     6  H   -0.014010
     7  H   -0.163282
     8  H    0.110981
     9  H    0.110981
    10  H   -0.044670
 Sum of Mulliken charges =  -0.00000

 Dipole moment (field-independent basis, Debye):
    X=             -0.0000    Y=              0.0000    Z=             -0.0000  Tot=              0.0000
 Quadrupole moment (field-independent basis, Debye-Ang):
   XX=            -13.1982   YY=            -14.2989   ZZ=            -11.1281
   XY=             -0.0000   XZ=              0.0000   YZ=              0.0000

 Normal termination of Gaussian 09 at Thu Feb  9 15:48:56 2017.
