 Gaussian 09, Revision E.01,
 Gaussian 09:  ES64L-G09RevE.01 30-Nov-2015

 ----------------------------------------------------------------------
 #rhf/gen scf(symm,tight,novaracc,noincfock,fulldiag) stable(crhf) geom
 =nocrowd test
 ----------------------------------------------------------------------

 hf stability analysis of h10 triangular lattice, y= 0.5709503438717631
 3
 ----------------------------------------------------------------------
 Symbolic Z-matrix:
 Charge =  0 Multiplicity = 1

                         Standard orientation:
 ---------------------------------------------------------------------
 Center     Atomic      Atomic             Coordinates (Angstroms)
 Number     Number       Type             X           Y           Z
 ---------------------------------------------------------------------
      1          1           0        0.000000    0.570950    2.022419
      2          1           0        0.000000    0.000000    3.033628
      3          1           0        0.000000    0.000000    1.011209
      4          1           0       -0.000000   -0.570950    2.022419
      5          1           0       -0.000000    0.570950    0.000000
      6          1           0       -0.000000   -0.570950    0.000000
      7          1           0        0.000000   -0.000000   -1.011209
      8          1           0        0.000000    0.570950   -2.022419
      9          1           0       -0.000000   -0.570950   -2.022419
     10          1           0        0.000000   -0.000000   -3.033628
 ---------------------------------------------------------------------

 SCF Done:  E(RHF) =  -4.75263538780     A.U. after    9 cycles
 E2 =    -0.1544849258D+00 EUMP2 =    -0.49071203135946D+01

 The electronic state is 1-AG.
 Alpha  occ. eigenvalues --   -0.78513  -0.72192  -0.57053  -0.31515  -0.19745
 Alpha virt. eigenvalues --    0.05302   0.07182   0.21740   0.36139   0.64016

 Mulliken charges:
               1
     1  H    0.121221
     2  H   -0.059385
     3  H   -0.174848
     4  H    0.121221
     5  H   -0.008209
     6  H   -0.008209
     7  H   -0.174848
     8  H    0.121221
     9  H    0.121221
    10  H   -0.059385
 Sum of Mulliken charges =  -0.00000

 Dipole moment (field-independent basis, Debye):
    X=             -0.0000    Y=              0.0000    Z=             -0.0000  Tot=              0.0000
 Quadrupole moment (field-independent basis, Debye-Ang):
   XX=            -13.1798   YY=            -14.1520   ZZ=            -11.9548
   XY=             -0.0000   XZ=              0.0000   YZ=             -0.0000

 Normal termination of Gaussian 09 at Thu Feb  9 15:48:17 2017.
