 Gaussian 09, Revision E.01,
 Gaussian 09:  ES64L-G09RevE.01 30-Nov-2015

 ----------------------------------------------------------------------
 #rhf/gen scf(symm,tight,novaracc,noincfock,fulldiag) stable(crhf) geom
 =nocrowd test
 ----------------------------------------------------------------------

 hf stability analysis of h10 triangular lattice, y= 0.3404262222472385
 6
 ----------------------------------------------------------------------
 Symbolic Z-matrix:
 Charge =  0 Multiplicity = 1

                         Standard orientation:
 ---------------------------------------------------------------------
 Center     Atomic      Atomic             Coordinates (Angstroms)
 Number     Number       Type             X           Y           Z
 ---------------------------------------------------------------------
      1          1           0        0.000000    0.340426    3.391926
      2          1           0       -0.000000    0.000000    5.087889
      3          1           0       -0.000000    0.000000    1.695963
      4          1           0       -0.000000   -0.340426    3.391926
      5          1           0       -0.000000    0.340426    0.000000
      6          1           0       -0.000000   -0.340426    0.000000
      7          1           0        0.000000   -0.000000   -1.695963
      8          1           0        0.000000    0.340426   -3.391926
      9          1           0       -0.000000   -0.340426   -3.391926
     10          1           0        0.000000   -0.000000   -5.087889
 ---------------------------------------------------------------------

 SCF Done:  E(RHF) =  -4.80009976143     A.U. after    9 cycles
 E2 =    -0.2281532720D+00 EUMP2 =    -0.50282530334561D+01

 The electronic state is 1-AG.
 Alpha  occ. eigenvalues --   -0.70560  -0.69592  -0.67523  -0.29227  -0.24361
 Alpha virt. eigenvalues --   -0.05205   0.00363   0.39532   0.40500   0.42869

 Mulliken charges:
               1
     1  H    0.056954
     2  H   -0.103202
     3  H   -0.031201
     4  H    0.056954
     5  H    0.020494
     6  H    0.020494
     7  H   -0.031201
     8  H    0.056954
     9  H    0.056954
    10  H   -0.103202
 Sum of Mulliken charges =   0.00000

 Dipole moment (field-independent basis, Debye):
    X=             -0.0000    Y=              0.0000    Z=             -0.0000  Tot=              0.0000
 Quadrupole moment (field-independent basis, Debye-Ang):
   XX=            -13.6062   YY=            -12.3351   ZZ=            -29.4043
   XY=              0.0000   XZ=              0.0000   YZ=             -0.0000

 Normal termination of Gaussian 09 at Thu Feb  9 16:03:10 2017.
