 Gaussian 09, Revision E.01,
 Gaussian 09:  ES64L-G09RevE.01 30-Nov-2015

 ----------------------------------------------------------------------
 #rhf/gen scf(symm,tight,novaracc,noincfock,fulldiag) stable(crhf) geom
 =nocrowd test
 ----------------------------------------------------------------------

 hf stability analysis of h10 triangular lattice, y= 0.3555426916383301
 3
 ----------------------------------------------------------------------
 Symbolic Z-matrix:
 Charge =  0 Multiplicity = 1

                         Standard orientation:
 ---------------------------------------------------------------------
 Center     Atomic      Atomic             Coordinates (Angstroms)
 Number     Number       Type             X           Y           Z
 ---------------------------------------------------------------------
      1          1           0        0.000000    0.355543    3.247713
      2          1           0        0.000000   -0.000000    4.871569
      3          1           0        0.000000   -0.000000    1.623856
      4          1           0       -0.000000   -0.355543    3.247713
      5          1           0        0.000000    0.355543    0.000000
      6          1           0       -0.000000   -0.355543   -0.000000
      7          1           0        0.000000    0.000000   -1.623856
      8          1           0        0.000000    0.355543   -3.247713
      9          1           0       -0.000000   -0.355543   -3.247713
     10          1           0        0.000000    0.000000   -4.871569
 ---------------------------------------------------------------------

 SCF Done:  E(RHF) =  -4.83577907246     A.U. after    9 cycles
 E2 =    -0.1994944669D+00 EUMP2 =    -0.50352735393730D+01

 The electronic state is 1-AG.
 Alpha  occ. eigenvalues --   -0.70966  -0.69661  -0.67097  -0.29992  -0.24225
 Alpha virt. eigenvalues --   -0.03422   0.03276   0.36314   0.37568   0.40305

 Mulliken charges:
               1
     1  H    0.072803
     2  H   -0.128892
     3  H   -0.045295
     4  H    0.072803
     5  H    0.028582
     6  H    0.028582
     7  H   -0.045295
     8  H    0.072803
     9  H    0.072803
    10  H   -0.128892
 Sum of Mulliken charges =  -0.00000

 Dipole moment (field-independent basis, Debye):
    X=             -0.0000    Y=             -0.0000    Z=             -0.0000  Tot=              0.0000
 Quadrupole moment (field-independent basis, Debye-Ang):
   XX=            -13.5923   YY=            -12.1876   ZZ=            -31.4771
   XY=              0.0000   XZ=              0.0000   YZ=              0.0000

 Normal termination of Gaussian 09 at Thu Feb  9 16:02:28 2017.
