 Gaussian 09, Revision E.01,
 Gaussian 09:  ES64L-G09RevE.01 30-Nov-2015

 ----------------------------------------------------------------------
 #rhf/gen scf(symm,tight,novaracc,noincfock,fulldiag) stable(crhf) geom
 =nocrowd test
 ----------------------------------------------------------------------

 hf stability analysis of h10 triangular lattice, y= 0.4860043606964989
 9
 ----------------------------------------------------------------------
 Symbolic Z-matrix:
 Charge =  0 Multiplicity = 1

                         Standard orientation:
 ---------------------------------------------------------------------
 Center     Atomic      Atomic             Coordinates (Angstroms)
 Number     Number       Type             X           Y           Z
 ---------------------------------------------------------------------
      1          1           0        0.000000    0.486004    2.375906
      2          1           0        0.000000    0.000000    3.563859
      3          1           0        0.000000    0.000000    1.187953
      4          1           0       -0.000000   -0.486004    2.375906
      5          1           0        0.000000    0.486004    0.000000
      6          1           0       -0.000000   -0.486004   -0.000000
      7          1           0        0.000000    0.000000   -1.187953
      8          1           0        0.000000    0.486004   -2.375906
      9          1           0       -0.000000   -0.486004   -2.375906
     10          1           0        0.000000    0.000000   -3.563859
 ---------------------------------------------------------------------

 SCF Done:  E(RHF) =  -4.85135647959     A.U. after    9 cycles
 E2 =    -0.9585868268D-01 EUMP2 =    -0.49472151622750D+01

 The electronic state is 1-AG.
 Alpha  occ. eigenvalues --   -0.77445  -0.71782  -0.63212  -0.34310  -0.19537
 Alpha virt. eigenvalues --    0.12794   0.17760   0.18413   0.24565   0.36734

 Mulliken charges:
               1
     1  H    0.218534
     2  H   -0.366802
     3  H   -0.187143
     4  H    0.218534
     5  H    0.116878
     6  H    0.116878
     7  H   -0.187143
     8  H    0.218534
     9  H    0.218534
    10  H   -0.366802
 Sum of Mulliken charges =  -0.00000

 Dipole moment (field-independent basis, Debye):
    X=             -0.0000    Y=              0.0000    Z=              0.0000  Tot=              0.0000
 Quadrupole moment (field-independent basis, Debye-Ang):
   XX=            -13.1405   YY=            -10.1743   ZZ=            -41.7418
   XY=              0.0000   XZ=              0.0000   YZ=              0.0000

 Normal termination of Gaussian 09 at Thu Feb  9 15:54:29 2017.
