 Gaussian 09, Revision E.01,
 Gaussian 09:  ES64L-G09RevE.01 30-Nov-2015

 ----------------------------------------------------------------------
 #rhf/gen scf(symm,tight,novaracc,noincfock,fulldiag) stable(crhf) geom
 =nocrowd test
 ----------------------------------------------------------------------

 hf stability analysis of h10 triangular lattice, y= 0.3074812759642739
 9
 ----------------------------------------------------------------------
 Symbolic Z-matrix:
 Charge =  0 Multiplicity = 1

                         Standard orientation:
 ---------------------------------------------------------------------
 Center     Atomic      Atomic             Coordinates (Angstroms)
 Number     Number       Type             X           Y           Z
 ---------------------------------------------------------------------
      1          1           0        0.000000    0.307481    3.755352
      2          1           0       -0.000000   -0.000000    5.633029
      3          1           0       -0.000000   -0.000000    1.877676
      4          1           0       -0.000000   -0.307481    3.755352
      5          1           0        0.000000    0.307481    0.000000
      6          1           0       -0.000000   -0.307481   -0.000000
      7          1           0        0.000000    0.000000   -1.877676
      8          1           0        0.000000    0.307481   -3.755352
      9          1           0       -0.000000   -0.307481   -3.755352
     10          1           0        0.000000    0.000000   -5.633029
 ---------------------------------------------------------------------

 SCF Done:  E(RHF) =  -4.69206634080     A.U. after    9 cycles
 E2 =    -0.3119090183D+00 EUMP2 =    -0.50039753591052D+01

 The electronic state is 1-AG.
 Alpha  occ. eigenvalues --   -0.70215  -0.69772  -0.68611  -0.27585  -0.24448
 Alpha virt. eigenvalues --   -0.08497  -0.05019   0.46839   0.47351   0.48908

 Mulliken charges:
               1
     1  H    0.027461
     2  H   -0.055184
     3  H   -0.006706
     4  H    0.027461
     5  H    0.006969
     6  H    0.006969
     7  H   -0.006706
     8  H    0.027461
     9  H    0.027461
    10  H   -0.055184
 Sum of Mulliken charges =   0.00000

 Dipole moment (field-independent basis, Debye):
    X=             -0.0000    Y=             -0.0000    Z=             -0.0000  Tot=              0.0000
 Quadrupole moment (field-independent basis, Debye-Ang):
   XX=            -13.6092   YY=            -12.5937   ZZ=            -24.6551
   XY=              0.0000   XZ=              0.0000   YZ=             -0.0000

 Normal termination of Gaussian 09 at Thu Feb  9 16:04:33 2017.
