 Gaussian 09, Revision E.01,
 Gaussian 09:  ES64L-G09RevE.01 30-Nov-2015

 ----------------------------------------------------------------------
 #rhf/gen scf(symm,tight,novaracc,noincfock,fulldiag) stable(crhf) geom
 =nocrowd test
 ----------------------------------------------------------------------

 hf stability analysis of h10 triangular lattice, y= 0.6631915698552211
 0
 ----------------------------------------------------------------------
 Symbolic Z-matrix:
 Charge =  0 Multiplicity = 1

                         Standard orientation:
 ---------------------------------------------------------------------
 Center     Atomic      Atomic             Coordinates (Angstroms)
 Number     Number       Type             X           Y           Z
 ---------------------------------------------------------------------
      1          1           0        0.000000    0.663192    1.741127
      2          1           0        0.000000    0.000000    2.611690
      3          1           0        0.000000    0.000000    0.870563
      4          1           0       -0.000000   -0.663192    1.741127
      5          1           0       -0.000000    0.663192    0.000000
      6          1           0       -0.000000   -0.663192   -0.000000
      7          1           0        0.000000    0.000000   -0.870563
      8          1           0        0.000000    0.663192   -1.741127
      9          1           0       -0.000000   -0.663192   -1.741127
     10          1           0        0.000000    0.000000   -2.611690
 ---------------------------------------------------------------------

 SCF Done:  E(RHF) =  -4.82019642195     A.U. after    9 cycles
 E2 =    -0.1166692513D+00 EUMP2 =    -0.49368656732325D+01

 The electronic state is 1-AG.
 Alpha  occ. eigenvalues --   -0.82997  -0.73277  -0.54844  -0.31326  -0.28665
 Alpha virt. eigenvalues --   -0.00832   0.20031   0.20423   0.51042   0.69562

 Mulliken charges:
               1
     1  H    0.216641
     2  H   -0.204664
     3  H   -0.262560
     4  H    0.216641
     5  H    0.033943
     6  H    0.033943
     7  H   -0.262560
     8  H    0.216641
     9  H    0.216641
    10  H   -0.204664
 Sum of Mulliken charges =  -0.00000

 Dipole moment (field-independent basis, Debye):
    X=             -0.0000    Y=              0.0000    Z=              0.0000  Tot=              0.0000
 Quadrupole moment (field-independent basis, Debye-Ang):
   XX=            -12.9717   YY=            -12.3751   ZZ=            -18.3739
   XY=              0.0000   XZ=              0.0000   YZ=              0.0000

 Normal termination of Gaussian 09 at Thu Feb  9 15:41:25 2017.
