 Gaussian 09, Revision E.01,
 Gaussian 09:  ES64L-G09RevE.01 30-Nov-2015

 ----------------------------------------------------------------------
 #rhf/gen scf(symm,tight,novaracc,noincfock,fulldiag) stable(crhf) geom
 =nocrowd test
 ----------------------------------------------------------------------

 hf stability analysis of h10 triangular lattice, y= 0.6375905746583018
 2
 ----------------------------------------------------------------------
 Symbolic Z-matrix:
 Charge =  0 Multiplicity = 1

                         Standard orientation:
 ---------------------------------------------------------------------
 Center     Atomic      Atomic             Coordinates (Angstroms)
 Number     Number       Type             X           Y           Z
 ---------------------------------------------------------------------
      1          1           0        0.000000    0.637591    1.811038
      2          1           0       -0.000000    0.000000    2.716557
      3          1           0       -0.000000    0.000000    0.905519
      4          1           0       -0.000000   -0.637591    1.811038
      5          1           0       -0.000000    0.637591    0.000000
      6          1           0       -0.000000   -0.637591   -0.000000
      7          1           0        0.000000    0.000000   -0.905519
      8          1           0        0.000000    0.637591   -1.811038
      9          1           0       -0.000000   -0.637591   -1.811038
     10          1           0        0.000000    0.000000   -2.716557
 ---------------------------------------------------------------------

 SCF Done:  E(RHF) =  -4.81398921590     A.U. after    9 cycles
 E2 =    -0.1246249467D+00 EUMP2 =    -0.49386141626424D+01

 The electronic state is 1-AG.
 Alpha  occ. eigenvalues --   -0.81922  -0.73177  -0.55654  -0.29831  -0.28403
 Alpha virt. eigenvalues --    0.00608   0.16593   0.20205   0.47551   0.70160

 Mulliken charges:
               1
     1  H    0.192762
     2  H   -0.166652
     3  H   -0.244883
     4  H    0.192762
     5  H    0.026012
     6  H    0.026012
     7  H   -0.244883
     8  H    0.192762
     9  H    0.192762
    10  H   -0.166652
 Sum of Mulliken charges =  -0.00000

 Dipole moment (field-independent basis, Debye):
    X=             -0.0000    Y=              0.0000    Z=              0.0000  Tot=              0.0000
 Quadrupole moment (field-independent basis, Debye-Ang):
   XX=            -13.0304   YY=            -12.9023   ZZ=            -16.9602
   XY=              0.0000   XZ=              0.0000   YZ=             -0.0000

 Normal termination of Gaussian 09 at Thu Feb  9 15:43:17 2017.
