 Gaussian 09, Revision E.01,
 Gaussian 09:  ES64L-G09RevE.01 30-Nov-2015

 ----------------------------------------------------------------------
 #rhf/gen scf(symm,tight,novaracc,noincfock,fulldiag) stable(crhf) geom
 =nocrowd test
 ----------------------------------------------------------------------

 hf stability analysis of h10 triangular lattice, y= 0.5283010827917987
 7
 ----------------------------------------------------------------------
 Symbolic Z-matrix:
 Charge =  0 Multiplicity = 1

                         Standard orientation:
 ---------------------------------------------------------------------
 Center     Atomic      Atomic             Coordinates (Angstroms)
 Number     Number       Type             X           Y           Z
 ---------------------------------------------------------------------
      1          1           0        0.000000    0.528301    2.185686
      2          1           0        0.000000    0.000000    3.278530
      3          1           0        0.000000    0.000000    1.092843
      4          1           0       -0.000000   -0.528301    2.185686
      5          1           0       -0.000000    0.528301   -0.000000
      6          1           0       -0.000000   -0.528301    0.000000
      7          1           0        0.000000   -0.000000   -1.092843
      8          1           0        0.000000    0.528301   -2.185686
      9          1           0       -0.000000   -0.528301   -2.185686
     10          1           0        0.000000   -0.000000   -3.278530
 ---------------------------------------------------------------------

 SCF Done:  E(RHF) =  -4.75909080190     A.U. after    8 cycles
 E2 =    -0.8865865412D-01 EUMP2 =    -0.48477494560168D+01

 The electronic state is 1-AG.
 Alpha  occ. eigenvalues --   -0.79632  -0.72439  -0.61505  -0.34217  -0.16418
 Alpha virt. eigenvalues --    0.06746   0.14161   0.21682   0.26070   0.48358

 Mulliken charges:
               1
     1  H    0.260184
     2  H   -0.434183
     3  H   -0.232658
     4  H    0.260184
     5  H    0.146472
     6  H    0.146472
     7  H   -0.232658
     8  H    0.260184
     9  H    0.260184
    10  H   -0.434183
 Sum of Mulliken charges =   0.00000

 Dipole moment (field-independent basis, Debye):
    X=             -0.0000    Y=              0.0000    Z=             -0.0000  Tot=              0.0000
 Quadrupole moment (field-independent basis, Debye-Ang):
   XX=            -12.9182   YY=             -9.3084   ZZ=            -42.5049
   XY=              0.0000   XZ=              0.0000   YZ=             -0.0000

 Normal termination of Gaussian 09 at Thu Feb  9 15:51:25 2017.
