 Gaussian 09, Revision E.01,
 Gaussian 09:  ES64L-G09RevE.01 30-Nov-2015

 ----------------------------------------------------------------------
 #rhf/gen scf(symm,tight,novaracc,noincfock,fulldiag) stable(crhf) geom
 =nocrowd test
 ----------------------------------------------------------------------

 hf stability analysis of h10 triangular lattice, y= 0.7203727855406301
 1
 ----------------------------------------------------------------------
 Symbolic Z-matrix:
 Charge =  0 Multiplicity = 1

                         Standard orientation:
 ---------------------------------------------------------------------
 Center     Atomic      Atomic             Coordinates (Angstroms)
 Number     Number       Type             X           Y           Z
 ---------------------------------------------------------------------
      1          1           0       -0.000000    0.720373    1.602921
      2          1           0       -0.000000    0.000000    2.404381
      3          1           0       -0.000000    0.000000    0.801460
      4          1           0       -0.000000   -0.720373    1.602921
      5          1           0       -0.000000    0.720373    0.000000
      6          1           0       -0.000000   -0.720373   -0.000000
      7          1           0        0.000000    0.000000   -0.801460
      8          1           0        0.000000    0.720373   -1.602921
      9          1           0       -0.000000   -0.720373   -1.602921
     10          1           0        0.000000    0.000000   -2.404381
 ---------------------------------------------------------------------

 SCF Done:  E(RHF) =  -4.80432844778     A.U. after    8 cycles
 E2 =    -0.1039078553D+00 EUMP2 =    -0.49082363030556D+01

 The electronic state is 1-AG.
 Alpha  occ. eigenvalues --   -0.84922  -0.72974  -0.52558  -0.37216  -0.25122
 Alpha virt. eigenvalues --   -0.03473   0.20326   0.29091   0.56267   0.63471

 Mulliken charges:
               1
     1  H    0.261737
     2  H   -0.281698
     3  H   -0.282480
     4  H    0.261737
     5  H    0.040703
     6  H    0.040703
     7  H   -0.282480
     8  H    0.261737
     9  H    0.261737
    10  H   -0.281698
 Sum of Mulliken charges =   0.00000

 Dipole moment (field-independent basis, Debye):
    X=             -0.0000    Y=              0.0000    Z=              0.0000  Tot=              0.0000
 Quadrupole moment (field-independent basis, Debye-Ang):
   XX=            -12.8427   YY=            -11.1474   ZZ=            -20.7831
   XY=              0.0000   XZ=              0.0000   YZ=              0.0000

 Normal termination of Gaussian 09 at Thu Feb  9 15:37:25 2017.
