 Gaussian 09, Revision E.01,
 Gaussian 09:  ES64L-G09RevE.01 30-Nov-2015

 ----------------------------------------------------------------------
 #rhf/gen scf(symm,tight,novaracc,noincfock,fulldiag) stable(crhf) geom
 =nocrowd test
 ----------------------------------------------------------------------

 hf stability analysis of h10 triangular lattice, y= 0.5790956161728682
 0
 ----------------------------------------------------------------------
 Symbolic Z-matrix:
 Charge =  0 Multiplicity = 1

                         Standard orientation:
 ---------------------------------------------------------------------
 Center     Atomic      Atomic             Coordinates (Angstroms)
 Number     Number       Type             X           Y           Z
 ---------------------------------------------------------------------
      1          1           0        0.000000    0.579096    1.993972
      2          1           0        0.000000    0.000000    2.990958
      3          1           0        0.000000    0.000000    0.996986
      4          1           0       -0.000000   -0.579096    1.993972
      5          1           0        0.000000    0.579096    0.000000
      6          1           0       -0.000000   -0.579096    0.000000
      7          1           0        0.000000   -0.000000   -0.996986
      8          1           0        0.000000    0.579096   -1.993972
      9          1           0       -0.000000   -0.579096   -1.993972
     10          1           0        0.000000   -0.000000   -2.990958
 ---------------------------------------------------------------------

 SCF Done:  E(RHF) =  -4.76402555968     A.U. after    9 cycles
 E2 =    -0.1499605219D+00 EUMP2 =    -0.49139860815929D+01

 The electronic state is 1-AG.
 Alpha  occ. eigenvalues --   -0.78974  -0.72368  -0.56939  -0.31416  -0.20894
 Alpha virt. eigenvalues --    0.04646   0.08275   0.21460   0.37656   0.65339

 Mulliken charges:
               1
     1  H    0.130609
     2  H   -0.073007
     3  H   -0.185158
     4  H    0.130609
     5  H   -0.003055
     6  H   -0.003055
     7  H   -0.185158
     8  H    0.130609
     9  H    0.130609
    10  H   -0.073007
 Sum of Mulliken charges =  -0.00000

 Dipole moment (field-independent basis, Debye):
    X=             -0.0000    Y=             -0.0000    Z=              0.0000  Tot=              0.0000
 Quadrupole moment (field-independent basis, Debye-Ang):
   XX=            -13.1622   YY=            -14.0111   ZZ=            -12.6866
   XY=             -0.0000   XZ=              0.0000   YZ=              0.0000

 Normal termination of Gaussian 09 at Thu Feb  9 15:47:40 2017.
