 Gaussian 09, Revision E.01,
 Gaussian 09:  ES64L-G09RevE.01 30-Nov-2015

 ----------------------------------------------------------------------
 #rhf/gen scf(symm,tight,novaracc,noincfock,fulldiag) stable(crhf) geom
 =nocrowd test
 ----------------------------------------------------------------------

 hf stability analysis of h10 triangular lattice, y= 0.7292677248673782
 3
 ----------------------------------------------------------------------
 Symbolic Z-matrix:
 Charge =  0 Multiplicity = 1

                         Standard orientation:
 ---------------------------------------------------------------------
 Center     Atomic      Atomic             Coordinates (Angstroms)
 Number     Number       Type             X           Y           Z
 ---------------------------------------------------------------------
      1          1           0        0.000000    0.729268    1.583370
      2          1           0        0.000000   -0.000000    2.375055
      3          1           0        0.000000   -0.000000    0.791685
      4          1           0       -0.000000   -0.729268    1.583370
      5          1           0       -0.000000    0.729268    0.000000
      6          1           0       -0.000000   -0.729268   -0.000000
      7          1           0        0.000000    0.000000   -0.791685
      8          1           0        0.000000    0.729268   -1.583370
      9          1           0       -0.000000   -0.729268   -1.583370
     10          1           0        0.000000    0.000000   -2.375055
 ---------------------------------------------------------------------

 SCF Done:  E(RHF) =  -4.80955481097     A.U. after    8 cycles
 E2 =    -0.9871796771D-01 EUMP2 =    -0.49082727786760D+01

 The electronic state is 1-AG.
 Alpha  occ. eigenvalues --   -0.89721  -0.74311  -0.53033  -0.43769  -0.26023
 Alpha virt. eigenvalues --   -0.04234   0.14476   0.30330   0.54618   0.57134

 Mulliken charges:
               1
     1  H   -0.228219
     2  H    0.258819
     3  H    0.178167
     4  H   -0.228219
     5  H    0.019451
     6  H    0.019451
     7  H    0.178167
     8  H   -0.228219
     9  H   -0.228219
    10  H    0.258819
 Sum of Mulliken charges =   0.00000

 Dipole moment (field-independent basis, Debye):
    X=              0.0000    Y=             -0.0000    Z=              0.0000  Tot=              0.0000
 Quadrupole moment (field-independent basis, Debye-Ang):
   XX=            -13.0213   YY=            -18.9263   ZZ=             -9.5159
   XY=             -0.0000   XZ=             -0.0000   YZ=             -0.0000

 Normal termination of Gaussian 09 at Thu Feb  9 15:36:49 2017.
