 Gaussian 09, Revision E.01,
 Gaussian 09:  ES64L-G09RevE.01 30-Nov-2015

 ----------------------------------------------------------------------
 #rhf/gen scf(symm,tight,novaracc,noincfock,fulldiag) stable(crhf) geom
 =nocrowd test
 ----------------------------------------------------------------------

 hf stability analysis of h10 triangular lattice, y= 0.4311876892404312
 2
 ----------------------------------------------------------------------
 Symbolic Z-matrix:
 Charge =  0 Multiplicity = 1

                         Standard orientation:
 ---------------------------------------------------------------------
 Center     Atomic      Atomic             Coordinates (Angstroms)
 Number     Number       Type             X           Y           Z
 ---------------------------------------------------------------------
      1          1           0        0.000000    0.431188    2.677953
      2          1           0        0.000000    0.000000    4.016930
      3          1           0        0.000000    0.000000    1.338977
      4          1           0       -0.000000   -0.431188    2.677953
      5          1           0        0.000000    0.431188    0.000000
      6          1           0       -0.000000   -0.431188    0.000000
      7          1           0        0.000000   -0.000000   -1.338977
      8          1           0        0.000000    0.431188   -2.677953
      9          1           0       -0.000000   -0.431188   -2.677953
     10          1           0        0.000000   -0.000000   -4.016930
 ---------------------------------------------------------------------

 SCF Done:  E(RHF) =  -4.90434453051     A.U. after    8 cycles
 E2 =    -0.1184373965D+00 EUMP2 =    -0.50227819269823D+01

 The electronic state is 1-AG.
 Alpha  occ. eigenvalues --   -0.74419  -0.70753  -0.65038  -0.33228  -0.22362
 Alpha virt. eigenvalues --    0.07779   0.21356   0.21749   0.25196   0.29799

 Mulliken charges:
               1
     1  H    0.158967
     2  H   -0.269513
     3  H   -0.126565
     4  H    0.158967
     5  H    0.078145
     6  H    0.078145
     7  H   -0.126565
     8  H    0.158967
     9  H    0.158967
    10  H   -0.269513
 Sum of Mulliken charges =   0.00000

 Dipole moment (field-independent basis, Debye):
    X=             -0.0000    Y=              0.0000    Z=              0.0000  Tot=              0.0000
 Quadrupole moment (field-independent basis, Debye-Ang):
   XX=            -13.3903   YY=            -11.1645   ZZ=            -39.1513
   XY=              0.0000   XZ=              0.0000   YZ=             -0.0000

 Normal termination of Gaussian 09 at Thu Feb  9 15:58:14 2017.
