 Gaussian 09, Revision E.01,
 Gaussian 09:  ES64L-G09RevE.01 30-Nov-2015

 ----------------------------------------------------------------------
 #rhf/gen scf(symm,tight,novaracc,noincfock,fulldiag) stable(crhf) geom
 =nocrowd test
 ----------------------------------------------------------------------

 hf stability analysis of h10 triangular lattice, y= 0.4395209933011619
 6
 ----------------------------------------------------------------------
 Symbolic Z-matrix:
 Charge =  0 Multiplicity = 1

                         Standard orientation:
 ---------------------------------------------------------------------
 Center     Atomic      Atomic             Coordinates (Angstroms)
 Number     Number       Type             X           Y           Z
 ---------------------------------------------------------------------
      1          1           0        0.000000    0.439521    2.627179
      2          1           0        0.000000   -0.000000    3.940769
      3          1           0        0.000000   -0.000000    1.313590
      4          1           0       -0.000000   -0.439521    2.627179
      5          1           0       -0.000000    0.439521    0.000000
      6          1           0       -0.000000   -0.439521   -0.000000
      7          1           0        0.000000    0.000000   -1.313590
      8          1           0        0.000000    0.439521   -2.627179
      9          1           0       -0.000000   -0.439521   -2.627179
     10          1           0        0.000000    0.000000   -3.940769
 ---------------------------------------------------------------------

 SCF Done:  E(RHF) =  -4.90153503068     A.U. after    9 cycles
 E2 =    -0.1136991079D+00 EUMP2 =    -0.50152341385665D+01

 The electronic state is 1-AG.
 Alpha  occ. eigenvalues --   -0.74875  -0.70911  -0.64786  -0.33475  -0.22019
 Alpha virt. eigenvalues --    0.09214   0.20303   0.23626   0.24059   0.28882

 Mulliken charges:
               1
     1  H    0.168363
     2  H   -0.284900
     3  H   -0.135828
     4  H    0.168363
     5  H    0.084002
     6  H    0.084002
     7  H   -0.135828
     8  H    0.168363
     9  H    0.168363
    10  H   -0.284900
 Sum of Mulliken charges =   0.00000

 Dipole moment (field-independent basis, Debye):
    X=             -0.0000    Y=             -0.0000    Z=             -0.0000  Tot=              0.0000
 Quadrupole moment (field-independent basis, Debye-Ang):
   XX=            -13.3565   YY=            -11.0255   ZZ=            -39.6901
   XY=              0.0000   XZ=              0.0000   YZ=              0.0000

 Normal termination of Gaussian 09 at Thu Feb  9 15:57:42 2017.
