 Gaussian 09, Revision E.01,
 Gaussian 09:  ES64L-G09RevE.01 30-Nov-2015

 ----------------------------------------------------------------------
 #rhf/gen scf(symm,tight,novaracc,noincfock,fulldiag) stable(crhf) geom
 =nocrowd test
 ----------------------------------------------------------------------

 hf stability analysis of h10 triangular lattice, y= 0.3365584981486390
 3
 ----------------------------------------------------------------------
 Symbolic Z-matrix:
 Charge =  0 Multiplicity = 1

                         Standard orientation:
 ---------------------------------------------------------------------
 Center     Atomic      Atomic             Coordinates (Angstroms)
 Number     Number       Type             X           Y           Z
 ---------------------------------------------------------------------
      1          1           0        0.000000    0.336558    3.430906
      2          1           0        0.000000    0.000000    5.146359
      3          1           0        0.000000    0.000000    1.715453
      4          1           0       -0.000000   -0.336558    3.430906
      5          1           0        0.000000    0.336558    0.000000
      6          1           0       -0.000000   -0.336558   -0.000000
      7          1           0        0.000000   -0.000000   -1.715453
      8          1           0        0.000000    0.336558   -3.430906
      9          1           0       -0.000000   -0.336558   -3.430906
     10          1           0        0.000000   -0.000000   -5.146359
 ---------------------------------------------------------------------

 SCF Done:  E(RHF) =  -4.78965541921     A.U. after    9 cycles
 E2 =    -0.2364091345D+00 EUMP2 =    -0.50260645536754D+01

 The electronic state is 1-AG.
 Alpha  occ. eigenvalues --   -0.70479  -0.69587  -0.67637  -0.29031  -0.24386
 Alpha virt. eigenvalues --   -0.05635  -0.00339   0.40371   0.41274   0.43548

 Mulliken charges:
               1
     1  H    0.053088
     2  H   -0.096936
     3  H   -0.027835
     4  H    0.053088
     5  H    0.018594
     6  H    0.018594
     7  H   -0.027835
     8  H    0.053088
     9  H    0.053088
    10  H   -0.096936
 Sum of Mulliken charges =  -0.00000

 Dipole moment (field-independent basis, Debye):
    X=             -0.0000    Y=              0.0000    Z=              0.0000  Tot=              0.0000
 Quadrupole moment (field-independent basis, Debye-Ang):
   XX=            -13.6083   YY=            -12.3697   ZZ=            -28.8562
   XY=              0.0000   XZ=              0.0000   YZ=             -0.0000

 Normal termination of Gaussian 09 at Thu Feb  9 16:03:20 2017.
