 Gaussian 09, Revision E.01,
 Gaussian 09:  ES64L-G09RevE.01 30-Nov-2015

 ----------------------------------------------------------------------
 #rhf/gen scf(symm,tight,novaracc,noincfock,fulldiag) stable(crhf) geom
 =nocrowd test
 ----------------------------------------------------------------------

 hf stability analysis of h10 triangular lattice, y= 0.4664621211632850
 6
 ----------------------------------------------------------------------
 Symbolic Z-matrix:
 Charge =  0 Multiplicity = 1

                         Standard orientation:
 ---------------------------------------------------------------------
 Center     Atomic      Atomic             Coordinates (Angstroms)
 Number     Number       Type             X           Y           Z
 ---------------------------------------------------------------------
      1          1           0       -0.000000    0.466462    2.475443
      2          1           0       -0.000000   -0.000000    3.713165
      3          1           0       -0.000000   -0.000000    1.237722
      4          1           0       -0.000000   -0.466462    2.475443
      5          1           0       -0.000000    0.466462    0.000000
      6          1           0       -0.000000   -0.466462   -0.000000
      7          1           0        0.000000    0.000000   -1.237722
      8          1           0        0.000000    0.466462   -2.475443
      9          1           0       -0.000000   -0.466462   -2.475443
     10          1           0        0.000000    0.000000   -3.713165
 ---------------------------------------------------------------------

 SCF Done:  E(RHF) =  -4.87938456130     A.U. after    9 cycles
 E2 =    -0.1018193035D+00 EUMP2 =    -0.49812038648220D+01

 The electronic state is 1-AG.
 Alpha  occ. eigenvalues --   -0.76371  -0.71424  -0.63910  -0.34076  -0.20700
 Alpha virt. eigenvalues --    0.14067   0.15838   0.20650   0.26222   0.31172

 Mulliken charges:
               1
     1  H    0.197953
     2  H   -0.333280
     3  H   -0.165675
     4  H    0.197953
     5  H    0.103049
     6  H    0.103049
     7  H   -0.165675
     8  H    0.197953
     9  H    0.197953
    10  H   -0.333280
 Sum of Mulliken charges =   0.00000

 Dipole moment (field-independent basis, Debye):
    X=             -0.0000    Y=              0.0000    Z=              0.0000  Tot=              0.0000
 Quadrupole moment (field-independent basis, Debye-Ang):
   XX=            -13.2361   YY=            -10.5468   ZZ=            -41.0609
   XY=              0.0000   XZ=              0.0000   YZ=              0.0000

 Normal termination of Gaussian 09 at Thu Feb  9 15:55:51 2017.
