 Gaussian 09, Revision E.01,
 Gaussian 09:  ES64L-G09RevE.01 30-Nov-2015

 ----------------------------------------------------------------------
 #rhf/gen scf(symm,tight,novaracc,noincfock,fulldiag) stable(crhf) geom
 =nocrowd test
 ----------------------------------------------------------------------

 hf stability analysis of h10 triangular lattice, y= 0.5070038553873883
 5
 ----------------------------------------------------------------------
 Symbolic Z-matrix:
 Charge =  0 Multiplicity = 1

                         Standard orientation:
 ---------------------------------------------------------------------
 Center     Atomic      Atomic             Coordinates (Angstroms)
 Number     Number       Type             X           Y           Z
 ---------------------------------------------------------------------
      1          1           0        0.000000    0.507004    2.277499
      2          1           0        0.000000    0.000000    3.416248
      3          1           0        0.000000    0.000000    1.138749
      4          1           0       -0.000000   -0.507004    2.277499
      5          1           0        0.000000    0.507004   -0.000000
      6          1           0       -0.000000   -0.507004    0.000000
      7          1           0        0.000000   -0.000000   -1.138749
      8          1           0        0.000000    0.507004   -2.277499
      9          1           0       -0.000000   -0.507004   -2.277499
     10          1           0        0.000000   -0.000000   -3.416248
 ---------------------------------------------------------------------

 SCF Done:  E(RHF) =  -4.81071278573     A.U. after    9 cycles
 E2 =    -0.9141656603D-01 EUMP2 =    -0.49021293517550D+01

 The electronic state is 1-AG.
 Alpha  occ. eigenvalues --   -0.78561  -0.72134  -0.62398  -0.34367  -0.18092
 Alpha virt. eigenvalues --    0.09700   0.16208   0.21848   0.23020   0.42636

 Mulliken charges:
               1
     1  H    0.239726
     2  H   -0.401168
     3  H   -0.209945
     4  H    0.239726
     5  H    0.131661
     6  H    0.131661
     7  H   -0.209945
     8  H    0.239726
     9  H    0.239726
    10  H   -0.401168
 Sum of Mulliken charges =  -0.00000

 Dipole moment (field-independent basis, Debye):
    X=             -0.0000    Y=              0.0000    Z=             -0.0000  Tot=              0.0000
 Quadrupole moment (field-independent basis, Debye-Ang):
   XX=            -13.0322   YY=             -9.7537   ZZ=            -42.2281
   XY=              0.0000   XZ=              0.0000   YZ=             -0.0000

 Normal termination of Gaussian 09 at Thu Feb  9 15:52:59 2017.
