 Gaussian 09, Revision E.01,
 Gaussian 09:  ES64L-G09RevE.01 30-Nov-2015

 ----------------------------------------------------------------------
 #rhf/gen scf(symm,tight,novaracc,noincfock,fulldiag) stable(crhf) geom
 =nocrowd test
 ----------------------------------------------------------------------

 hf stability analysis of h10 triangular lattice, y= 0.5365223526570523
 9
 ----------------------------------------------------------------------
 Symbolic Z-matrix:
 Charge =  0 Multiplicity = 1

                         Standard orientation:
 ---------------------------------------------------------------------
 Center     Atomic      Atomic             Coordinates (Angstroms)
 Number     Number       Type             X           Y           Z
 ---------------------------------------------------------------------
      1          1           0        0.000000    0.536522    2.152195
      2          1           0       -0.000000   -0.000000    3.228292
      3          1           0       -0.000000   -0.000000    1.076097
      4          1           0       -0.000000   -0.536522    2.152195
      5          1           0       -0.000000    0.536522    0.000000
      6          1           0       -0.000000   -0.536522   -0.000000
      7          1           0        0.000000    0.000000   -1.076097
      8          1           0        0.000000    0.536522   -2.152195
      9          1           0       -0.000000   -0.536522   -2.152195
     10          1           0        0.000000    0.000000   -3.228292
 ---------------------------------------------------------------------

 SCF Done:  E(RHF) =  -4.73653171848     A.U. after    8 cycles
 E2 =    -0.8801893427D-01 EUMP2 =    -0.48245506527513D+01

 The electronic state is 1-AG.
 Alpha  occ. eigenvalues --   -0.80026  -0.72539  -0.61142  -0.34104  -0.15716
 Alpha virt. eigenvalues --    0.05653   0.13418   0.21224   0.27707   0.50450

 Mulliken charges:
               1
     1  H    0.267793
     2  H   -0.446424
     3  H   -0.241275
     4  H    0.267793
     5  H    0.152112
     6  H    0.152112
     7  H   -0.241275
     8  H    0.267793
     9  H    0.267793
    10  H   -0.446424
 Sum of Mulliken charges =   0.00000

 Dipole moment (field-independent basis, Debye):
    X=             -0.0000    Y=             -0.0000    Z=             -0.0000  Tot=              0.0000
 Quadrupole moment (field-independent basis, Debye-Ang):
   XX=            -12.8735   YY=             -9.1321   ZZ=            -42.5618
   XY=              0.0000   XZ=              0.0000   YZ=              0.0000

 Normal termination of Gaussian 09 at Thu Feb  9 15:50:49 2017.
