 Gaussian 09, Revision E.01,
 Gaussian 09:  ES64L-G09RevE.01 30-Nov-2015

 ----------------------------------------------------------------------
 #rhf/gen scf(symm,tight,novaracc,noincfock,fulldiag) stable(crhf) geom
 =nocrowd test
 ----------------------------------------------------------------------

 hf stability analysis of h10 triangular lattice, y= 0.3518141221564598
 5
 ----------------------------------------------------------------------
 Symbolic Z-matrix:
 Charge =  0 Multiplicity = 1

                         Standard orientation:
 ---------------------------------------------------------------------
 Center     Atomic      Atomic             Coordinates (Angstroms)
 Number     Number       Type             X           Y           Z
 ---------------------------------------------------------------------
      1          1           0       -0.000000    0.351814    3.282132
      2          1           0       -0.000000    0.000000    4.923199
      3          1           0       -0.000000    0.000000    1.641066
      4          1           0       -0.000000   -0.351814    3.282132
      5          1           0       -0.000000    0.351814   -0.000000
      6          1           0       -0.000000   -0.351814    0.000000
      7          1           0        0.000000   -0.000000   -1.641066
      8          1           0        0.000000    0.351814   -3.282132
      9          1           0       -0.000000   -0.351814   -3.282132
     10          1           0        0.000000   -0.000000   -4.923199
 ---------------------------------------------------------------------

 SCF Done:  E(RHF) =  -4.82771944898     A.U. after    9 cycles
 E2 =    -0.2060536071D+00 EUMP2 =    -0.50337730561191D+01

 The electronic state is 1-AG.
 Alpha  occ. eigenvalues --   -0.70853  -0.69637  -0.67200  -0.29804  -0.24264
 Alpha virt. eigenvalues --   -0.03877   0.02533   0.37099   0.38277   0.40924

 Mulliken charges:
               1
     1  H    0.068798
     2  H   -0.122397
     3  H   -0.041695
     4  H    0.068798
     5  H    0.026496
     6  H    0.026496
     7  H   -0.041695
     8  H    0.068798
     9  H    0.068798
    10  H   -0.122397
 Sum of Mulliken charges =  -0.00000

 Dipole moment (field-independent basis, Debye):
    X=             -0.0000    Y=              0.0000    Z=              0.0000  Tot=              0.0000
 Quadrupole moment (field-independent basis, Debye-Ang):
   XX=            -13.5966   YY=            -12.2258   ZZ=            -30.9779
   XY=              0.0000   XZ=              0.0000   YZ=             -0.0000

 Normal termination of Gaussian 09 at Thu Feb  9 16:02:39 2017.
