 Gaussian 09, Revision E.01,
 Gaussian 09:  ES64L-G09RevE.01 30-Nov-2015

 ----------------------------------------------------------------------
 #rhf/gen scf(symm,tight,novaracc,noincfock,fulldiag) stable(crhf) geom
 =nocrowd test
 ----------------------------------------------------------------------

 hf stability analysis of h10 triangular lattice, y= 0.6152458342516039
 5
 ----------------------------------------------------------------------
 Symbolic Z-matrix:
 Charge =  0 Multiplicity = 1

                         Standard orientation:
 ---------------------------------------------------------------------
 Center     Atomic      Atomic             Coordinates (Angstroms)
 Number     Number       Type             X           Y           Z
 ---------------------------------------------------------------------
      1          1           0        0.000000    0.615246    1.876812
      2          1           0        0.000000    0.000000    2.815217
      3          1           0        0.000000    0.000000    0.938406
      4          1           0       -0.000000   -0.615246    1.876812
      5          1           0       -0.000000    0.615246   -0.000000
      6          1           0       -0.000000   -0.615246    0.000000
      7          1           0        0.000000   -0.000000   -0.938406
      8          1           0        0.000000    0.615246   -1.876812
      9          1           0       -0.000000   -0.615246   -1.876812
     10          1           0        0.000000   -0.000000   -2.815217
 ---------------------------------------------------------------------

 SCF Done:  E(RHF) =  -4.80112127507     A.U. after    9 cycles
 E2 =    -0.1329867606D+00 EUMP2 =    -0.49341080356624D+01

 The electronic state is 1-AG.
 Alpha  occ. eigenvalues --   -0.80875  -0.72963  -0.56241  -0.30617  -0.25679
 Alpha virt. eigenvalues --    0.02019   0.13330   0.20535   0.44032   0.69341

 Mulliken charges:
               1
     1  H    0.170189
     2  H   -0.131878
     3  H   -0.225138
     4  H    0.170189
     5  H    0.016638
     6  H    0.016638
     7  H   -0.225138
     8  H    0.170189
     9  H    0.170189
    10  H   -0.131878
 Sum of Mulliken charges =  -0.00000

 Dipole moment (field-independent basis, Debye):
    X=             -0.0000    Y=             -0.0000    Z=             -0.0000  Tot=              0.0000
 Quadrupole moment (field-independent basis, Debye-Ang):
   XX=            -13.0816   YY=            -13.3439   ZZ=            -15.5152
   XY=              0.0000   XZ=              0.0000   YZ=             -0.0000

 Normal termination of Gaussian 09 at Thu Feb  9 15:44:56 2017.
