 Gaussian 09, Revision E.01,
 Gaussian 09:  ES64L-G09RevE.01 30-Nov-2015

 ----------------------------------------------------------------------
 #rhf/gen scf(symm,tight,novaracc,noincfock,fulldiag) stable(crhf) geom
 =nocrowd test
 ----------------------------------------------------------------------

 hf stability analysis of h10 triangular lattice, y= 0.7299065123554034
 9
 ----------------------------------------------------------------------
 Symbolic Z-matrix:
 Charge =  0 Multiplicity = 1

                         Standard orientation:
 ---------------------------------------------------------------------
 Center     Atomic      Atomic             Coordinates (Angstroms)
 Number     Number       Type             X           Y           Z
 ---------------------------------------------------------------------
      1          1           0        0.000000    0.729906    1.581984
      2          1           0        0.000000   -0.000000    2.372976
      3          1           0        0.000000   -0.000000    0.790992
      4          1           0       -0.000000   -0.729906    1.581984
      5          1           0       -0.000000    0.729906    0.000000
      6          1           0       -0.000000   -0.729906   -0.000000
      7          1           0        0.000000    0.000000   -0.790992
      8          1           0        0.000000    0.729906   -1.581984
      9          1           0       -0.000000   -0.729906   -1.581984
     10          1           0        0.000000    0.000000   -2.372976
 ---------------------------------------------------------------------

 SCF Done:  E(RHF) =  -4.81064010078     A.U. after    8 cycles
 E2 =    -0.9868694519D-01 EUMP2 =    -0.49093270459691D+01

 The electronic state is 1-AG.
 Alpha  occ. eigenvalues --   -0.89751  -0.74321  -0.53011  -0.43825  -0.26060
 Alpha virt. eigenvalues --   -0.04189   0.14488   0.30421   0.54640   0.57031

 Mulliken charges:
               1
     1  H   -0.227803
     2  H    0.258170
     3  H    0.177550
     4  H   -0.227803
     5  H    0.019886
     6  H    0.019886
     7  H    0.177550
     8  H   -0.227803
     9  H   -0.227803
    10  H    0.258170
 Sum of Mulliken charges =  -0.00000

 Dipole moment (field-independent basis, Debye):
    X=              0.0000    Y=             -0.0000    Z=             -0.0000  Tot=              0.0000
 Quadrupole moment (field-independent basis, Debye-Ang):
   XX=            -13.0209   YY=            -18.9190   ZZ=             -9.5504
   XY=             -0.0000   XZ=             -0.0000   YZ=             -0.0000

 Normal termination of Gaussian 09 at Thu Feb  9 15:36:47 2017.
