 Gaussian 09, Revision E.01,
 Gaussian 09:  ES64L-G09RevE.01 30-Nov-2015

 ----------------------------------------------------------------------
 #rhf/gen scf(symm,tight,novaracc,noincfock,fulldiag) stable(crhf) geom
 =nocrowd test
 ----------------------------------------------------------------------

 hf stability analysis of h10 triangular lattice, y= 0.4509070092210429
 3
 ----------------------------------------------------------------------
 Symbolic Z-matrix:
 Charge =  0 Multiplicity = 1

                         Standard orientation:
 ---------------------------------------------------------------------
 Center     Atomic      Atomic             Coordinates (Angstroms)
 Number     Number       Type             X           Y           Z
 ---------------------------------------------------------------------
      1          1           0        0.000000    0.450907    2.560840
      2          1           0        0.000000    0.000000    3.841259
      3          1           0        0.000000    0.000000    1.280420
      4          1           0       -0.000000   -0.450907    2.560840
      5          1           0       -0.000000    0.450907    0.000000
      6          1           0       -0.000000   -0.450907    0.000000
      7          1           0        0.000000   -0.000000   -1.280420
      8          1           0        0.000000    0.450907   -2.560840
      9          1           0       -0.000000   -0.450907   -2.560840
     10          1           0        0.000000   -0.000000   -3.841259
 ---------------------------------------------------------------------

 SCF Done:  E(RHF) =  -4.89457392428     A.U. after    9 cycles
 E2 =    -0.1080882277D+00 EUMP2 =    -0.50026621520068D+01

 The electronic state is 1-AG.
 Alpha  occ. eigenvalues --   -0.75506  -0.71128  -0.64428  -0.33767  -0.21501
 Alpha virt. eigenvalues --    0.11227   0.18378   0.22570   0.26783   0.27702

 Mulliken charges:
               1
     1  H    0.181026
     2  H   -0.305624
     3  H   -0.148468
     4  H    0.181026
     5  H    0.092039
     6  H    0.092039
     7  H   -0.148468
     8  H    0.181026
     9  H    0.181026
    10  H   -0.305624
 Sum of Mulliken charges =  -0.00000

 Dipole moment (field-independent basis, Debye):
    X=             -0.0000    Y=             -0.0000    Z=             -0.0000  Tot=              0.0000
 Quadrupole moment (field-independent basis, Debye-Ang):
   XX=            -13.3075   YY=            -10.8285   ZZ=            -40.3358
   XY=              0.0000   XZ=              0.0000   YZ=             -0.0000

 Normal termination of Gaussian 09 at Thu Feb  9 15:56:55 2017.
