 Gaussian 09, Revision E.01,
 Gaussian 09:  ES64L-G09RevE.01 30-Nov-2015

 ----------------------------------------------------------------------
 #rhf/gen scf(symm,tight,novaracc,noincfock,fulldiag) stable(crhf) geom
 =nocrowd test
 ----------------------------------------------------------------------

 hf stability analysis of h10 triangular lattice, y= 0.5808410012095113
 2
 ----------------------------------------------------------------------
 Symbolic Z-matrix:
 Charge =  0 Multiplicity = 1

                         Standard orientation:
 ---------------------------------------------------------------------
 Center     Atomic      Atomic             Coordinates (Angstroms)
 Number     Number       Type             X           Y           Z
 ---------------------------------------------------------------------
      1          1           0        0.000000    0.580841    1.987980
      2          1           0       -0.000000    0.000000    2.981971
      3          1           0       -0.000000    0.000000    0.993990
      4          1           0       -0.000000   -0.580841    1.987980
      5          1           0        0.000000    0.580841    0.000000
      6          1           0       -0.000000   -0.580841    0.000000
      7          1           0        0.000000    0.000000   -0.993990
      8          1           0        0.000000    0.580841   -1.987980
      9          1           0       -0.000000   -0.580841   -1.987980
     10          1           0        0.000000    0.000000   -2.981971
 ---------------------------------------------------------------------

 SCF Done:  E(RHF) =  -4.76631427999     A.U. after    9 cycles
 E2 =    -0.1490277409D+00 EUMP2 =    -0.49153420208787D+01

 The electronic state is 1-AG.
 Alpha  occ. eigenvalues --   -0.79072  -0.72404  -0.56913  -0.31391  -0.21136
 Alpha virt. eigenvalues --    0.04509   0.08512   0.21404   0.37978   0.65604

 Mulliken charges:
               1
     1  H    0.132600
     2  H   -0.075911
     3  H   -0.187306
     4  H    0.132600
     5  H   -0.001983
     6  H   -0.001983
     7  H   -0.187306
     8  H    0.132600
     9  H    0.132600
    10  H   -0.075911
 Sum of Mulliken charges =   0.00000

 Dipole moment (field-independent basis, Debye):
    X=             -0.0000    Y=              0.0000    Z=              0.0000  Tot=              0.0000
 Quadrupole moment (field-independent basis, Debye-Ang):
   XX=            -13.1584   YY=            -13.9804   ZZ=            -12.8386
   XY=             -0.0000   XZ=              0.0000   YZ=             -0.0000

 Normal termination of Gaussian 09 at Thu Feb  9 15:47:32 2017.
