 Gaussian 09, Revision E.01,
 Gaussian 09:  ES64L-G09RevE.01 30-Nov-2015

 ----------------------------------------------------------------------
 #rhf/gen scf(symm,tight,novaracc,noincfock,fulldiag) stable(crhf) geom
 =nocrowd test
 ----------------------------------------------------------------------

 hf stability analysis of h10 triangular lattice, y= 0.4446022775634769
 8
 ----------------------------------------------------------------------
 Symbolic Z-matrix:
 Charge =  0 Multiplicity = 1

                         Standard orientation:
 ---------------------------------------------------------------------
 Center     Atomic      Atomic             Coordinates (Angstroms)
 Number     Number       Type             X           Y           Z
 ---------------------------------------------------------------------
      1          1           0        0.000000    0.444602    2.597154
      2          1           0        0.000000    0.000000    3.895731
      3          1           0        0.000000    0.000000    1.298577
      4          1           0       -0.000000   -0.444602    2.597154
      5          1           0        0.000000    0.444602   -0.000000
      6          1           0       -0.000000   -0.444602    0.000000
      7          1           0        0.000000   -0.000000   -1.298577
      8          1           0        0.000000    0.444602   -2.597154
      9          1           0       -0.000000   -0.444602   -2.597154
     10          1           0        0.000000   -0.000000   -3.895731
 ---------------------------------------------------------------------

 SCF Done:  E(RHF) =  -4.89886981929     A.U. after    9 cycles
 E2 =    -0.1110787510D+00 EUMP2 =    -0.50099485702534D+01

 The electronic state is 1-AG.
 Alpha  occ. eigenvalues --   -0.75156  -0.71008  -0.64628  -0.33612  -0.21795
 Alpha virt. eigenvalues --    0.10105   0.19437   0.23385   0.25027   0.28345

 Mulliken charges:
               1
     1  H    0.174040
     2  H   -0.294194
     3  H   -0.141472
     4  H    0.174040
     5  H    0.087585
     6  H    0.087585
     7  H   -0.141472
     8  H    0.174040
     9  H    0.174040
    10  H   -0.294194
 Sum of Mulliken charges =  -0.00000

 Dipole moment (field-independent basis, Debye):
    X=             -0.0000    Y=             -0.0000    Z=              0.0000  Tot=              0.0000
 Quadrupole moment (field-independent basis, Debye-Ang):
   XX=            -13.3350   YY=            -10.9386   ZZ=            -39.9908
   XY=              0.0000   XZ=              0.0000   YZ=             -0.0000

 Normal termination of Gaussian 09 at Thu Feb  9 15:57:21 2017.
