 Gaussian 09, Revision E.01,
 Gaussian 09:  ES64L-G09RevE.01 30-Nov-2015

 ----------------------------------------------------------------------
 #rhf/gen scf(symm,tight,novaracc,noincfock,fulldiag) stable(crhf) geom
 =nocrowd test
 ----------------------------------------------------------------------

 hf stability analysis of h10 triangular lattice, y= 0.5884060480197481
 6
 ----------------------------------------------------------------------
 Symbolic Z-matrix:
 Charge =  0 Multiplicity = 1

                         Standard orientation:
 ---------------------------------------------------------------------
 Center     Atomic      Atomic             Coordinates (Angstroms)
 Number     Number       Type             X           Y           Z
 ---------------------------------------------------------------------
      1          1           0       -0.000000    0.588406    1.962421
      2          1           0       -0.000000   -0.000000    2.943632
      3          1           0       -0.000000   -0.000000    0.981211
      4          1           0       -0.000000   -0.588406    1.962421
      5          1           0        0.000000    0.588406    0.000000
      6          1           0       -0.000000   -0.588406   -0.000000
      7          1           0        0.000000    0.000000   -0.981211
      8          1           0        0.000000    0.588406   -1.962421
      9          1           0       -0.000000   -0.588406   -1.962421
     10          1           0        0.000000    0.000000   -2.943632
 ---------------------------------------------------------------------

 SCF Done:  E(RHF) =  -4.77562913334     A.U. after    9 cycles
 E2 =    -0.1451273804D+00 EUMP2 =    -0.49207565137320D+01

 The electronic state is 1-AG.
 Alpha  occ. eigenvalues --   -0.79487  -0.72551  -0.56789  -0.31267  -0.22174
 Alpha virt. eigenvalues --    0.03926   0.09547   0.21173   0.39360   0.66671

 Mulliken charges:
               1
     1  H    0.141138
     2  H   -0.088433
     3  H   -0.196368
     4  H    0.141138
     5  H    0.002525
     6  H    0.002525
     7  H   -0.196368
     8  H    0.141138
     9  H    0.141138
    10  H   -0.088433
 Sum of Mulliken charges =  -0.00000

 Dipole moment (field-independent basis, Debye):
    X=             -0.0000    Y=              0.0000    Z=              0.0000  Tot=              0.0000
 Quadrupole moment (field-independent basis, Debye-Ang):
   XX=            -13.1418   YY=            -13.8455   ZZ=            -13.4785
   XY=              0.0000   XZ=              0.0000   YZ=             -0.0000

 Normal termination of Gaussian 09 at Thu Feb  9 15:46:57 2017.
