 Gaussian 09, Revision E.01,
 Gaussian 09:  ES64L-G09RevE.01 30-Nov-2015

 ----------------------------------------------------------------------
 #rhf/gen scf(symm,tight,novaracc,noincfock,fulldiag) stable(crhf) geom
 =nocrowd test
 ----------------------------------------------------------------------

 hf stability analysis of h10 triangular lattice, y= 0.3231128888021356
 2
 ----------------------------------------------------------------------
 Symbolic Z-matrix:
 Charge =  0 Multiplicity = 1

                         Standard orientation:
 ---------------------------------------------------------------------
 Center     Atomic      Atomic             Coordinates (Angstroms)
 Number     Number       Type             X           Y           Z
 ---------------------------------------------------------------------
      1          1           0        0.000000    0.323113    3.573675
      2          1           0        0.000000   -0.000000    5.360513
      3          1           0        0.000000   -0.000000    1.786838
      4          1           0       -0.000000   -0.323113    3.573675
      5          1           0        0.000000    0.323113    0.000000
      6          1           0       -0.000000   -0.323113   -0.000000
      7          1           0        0.000000    0.000000   -1.786838
      8          1           0        0.000000    0.323113   -3.573675
      9          1           0       -0.000000   -0.323113   -3.573675
     10          1           0        0.000000    0.000000   -5.360513
 ---------------------------------------------------------------------

 SCF Done:  E(RHF) =  -4.74889694663     A.U. after   10 cycles
 E2 =    -0.2682894512D+00 EUMP2 =    -0.50171863977928D+01

 The electronic state is 1-AG.
 Alpha  occ. eigenvalues --   -0.70277  -0.69621  -0.68059  -0.28353  -0.24440
 Alpha virt. eigenvalues --   -0.07039  -0.02635   0.43328   0.44030   0.45972

 Mulliken charges:
               1
     1  H    0.040407
     2  H   -0.076349
     3  H   -0.017069
     4  H    0.040407
     5  H    0.012604
     6  H    0.012604
     7  H   -0.017069
     8  H    0.040407
     9  H    0.040407
    10  H   -0.076349
 Sum of Mulliken charges =  -0.00000

 Dipole moment (field-independent basis, Debye):
    X=             -0.0000    Y=              0.0000    Z=             -0.0000  Tot=              0.0000
 Quadrupole moment (field-independent basis, Debye-Ang):
   XX=            -13.6118   YY=            -12.4809   ZZ=            -26.9176
   XY=              0.0000   XZ=              0.0000   YZ=              0.0000

 Normal termination of Gaussian 09 at Thu Feb  9 16:03:55 2017.
