 Gaussian 09, Revision E.01,
 Gaussian 09:  ES64L-G09RevE.01 30-Nov-2015

 ----------------------------------------------------------------------
 #rhf/gen scf(symm,tight,novaracc,noincfock,fulldiag) stable(crhf) geom
 =nocrowd test
 ----------------------------------------------------------------------

 hf stability analysis of h10 triangular lattice, y= 0.5593063336252003
 2
 ----------------------------------------------------------------------
 Symbolic Z-matrix:
 Charge =  0 Multiplicity = 1

                         Standard orientation:
 ---------------------------------------------------------------------
 Center     Atomic      Atomic             Coordinates (Angstroms)
 Number     Number       Type             X           Y           Z
 ---------------------------------------------------------------------
      1          1           0       -0.000000    0.559306    2.064523
      2          1           0       -0.000000    0.000000    3.096784
      3          1           0       -0.000000    0.000000    1.032261
      4          1           0       -0.000000   -0.559306    2.064523
      5          1           0       -0.000000    0.559306    0.000000
      6          1           0       -0.000000   -0.559306    0.000000
      7          1           0        0.000000    0.000000   -1.032261
      8          1           0        0.000000    0.559306   -2.064523
      9          1           0       -0.000000   -0.559306   -2.064523
     10          1           0        0.000000    0.000000   -3.096784
 ---------------------------------------------------------------------

 SCF Done:  E(RHF) =  -4.73426111579     A.U. after    9 cycles
 E2 =    -0.1614746998D+00 EUMP2 =    -0.48957358155439D+01

 The electronic state is 1-AG.
 Alpha  occ. eigenvalues --   -0.77834  -0.71914  -0.57188  -0.31604  -0.18055
 Alpha virt. eigenvalues --    0.05651   0.06285   0.22190   0.33937   0.61890

 Mulliken charges:
               1
     1  H    0.107526
     2  H   -0.039738
     3  H   -0.159307
     4  H    0.107526
     5  H   -0.016007
     6  H   -0.016007
     7  H   -0.159307
     8  H    0.107526
     9  H    0.107526
    10  H   -0.039738
 Sum of Mulliken charges =  -0.00000

 Dipole moment (field-independent basis, Debye):
    X=             -0.0000    Y=              0.0000    Z=              0.0000  Tot=              0.0000
 Quadrupole moment (field-independent basis, Debye-Ang):
   XX=            -13.2043   YY=            -14.3469   ZZ=            -10.8424
   XY=             -0.0000   XZ=              0.0000   YZ=             -0.0000

 Normal termination of Gaussian 09 at Thu Feb  9 15:49:09 2017.
