 Gaussian 09, Revision E.01,
 Gaussian 09:  ES64L-G09RevE.01 30-Nov-2015

 ----------------------------------------------------------------------
 #rhf/gen scf(symm,tight,novaracc,noincfock,fulldiag) stable(crhf) geom
 =nocrowd test
 ----------------------------------------------------------------------

 hf stability analysis of h10 triangular lattice, y= 0.6405478082930795
 6
 ----------------------------------------------------------------------
 Symbolic Z-matrix:
 Charge =  0 Multiplicity = 1

                         Standard orientation:
 ---------------------------------------------------------------------
 Center     Atomic      Atomic             Coordinates (Angstroms)
 Number     Number       Type             X           Y           Z
 ---------------------------------------------------------------------
      1          1           0        0.000000    0.640548    1.802677
      2          1           0        0.000000    0.000000    2.704015
      3          1           0        0.000000    0.000000    0.901338
      4          1           0       -0.000000   -0.640548    1.802677
      5          1           0       -0.000000    0.640548   -0.000000
      6          1           0       -0.000000   -0.640548    0.000000
      7          1           0        0.000000    0.000000   -0.901338
      8          1           0        0.000000    0.640548   -1.802677
      9          1           0       -0.000000   -0.640548   -1.802677
     10          1           0        0.000000    0.000000   -2.704015
 ---------------------------------------------------------------------

 SCF Done:  E(RHF) =  -4.81515885320     A.U. after    9 cycles
 E2 =    -0.1236225292D+00 EUMP2 =    -0.49387813824403D+01

 The electronic state is 1-AG.
 Alpha  occ. eigenvalues --   -0.82053  -0.73196  -0.55568  -0.29711  -0.28751
 Alpha virt. eigenvalues --    0.00433   0.17031   0.20174   0.47986   0.70173

 Mulliken charges:
               1
     1  H    0.195631
     2  H   -0.171147
     3  H   -0.247199
     4  H    0.195631
     5  H    0.027083
     6  H    0.027083
     7  H   -0.247199
     8  H    0.195631
     9  H    0.195631
    10  H   -0.171147
 Sum of Mulliken charges =   0.00000

 Dipole moment (field-independent basis, Debye):
    X=             -0.0000    Y=             -0.0000    Z=             -0.0000  Tot=              0.0000
 Quadrupole moment (field-independent basis, Debye-Ang):
   XX=            -13.0236   YY=            -12.8425   ZZ=            -17.1361
   XY=              0.0000   XZ=              0.0000   YZ=             -0.0000

 Normal termination of Gaussian 09 at Thu Feb  9 15:43:04 2017.
