 Gaussian 09, Revision E.01,
 Gaussian 09:  ES64L-G09RevE.01 30-Nov-2015

 ----------------------------------------------------------------------
 #rhf/gen scf(symm,tight,novaracc,noincfock,fulldiag) stable(crhf) geom
 =nocrowd test
 ----------------------------------------------------------------------

 hf stability analysis of h10 triangular lattice, y= 0.5499756936189851
 3
 ----------------------------------------------------------------------
 Symbolic Z-matrix:
 Charge =  0 Multiplicity = 1

                         Standard orientation:
 ---------------------------------------------------------------------
 Center     Atomic      Atomic             Coordinates (Angstroms)
 Number     Number       Type             X           Y           Z
 ---------------------------------------------------------------------
      1          1           0        0.000000    0.549976    2.099548
      2          1           0        0.000000    0.000000    3.149322
      3          1           0        0.000000    0.000000    1.049774
      4          1           0       -0.000000   -0.549976    2.099548
      5          1           0       -0.000000    0.549976    0.000000
      6          1           0       -0.000000   -0.549976   -0.000000
      7          1           0        0.000000   -0.000000   -1.049774
      8          1           0        0.000000    0.549976   -2.099548
      9          1           0       -0.000000   -0.549976   -2.099548
     10          1           0        0.000000   -0.000000   -3.149322
 ---------------------------------------------------------------------

 SCF Done:  E(RHF) =  -4.71768594944     A.U. after    9 cycles
 E2 =    -0.1675597064D+00 EUMP2 =    -0.48852456558308D+01

 The electronic state is 1-AG.
 Alpha  occ. eigenvalues --   -0.77275  -0.71668  -0.57273  -0.31632  -0.16659
 Alpha virt. eigenvalues --    0.04452   0.07111   0.22594   0.32152   0.60006

 Mulliken charges:
               1
     1  H    0.096330
     2  H   -0.023871
     3  H   -0.146181
     4  H    0.096330
     5  H   -0.022608
     6  H   -0.022608
     7  H   -0.146181
     8  H    0.096330
     9  H    0.096330
    10  H   -0.023871
 Sum of Mulliken charges =   0.00000

 Dipole moment (field-independent basis, Debye):
    X=             -0.0000    Y=              0.0000    Z=              0.0000  Tot=              0.0000
 Quadrupole moment (field-independent basis, Debye-Ang):
   XX=            -13.2234   YY=            -14.4972   ZZ=             -9.8919
   XY=             -0.0000   XZ=             -0.0000   YZ=             -0.0000

 Normal termination of Gaussian 09 at Thu Feb  9 15:49:50 2017.
