 Gaussian 09, Revision E.01,
 Gaussian 09:  ES64L-G09RevE.01 30-Nov-2015

 ----------------------------------------------------------------------
 #rhf/gen scf(symm,tight,novaracc,noincfock,fulldiag) stable(crhf) geom
 =nocrowd test
 ----------------------------------------------------------------------

 hf stability analysis of h10 triangular lattice, y= 0.6494484672685478
 8
 ----------------------------------------------------------------------
 Symbolic Z-matrix:
 Charge =  0 Multiplicity = 1

                         Standard orientation:
 ---------------------------------------------------------------------
 Center     Atomic      Atomic             Coordinates (Angstroms)
 Number     Number       Type             X           Y           Z
 ---------------------------------------------------------------------
      1          1           0        0.000000    0.649448    1.777971
      2          1           0        0.000000   -0.000000    2.666957
      3          1           0        0.000000   -0.000000    0.888985
      4          1           0       -0.000000   -0.649448    1.777971
      5          1           0       -0.000000    0.649448    0.000000
      6          1           0       -0.000000   -0.649448   -0.000000
      7          1           0        0.000000    0.000000   -0.888985
      8          1           0        0.000000    0.649448   -1.777971
      9          1           0       -0.000000   -0.649448   -1.777971
     10          1           0        0.000000    0.000000   -2.666957
 ---------------------------------------------------------------------

 SCF Done:  E(RHF) =  -4.81795552514     A.U. after    9 cycles
 E2 =    -0.1207410275D+00 EUMP2 =    -0.49386965526501D+01

 The electronic state is 1-AG.
 Alpha  occ. eigenvalues --   -0.82437  -0.73242  -0.55297  -0.29781  -0.29326
 Alpha virt. eigenvalues --   -0.00081   0.18357   0.20099   0.49247   0.70079

 Mulliken charges:
               1
     1  H    0.204095
     2  H   -0.184515
     3  H   -0.253739
     4  H    0.204095
     5  H    0.030065
     6  H    0.030065
     7  H   -0.253739
     8  H    0.204095
     9  H    0.204095
    10  H   -0.184515
 Sum of Mulliken charges =   0.00000

 Dipole moment (field-independent basis, Debye):
    X=             -0.0000    Y=             -0.0000    Z=             -0.0000  Tot=              0.0000
 Quadrupole moment (field-independent basis, Debye-Ang):
   XX=            -13.0032   YY=            -12.6606   ZZ=            -17.6449
   XY=              0.0000   XZ=              0.0000   YZ=             -0.0000

 Normal termination of Gaussian 09 at Thu Feb  9 15:42:24 2017.
