 Gaussian 09, Revision E.01,
 Gaussian 09:  ES64L-G09RevE.01 30-Nov-2015

 ----------------------------------------------------------------------
 #rhf/gen scf(symm,tight,novaracc,noincfock,fulldiag) stable(crhf) geom
 =nocrowd test
 ----------------------------------------------------------------------

 hf stability analysis of h10 triangular lattice, y= 0.3465386445008242
 8
 ----------------------------------------------------------------------
 Symbolic Z-matrix:
 Charge =  0 Multiplicity = 1

                         Standard orientation:
 ---------------------------------------------------------------------
 Center     Atomic      Atomic             Coordinates (Angstroms)
 Number     Number       Type             X           Y           Z
 ---------------------------------------------------------------------
      1          1           0       -0.000000    0.346539    3.332097
      2          1           0       -0.000000    0.000000    4.998146
      3          1           0       -0.000000    0.000000    1.666049
      4          1           0       -0.000000   -0.346539    3.332097
      5          1           0       -0.000000    0.346539    0.000000
      6          1           0       -0.000000   -0.346539    0.000000
      7          1           0        0.000000   -0.000000   -1.666049
      8          1           0        0.000000    0.346539   -3.332097
      9          1           0       -0.000000   -0.346539   -3.332097
     10          1           0        0.000000   -0.000000   -4.998146
 ---------------------------------------------------------------------

 SCF Done:  E(RHF) =  -4.81549547658     A.U. after   10 cycles
 E2 =    -0.2158931695D+00 EUMP2 =    -0.50313886461016D+01

 The electronic state is 1-AG.
 Alpha  occ. eigenvalues --   -0.70707  -0.69610  -0.67347  -0.29537  -0.24314
 Alpha virt. eigenvalues --   -0.04504   0.01509   0.38219   0.39297   0.41816

 Mulliken charges:
               1
     1  H    0.063232
     2  H   -0.113376
     3  H   -0.036733
     4  H    0.063232
     5  H    0.023644
     6  H    0.023644
     7  H   -0.036733
     8  H    0.063232
     9  H    0.063232
    10  H   -0.113376
 Sum of Mulliken charges =  -0.00000

 Dipole moment (field-independent basis, Debye):
    X=             -0.0000    Y=              0.0000    Z=              0.0000  Tot=              0.0000
 Quadrupole moment (field-independent basis, Debye-Ang):
   XX=            -13.6017   YY=            -12.2778   ZZ=            -30.2573
   XY=              0.0000   XZ=              0.0000   YZ=             -0.0000

 Normal termination of Gaussian 09 at Thu Feb  9 16:02:53 2017.
