 Gaussian 09, Revision E.01,
 Gaussian 09:  ES64L-G09RevE.01 30-Nov-2015

 ----------------------------------------------------------------------
 #rhf/gen scf(symm,tight,novaracc,noincfock,fulldiag) stable(crhf) geom
 =nocrowd test
 ----------------------------------------------------------------------

 hf stability analysis of h10 triangular lattice, y= 0.4128813956264361
 1
 ----------------------------------------------------------------------
 Symbolic Z-matrix:
 Charge =  0 Multiplicity = 1

                         Standard orientation:
 ---------------------------------------------------------------------
 Center     Atomic      Atomic             Coordinates (Angstroms)
 Number     Number       Type             X           Y           Z
 ---------------------------------------------------------------------
      1          1           0        0.000000    0.412881    2.796688
      2          1           0        0.000000    0.000000    4.195032
      3          1           0        0.000000    0.000000    1.398344
      4          1           0       -0.000000   -0.412881    2.796688
      5          1           0       -0.000000    0.412881   -0.000000
      6          1           0       -0.000000   -0.412881    0.000000
      7          1           0        0.000000   -0.000000   -1.398344
      8          1           0        0.000000    0.412881   -2.796688
      9          1           0       -0.000000   -0.412881   -2.796688
     10          1           0        0.000000   -0.000000   -4.195032
 ---------------------------------------------------------------------

 SCF Done:  E(RHF) =  -4.90356183101     A.U. after    8 cycles
 E2 =    -0.1310540047D+00 EUMP2 =    -0.50346158357397D+01

 The electronic state is 1-AG.
 Alpha  occ. eigenvalues --   -0.73443  -0.70420  -0.65565  -0.32593  -0.23014
 Alpha virt. eigenvalues --    0.04754   0.16526   0.25034   0.27844   0.31977

 Mulliken charges:
               1
     1  H    0.138034
     2  H   -0.235232
     3  H   -0.106238
     4  H    0.138034
     5  H    0.065402
     6  H    0.065402
     7  H   -0.106238
     8  H    0.138034
     9  H    0.138034
    10  H   -0.235232
 Sum of Mulliken charges =  -0.00000

 Dipole moment (field-independent basis, Debye):
    X=             -0.0000    Y=              0.0000    Z=              0.0000  Tot=              0.0000
 Quadrupole moment (field-independent basis, Debye-Ang):
   XX=            -13.4577   YY=            -11.4530   ZZ=            -37.7589
   XY=              0.0000   XZ=              0.0000   YZ=             -0.0000

 Normal termination of Gaussian 09 at Thu Feb  9 15:59:26 2017.
