 Gaussian 09, Revision E.01,
 Gaussian 09:  ES64L-G09RevE.01 30-Nov-2015

 ----------------------------------------------------------------------
 #rhf/gen scf(symm,tight,novaracc,noincfock,fulldiag) stable(crhf) geom
 =nocrowd test
 ----------------------------------------------------------------------

 hf stability analysis of h10 triangular lattice, y= 0.6058917185466935
 5
 ----------------------------------------------------------------------
 Symbolic Z-matrix:
 Charge =  0 Multiplicity = 1

                         Standard orientation:
 ---------------------------------------------------------------------
 Center     Atomic      Atomic             Coordinates (Angstroms)
 Number     Number       Type             X           Y           Z
 ---------------------------------------------------------------------
      1          1           0        0.000000    0.605892    1.905787
      2          1           0        0.000000    0.000000    2.858680
      3          1           0        0.000000    0.000000    0.952893
      4          1           0       -0.000000   -0.605892    1.905787
      5          1           0       -0.000000    0.605892    0.000000
      6          1           0       -0.000000   -0.605892   -0.000000
      7          1           0        0.000000    0.000000   -0.952893
      8          1           0        0.000000    0.605892   -1.905787
      9          1           0       -0.000000   -0.605892   -1.905787
     10          1           0        0.000000    0.000000   -2.858680
 ---------------------------------------------------------------------

 SCF Done:  E(RHF) =  -4.79353078435     A.U. after    9 cycles
 E2 =    -0.1369369226D+00 EUMP2 =    -0.49304677069348D+01

 The electronic state is 1-AG.
 Alpha  occ. eigenvalues --   -0.80407  -0.72839  -0.56451  -0.30881  -0.24488
 Alpha virt. eigenvalues --    0.02656   0.11993   0.20727   0.42451   0.68615

 Mulliken charges:
               1
     1  H    0.160293
     2  H   -0.116927
     3  H   -0.215722
     4  H    0.160293
     5  H    0.012062
     6  H    0.012062
     7  H   -0.215722
     8  H    0.160293
     9  H    0.160293
    10  H   -0.116927
 Sum of Mulliken charges =   0.00000

 Dipole moment (field-independent basis, Debye):
    X=             -0.0000    Y=             -0.0000    Z=             -0.0000  Tot=              0.0000
 Quadrupole moment (field-independent basis, Debye-Ang):
   XX=            -13.1027   YY=            -13.5226   ZZ=            -14.8450
   XY=              0.0000   XZ=              0.0000   YZ=              0.0000

 Normal termination of Gaussian 09 at Thu Feb  9 15:45:38 2017.
