 Gaussian 09, Revision E.01,
 Gaussian 09:  ES64L-G09RevE.01 30-Nov-2015

 ----------------------------------------------------------------------
 #rhf/gen scf(symm,tight,novaracc,noincfock,fulldiag) stable(crhf) geom
 =nocrowd test
 ----------------------------------------------------------------------

 hf stability analysis of h10 triangular lattice, y= 0.4337622183300017
 3
 ----------------------------------------------------------------------
 Symbolic Z-matrix:
 Charge =  0 Multiplicity = 1

                         Standard orientation:
 ---------------------------------------------------------------------
 Center     Atomic      Atomic             Coordinates (Angstroms)
 Number     Number       Type             X           Y           Z
 ---------------------------------------------------------------------
      1          1           0        0.000000    0.433762    2.662059
      2          1           0        0.000000   -0.000000    3.993088
      3          1           0        0.000000   -0.000000    1.331029
      4          1           0       -0.000000   -0.433762    2.662059
      5          1           0        0.000000    0.433762    0.000000
      6          1           0       -0.000000   -0.433762   -0.000000
      7          1           0        0.000000    0.000000   -1.331029
      8          1           0        0.000000    0.433762   -2.662059
      9          1           0       -0.000000   -0.433762   -2.662059
     10          1           0        0.000000    0.000000   -3.993088
 ---------------------------------------------------------------------

 SCF Done:  E(RHF) =  -4.90368516097     A.U. after    8 cycles
 E2 =    -0.1169123343D+00 EUMP2 =    -0.50205974953022D+01

 The electronic state is 1-AG.
 Alpha  occ. eigenvalues --   -0.74559  -0.70802  -0.64961  -0.33307  -0.22259
 Alpha virt. eigenvalues --    0.08219   0.21299   0.22053   0.24841   0.29510

 Mulliken charges:
               1
     1  H    0.161880
     2  H   -0.274284
     3  H   -0.129427
     4  H    0.161880
     5  H    0.079951
     6  H    0.079951
     7  H   -0.129427
     8  H    0.161880
     9  H    0.161880
    10  H   -0.274284
 Sum of Mulliken charges =  -0.00000

 Dipole moment (field-independent basis, Debye):
    X=             -0.0000    Y=             -0.0000    Z=              0.0000  Tot=              0.0000
 Quadrupole moment (field-independent basis, Debye-Ang):
   XX=            -13.3800   YY=            -11.1220   ZZ=            -39.3239
   XY=              0.0000   XZ=              0.0000   YZ=              0.0000

 Normal termination of Gaussian 09 at Thu Feb  9 15:58:04 2017.
