 Gaussian 09, Revision E.01,
 Gaussian 09:  ES64L-G09RevE.01 30-Nov-2015

 ----------------------------------------------------------------------
 #rhf/gen scf(symm,tight,novaracc,noincfock,fulldiag) stable(crhf) geom
 =nocrowd test
 ----------------------------------------------------------------------

 hf stability analysis of h10 triangular lattice, y= 0.4571628660630149
 8
 ----------------------------------------------------------------------
 Symbolic Z-matrix:
 Charge =  0 Multiplicity = 1

                         Standard orientation:
 ---------------------------------------------------------------------
 Center     Atomic      Atomic             Coordinates (Angstroms)
 Number     Number       Type             X           Y           Z
 ---------------------------------------------------------------------
      1          1           0        0.000000    0.457163    2.525797
      2          1           0       -0.000000    0.000000    3.788695
      3          1           0       -0.000000    0.000000    1.262898
      4          1           0       -0.000000   -0.457163    2.525797
      5          1           0        0.000000    0.457163    0.000000
      6          1           0       -0.000000   -0.457163   -0.000000
      7          1           0        0.000000    0.000000   -1.262898
      8          1           0        0.000000    0.457163   -2.525797
      9          1           0       -0.000000   -0.457163   -2.525797
     10          1           0        0.000000    0.000000   -3.788695
 ---------------------------------------------------------------------

 SCF Done:  E(RHF) =  -4.88924281131     A.U. after    9 cycles
 E2 =    -0.1053865638D+00 EUMP2 =    -0.49946293750672D+01

 The electronic state is 1-AG.
 Alpha  occ. eigenvalues --   -0.75855  -0.71248  -0.64224  -0.33904  -0.21192
 Alpha virt. eigenvalues --    0.12357   0.17344   0.21782   0.27089   0.28540

 Mulliken charges:
               1
     1  H    0.187888
     2  H   -0.316844
     3  H   -0.155398
     4  H    0.187888
     5  H    0.096465
     6  H    0.096465
     7  H   -0.155398
     8  H    0.187888
     9  H    0.187888
    10  H   -0.316844
 Sum of Mulliken charges =  -0.00000

 Dipole moment (field-independent basis, Debye):
    X=             -0.0000    Y=              0.0000    Z=             -0.0000  Tot=              0.0000
 Quadrupole moment (field-independent basis, Debye-Ang):
   XX=            -13.2794   YY=            -10.7168   ZZ=            -40.6483
   XY=              0.0000   XZ=              0.0000   YZ=             -0.0000

 Normal termination of Gaussian 09 at Thu Feb  9 15:56:29 2017.
