 Gaussian 09, Revision E.01,
 Gaussian 09:  ES64L-G09RevE.01 30-Nov-2015

 ----------------------------------------------------------------------
 #rhf/gen scf(symm,tight,novaracc,noincfock,fulldiag) stable(crhf) geom
 =nocrowd test
 ----------------------------------------------------------------------

 hf stability analysis of h10 triangular lattice, y= 0.3279127552972865
 3
 ----------------------------------------------------------------------
 Symbolic Z-matrix:
 Charge =  0 Multiplicity = 1

                         Standard orientation:
 ---------------------------------------------------------------------
 Center     Atomic      Atomic             Coordinates (Angstroms)
 Number     Number       Type             X           Y           Z
 ---------------------------------------------------------------------
      1          1           0       -0.000000    0.327913    3.521365
      2          1           0       -0.000000   -0.000000    5.282048
      3          1           0       -0.000000   -0.000000    1.760683
      4          1           0       -0.000000   -0.327913    3.521365
      5          1           0        0.000000    0.327913    0.000000
      6          1           0       -0.000000   -0.327913   -0.000000
      7          1           0        0.000000    0.000000   -1.760683
      8          1           0        0.000000    0.327913   -3.521365
      9          1           0       -0.000000   -0.327913   -3.521365
     10          1           0        0.000000    0.000000   -5.282048
 ---------------------------------------------------------------------

 SCF Done:  E(RHF) =  -4.76426330283     A.U. after   10 cycles
 E2 =    -0.2563269030D+00 EUMP2 =    -0.50205902057814D+01

 The electronic state is 1-AG.
 Alpha  occ. eigenvalues --   -0.70334  -0.69599  -0.67903  -0.28594  -0.24426
 Alpha virt. eigenvalues --   -0.06554  -0.01841   0.42265   0.43034   0.45095

 Mulliken charges:
               1
     1  H    0.044788
     2  H   -0.083469
     3  H   -0.020734
     4  H    0.044788
     5  H    0.014628
     6  H    0.014628
     7  H   -0.020734
     8  H    0.044788
     9  H    0.044788
    10  H   -0.083469
 Sum of Mulliken charges =   0.00000

 Dipole moment (field-independent basis, Debye):
    X=             -0.0000    Y=             -0.0000    Z=             -0.0000  Tot=              0.0000
 Quadrupole moment (field-independent basis, Debye-Ang):
   XX=            -13.6112   YY=            -12.4429   ZZ=            -27.6137
   XY=              0.0000   XZ=              0.0000   YZ=             -0.0000

 Normal termination of Gaussian 09 at Thu Feb  9 16:03:43 2017.
