 Gaussian 09, Revision E.01,
 Gaussian 09:  ES64L-G09RevE.01 30-Nov-2015

 ----------------------------------------------------------------------
 #rhf/gen scf(symm,tight,novaracc,noincfock,fulldiag) stable(crhf) geom
 =nocrowd test
 ----------------------------------------------------------------------

 hf stability analysis of h10 triangular lattice, y= 0.7395459494311328
 3
 ----------------------------------------------------------------------
 Symbolic Z-matrix:
 Charge =  0 Multiplicity = 1

                         Standard orientation:
 ---------------------------------------------------------------------
 Center     Atomic      Atomic             Coordinates (Angstroms)
 Number     Number       Type             X           Y           Z
 ---------------------------------------------------------------------
      1          1           0       -0.000000    0.739546    1.561364
      2          1           0       -0.000000    0.000000    2.342046
      3          1           0       -0.000000    0.000000    0.780682
      4          1           0       -0.000000   -0.739546    1.561364
      5          1           0       -0.000000    0.739546    0.000000
      6          1           0       -0.000000   -0.739546    0.000000
      7          1           0        0.000000    0.000000   -0.780682
      8          1           0        0.000000    0.739546   -1.561364
      9          1           0       -0.000000   -0.739546   -1.561364
     10          1           0        0.000000    0.000000   -2.342046
 ---------------------------------------------------------------------

 SCF Done:  E(RHF) =  -4.82654628021     A.U. after    8 cycles
 E2 =    -0.9824503374D-01 EUMP2 =    -0.49247913139509D+01

 The electronic state is 1-AG.
 Alpha  occ. eigenvalues --   -0.90184  -0.74458  -0.52659  -0.44657  -0.26592
 Alpha virt. eigenvalues --   -0.03488   0.14678   0.31803   0.54919   0.55427

 Mulliken charges:
               1
     1  H   -0.221604
     2  H    0.248396
     3  H    0.168582
     4  H   -0.221604
     5  H    0.026229
     6  H    0.026229
     7  H    0.168582
     8  H   -0.221604
     9  H   -0.221604
    10  H    0.248396
 Sum of Mulliken charges =  -0.00000

 Dipole moment (field-independent basis, Debye):
    X=              0.0000    Y=              0.0000    Z=             -0.0000  Tot=              0.0000
 Quadrupole moment (field-independent basis, Debye-Ang):
   XX=            -13.0152   YY=            -18.8076   ZZ=            -10.0605
   XY=             -0.0000   XZ=             -0.0000   YZ=             -0.0000

 Normal termination of Gaussian 09 at Thu Feb  9 15:36:08 2017.
