 Gaussian 09, Revision E.01,
 Gaussian 09:  ES64L-G09RevE.01 30-Nov-2015

 ----------------------------------------------------------------------
 #rhf/gen scf(symm,tight,novaracc,noincfock,fulldiag) stable(crhf) geom
 =nocrowd test
 ----------------------------------------------------------------------

 hf stability analysis of h10 triangular lattice, y= 0.5616364580384261
 0
 ----------------------------------------------------------------------
 Symbolic Z-matrix:
 Charge =  0 Multiplicity = 1

                         Standard orientation:
 ---------------------------------------------------------------------
 Center     Atomic      Atomic             Coordinates (Angstroms)
 Number     Number       Type             X           Y           Z
 ---------------------------------------------------------------------
      1          1           0        0.000000    0.561636    2.055957
      2          1           0        0.000000    0.000000    3.083936
      3          1           0        0.000000    0.000000    1.027979
      4          1           0       -0.000000   -0.561636    2.055957
      5          1           0        0.000000    0.561636   -0.000000
      6          1           0       -0.000000   -0.561636   -0.000000
      7          1           0        0.000000    0.000000   -1.027979
      8          1           0        0.000000    0.561636   -2.055957
      9          1           0       -0.000000   -0.561636   -2.055957
     10          1           0        0.000000    0.000000   -3.083936
 ---------------------------------------------------------------------

 SCF Done:  E(RHF) =  -4.73813996360     A.U. after    9 cycles
 E2 =    -0.1600242031D+00 EUMP2 =    -0.48981641666897D+01

 The electronic state is 1-AG.
 Alpha  occ. eigenvalues --   -0.77972  -0.71972  -0.57164  -0.31591  -0.18398
 Alpha virt. eigenvalues --    0.05954   0.06084   0.22096   0.34380   0.62337

 Mulliken charges:
               1
     1  H    0.110292
     2  H   -0.043684
     3  H   -0.162492
     4  H    0.110292
     5  H   -0.014407
     6  H   -0.014407
     7  H   -0.162492
     8  H    0.110292
     9  H    0.110292
    10  H   -0.043684
 Sum of Mulliken charges =  -0.00000

 Dipole moment (field-independent basis, Debye):
    X=             -0.0000    Y=             -0.0000    Z=             -0.0000  Tot=              0.0000
 Quadrupole moment (field-independent basis, Debye-Ang):
   XX=            -13.1995   YY=            -14.3085   ZZ=            -11.0714
   XY=             -0.0000   XZ=              0.0000   YZ=             -0.0000

 Normal termination of Gaussian 09 at Thu Feb  9 15:48:58 2017.
