 Gaussian 09, Revision E.01,
 Gaussian 09:  ES64L-G09RevE.01 30-Nov-2015

 ----------------------------------------------------------------------
 #rhf/gen scf(symm,tight,novaracc,noincfock,fulldiag) stable(crhf) geom
 =nocrowd test
 ----------------------------------------------------------------------

 hf stability analysis of h10 triangular lattice, y= 0.6855924707975991
 1
 ----------------------------------------------------------------------
 Symbolic Z-matrix:
 Charge =  0 Multiplicity = 1

                         Standard orientation:
 ---------------------------------------------------------------------
 Center     Atomic      Atomic             Coordinates (Angstroms)
 Number     Number       Type             X           Y           Z
 ---------------------------------------------------------------------
      1          1           0       -0.000000    0.685592    1.684237
      2          1           0       -0.000000    0.000000    2.526356
      3          1           0       -0.000000    0.000000    0.842119
      4          1           0       -0.000000   -0.685592    1.684237
      5          1           0       -0.000000    0.685592    0.000000
      6          1           0       -0.000000   -0.685592    0.000000
      7          1           0        0.000000    0.000000   -0.842119
      8          1           0        0.000000    0.685592   -1.684237
      9          1           0       -0.000000   -0.685592   -1.684237
     10          1           0        0.000000    0.000000   -2.526356
 ---------------------------------------------------------------------

 SCF Done:  E(RHF) =  -4.81867439082     A.U. after    8 cycles
 E2 =    -0.1109239768D+00 EUMP2 =    -0.49295983676124D+01

 The electronic state is 1-AG.
 Alpha  occ. eigenvalues --   -0.83827  -0.73242  -0.54023  -0.33731  -0.27425
 Alpha virt. eigenvalues --   -0.01954   0.20041   0.23821   0.53538   0.67841

 Mulliken charges:
               1
     1  H    0.235687
     2  H   -0.236168
     3  H   -0.273576
     4  H    0.235687
     5  H    0.038370
     6  H    0.038370
     7  H   -0.273576
     8  H    0.235687
     9  H    0.235687
    10  H   -0.236168
 Sum of Mulliken charges =  -0.00000

 Dipole moment (field-independent basis, Debye):
    X=             -0.0000    Y=              0.0000    Z=             -0.0000  Tot=              0.0000
 Quadrupole moment (field-independent basis, Debye-Ang):
   XX=            -12.9206   YY=            -11.9001   ZZ=            -19.4278
   XY=              0.0000   XZ=              0.0000   YZ=              0.0000

 Normal termination of Gaussian 09 at Thu Feb  9 15:39:48 2017.
