 Gaussian 09, Revision E.01,
 Gaussian 09:  ES64L-G09RevE.01 30-Nov-2015

 ----------------------------------------------------------------------
 #rhf/gen scf(symm,tight,novaracc,noincfock,fulldiag) stable(crhf) geom
 =nocrowd test
 ----------------------------------------------------------------------

 hf stability analysis of h10 triangular lattice, y= 0.3884927615234244
 9
 ----------------------------------------------------------------------
 Symbolic Z-matrix:
 Charge =  0 Multiplicity = 1

                         Standard orientation:
 ---------------------------------------------------------------------
 Center     Atomic      Atomic             Coordinates (Angstroms)
 Number     Number       Type             X           Y           Z
 ---------------------------------------------------------------------
      1          1           0        0.000000    0.388493    2.972258
      2          1           0       -0.000000    0.000000    4.458386
      3          1           0       -0.000000    0.000000    1.486129
      4          1           0       -0.000000   -0.388493    2.972258
      5          1           0       -0.000000    0.388493    0.000000
      6          1           0       -0.000000   -0.388493    0.000000
      7          1           0        0.000000    0.000000   -1.486129
      8          1           0        0.000000    0.388493   -2.972258
      9          1           0       -0.000000   -0.388493   -2.972258
     10          1           0        0.000000    0.000000   -4.458386
 ---------------------------------------------------------------------

 SCF Done:  E(RHF) =  -4.88719278688     A.U. after    9 cycles
 E2 =    -0.1537828798D+00 EUMP2 =    -0.50409756667037D+01

 The electronic state is 1-AG.
 Alpha  occ. eigenvalues --   -0.72249  -0.70026  -0.66225  -0.31576  -0.23674
 Alpha virt. eigenvalues --    0.01019   0.10502   0.29647   0.31707   0.35239

 Mulliken charges:
               1
     1  H    0.109874
     2  H   -0.189198
     3  H   -0.079480
     4  H    0.109874
     5  H    0.048929
     6  H    0.048929
     7  H   -0.079480
     8  H    0.109874
     9  H    0.109874
    10  H   -0.189198
 Sum of Mulliken charges =   0.00000

 Dipole moment (field-independent basis, Debye):
    X=             -0.0000    Y=             -0.0000    Z=              0.0000  Tot=              0.0000
 Quadrupole moment (field-independent basis, Debye-Ang):
   XX=            -13.5304   YY=            -11.7985   ZZ=            -35.4364
   XY=              0.0000   XZ=              0.0000   YZ=             -0.0000

 Normal termination of Gaussian 09 at Thu Feb  9 16:00:52 2017.
