 Gaussian 09, Revision E.01,
 Gaussian 09:  ES64L-G09RevE.01 30-Nov-2015

 ----------------------------------------------------------------------
 #rhf/gen scf(symm,tight,novaracc,noincfock,fulldiag) stable(crhf) geom
 =nocrowd test
 ----------------------------------------------------------------------

 hf stability analysis of h10 triangular lattice, y= 0.3912565073207198
 2
 ----------------------------------------------------------------------
 Symbolic Z-matrix:
 Charge =  0 Multiplicity = 1

                         Standard orientation:
 ---------------------------------------------------------------------
 Center     Atomic      Atomic             Coordinates (Angstroms)
 Number     Number       Type             X           Y           Z
 ---------------------------------------------------------------------
      1          1           0        0.000000    0.391256    2.951262
      2          1           0        0.000000    0.000000    4.426893
      3          1           0        0.000000    0.000000    1.475631
      4          1           0       -0.000000   -0.391256    2.951262
      5          1           0        0.000000    0.391256    0.000000
      6          1           0       -0.000000   -0.391256    0.000000
      7          1           0        0.000000   -0.000000   -1.475631
      8          1           0        0.000000    0.391256   -2.951262
      9          1           0       -0.000000   -0.391256   -2.951262
     10          1           0        0.000000   -0.000000   -4.426893
 ---------------------------------------------------------------------

 SCF Done:  E(RHF) =  -4.88994953253     A.U. after    9 cycles
 E2 =    -0.1508035342D+00 EUMP2 =    -0.50407530667490D+01

 The electronic state is 1-AG.
 Alpha  occ. eigenvalues --   -0.72376  -0.70067  -0.66152  -0.31700  -0.23611
 Alpha virt. eigenvalues --    0.01425   0.11158   0.29111   0.31249   0.34849

 Mulliken charges:
               1
     1  H    0.113061
     2  H   -0.194398
     3  H   -0.082476
     4  H    0.113061
     5  H    0.050753
     6  H    0.050753
     7  H   -0.082476
     8  H    0.113061
     9  H    0.113061
    10  H   -0.194398
 Sum of Mulliken charges =  -0.00000

 Dipole moment (field-independent basis, Debye):
    X=             -0.0000    Y=             -0.0000    Z=              0.0000  Tot=              0.0000
 Quadrupole moment (field-independent basis, Debye-Ang):
   XX=            -13.5232   YY=            -11.7617   ZZ=            -35.7267
   XY=              0.0000   XZ=              0.0000   YZ=             -0.0000

 Normal termination of Gaussian 09 at Thu Feb  9 16:00:43 2017.
