 Gaussian 09, Revision E.01,
 Gaussian 09:  ES64L-G09RevE.01 30-Nov-2015

 ----------------------------------------------------------------------
 #rhf/gen scf(symm,tight,novaracc,noincfock,fulldiag) stable(crhf) geom
 =nocrowd test
 ----------------------------------------------------------------------

 hf stability analysis of h10 triangular lattice, y= 0.6680022560847249
 7
 ----------------------------------------------------------------------
 Symbolic Z-matrix:
 Charge =  0 Multiplicity = 1

                         Standard orientation:
 ---------------------------------------------------------------------
 Center     Atomic      Atomic             Coordinates (Angstroms)
 Number     Number       Type             X           Y           Z
 ---------------------------------------------------------------------
      1          1           0       -0.000000    0.668002    1.728588
      2          1           0       -0.000000    0.000000    2.592882
      3          1           0       -0.000000    0.000000    0.864294
      4          1           0       -0.000000   -0.668002    1.728588
      5          1           0       -0.000000    0.668002    0.000000
      6          1           0       -0.000000   -0.668002    0.000000
      7          1           0        0.000000   -0.000000   -0.864294
      8          1           0        0.000000    0.668002   -1.728588
      9          1           0       -0.000000   -0.668002   -1.728588
     10          1           0        0.000000   -0.000000   -2.592882
 ---------------------------------------------------------------------

 SCF Done:  E(RHF) =  -4.82040115516     A.U. after    8 cycles
 E2 =    -0.1153458620D+00 EUMP2 =    -0.49357470171381D+01

 The electronic state is 1-AG.
 Alpha  occ. eigenvalues --   -0.83184  -0.73279  -0.54676  -0.31854  -0.28416
 Alpha virt. eigenvalues --   -0.01083   0.20021   0.21151   0.51625   0.69280

 Mulliken charges:
               1
     1  H    0.220879
     2  H   -0.211572
     3  H   -0.265278
     4  H    0.220879
     5  H    0.035092
     6  H    0.035092
     7  H   -0.265278
     8  H    0.220879
     9  H    0.220879
    10  H   -0.211572
 Sum of Mulliken charges =   0.00000

 Dipole moment (field-independent basis, Debye):
    X=             -0.0000    Y=              0.0000    Z=             -0.0000  Tot=              0.0000
 Quadrupole moment (field-independent basis, Debye-Ang):
   XX=            -12.9606   YY=            -12.2740   ZZ=            -18.6137
   XY=              0.0000   XZ=              0.0000   YZ=              0.0000

 Normal termination of Gaussian 09 at Thu Feb  9 15:41:04 2017.
