 Gaussian 09, Revision E.01,
 Gaussian 09:  ES64L-G09RevE.01 30-Nov-2015

 ----------------------------------------------------------------------
 #rhf/gen scf(symm,tight,novaracc,noincfock,fulldiag) stable(crhf) geom
 =nocrowd test
 ----------------------------------------------------------------------

 hf stability analysis of h10 triangular lattice, y= 0.6595943070875844
 9
 ----------------------------------------------------------------------
 Symbolic Z-matrix:
 Charge =  0 Multiplicity = 1

                         Standard orientation:
 ---------------------------------------------------------------------
 Center     Atomic      Atomic             Coordinates (Angstroms)
 Number     Number       Type             X           Y           Z
 ---------------------------------------------------------------------
      1          1           0        0.000000    0.659594    1.750622
      2          1           0        0.000000    0.000000    2.625934
      3          1           0        0.000000    0.000000    0.875311
      4          1           0       -0.000000   -0.659594    1.750622
      5          1           0       -0.000000    0.659594    0.000000
      6          1           0       -0.000000   -0.659594    0.000000
      7          1           0        0.000000   -0.000000   -0.875311
      8          1           0        0.000000    0.659594   -1.750622
      9          1           0       -0.000000   -0.659594   -1.750622
     10          1           0        0.000000   -0.000000   -2.625934
 ---------------------------------------------------------------------

 SCF Done:  E(RHF) =  -4.81984882395     A.U. after    9 cycles
 E2 =    -0.1176926138D+00 EUMP2 =    -0.49375414377417D+01

 The electronic state is 1-AG.
 Alpha  occ. eigenvalues --   -0.82854  -0.73272  -0.54966  -0.30927  -0.28846
 Alpha virt. eigenvalues --   -0.00640   0.19881   0.20043   0.50591   0.69740

 Mulliken charges:
               1
     1  H    0.213419
     2  H   -0.199449
     3  H   -0.260402
     4  H    0.213419
     5  H    0.033013
     6  H    0.033013
     7  H   -0.260402
     8  H    0.213419
     9  H    0.213419
    10  H   -0.199449
 Sum of Mulliken charges =   0.00000

 Dipole moment (field-independent basis, Debye):
    X=             -0.0000    Y=              0.0000    Z=             -0.0000  Tot=              0.0000
 Quadrupole moment (field-independent basis, Debye-Ang):
   XX=            -12.9799   YY=            -12.4503   ZZ=            -18.1895
   XY=              0.0000   XZ=              0.0000   YZ=             -0.0000

 Normal termination of Gaussian 09 at Thu Feb  9 15:41:41 2017.
