 Gaussian 09, Revision E.01,
 Gaussian 09:  ES64L-G09RevE.01 30-Nov-2015

 ----------------------------------------------------------------------
 #rhf/gen scf(symm,tight,novaracc,noincfock,fulldiag) stable(crhf) geom
 =nocrowd test
 ----------------------------------------------------------------------

 hf stability analysis of h10 triangular lattice, y= 0.3772865969927799
 4
 ----------------------------------------------------------------------
 Symbolic Z-matrix:
 Charge =  0 Multiplicity = 1

                         Standard orientation:
 ---------------------------------------------------------------------
 Center     Atomic      Atomic             Coordinates (Angstroms)
 Number     Number       Type             X           Y           Z
 ---------------------------------------------------------------------
      1          1           0       -0.000000    0.377287    3.060540
      2          1           0       -0.000000    0.000000    4.590809
      3          1           0       -0.000000    0.000000    1.530270
      4          1           0       -0.000000   -0.377287    3.060540
      5          1           0       -0.000000    0.377287    0.000000
      6          1           0       -0.000000   -0.377287    0.000000
      7          1           0        0.000000    0.000000   -1.530270
      8          1           0        0.000000    0.377287   -3.060540
      9          1           0       -0.000000   -0.377287   -3.060540
     10          1           0        0.000000    0.000000   -4.590809
 ---------------------------------------------------------------------

 SCF Done:  E(RHF) =  -4.87359423636     A.U. after    9 cycles
 E2 =    -0.1670962207D+00 EUMP2 =    -0.50406904570264D+01

 The electronic state is 1-AG.
 Alpha  occ. eigenvalues --   -0.71761  -0.69875  -0.66519  -0.31058  -0.23903
 Alpha virt. eigenvalues --   -0.00573   0.07917   0.31859   0.33616   0.36878

 Mulliken charges:
               1
     1  H    0.097029
     2  H   -0.168259
     3  H   -0.067486
     4  H    0.097029
     5  H    0.041687
     6  H    0.041687
     7  H   -0.067486
     8  H    0.097029
     9  H    0.097029
    10  H   -0.168259
 Sum of Mulliken charges =   0.00000

 Dipole moment (field-independent basis, Debye):
    X=             -0.0000    Y=              0.0000    Z=              0.0000  Tot=              0.0000
 Quadrupole moment (field-independent basis, Debye-Ang):
   XX=            -13.5563   YY=            -11.9412   ZZ=            -34.1899
   XY=              0.0000   XZ=              0.0000   YZ=              0.0000

 Normal termination of Gaussian 09 at Thu Feb  9 16:01:28 2017.
