 Gaussian 09, Revision E.01,
 Gaussian 09:  ES64L-G09RevE.01 30-Nov-2015

 ----------------------------------------------------------------------
 #rhf/gen scf(symm,tight,novaracc,noincfock,fulldiag) stable(crhf) geom
 =nocrowd test
 ----------------------------------------------------------------------

 hf stability analysis of h10 triangular lattice, y= 0.6252163890548757
 5
 ----------------------------------------------------------------------
 Symbolic Z-matrix:
 Charge =  0 Multiplicity = 1

                         Standard orientation:
 ---------------------------------------------------------------------
 Center     Atomic      Atomic             Coordinates (Angstroms)
 Number     Number       Type             X           Y           Z
 ---------------------------------------------------------------------
      1          1           0        0.000000    0.625216    1.846881
      2          1           0        0.000000   -0.000000    2.770322
      3          1           0        0.000000   -0.000000    0.923441
      4          1           0       -0.000000   -0.625216    1.846881
      5          1           0       -0.000000    0.625216    0.000000
      6          1           0       -0.000000   -0.625216   -0.000000
      7          1           0        0.000000    0.000000   -0.923441
      8          1           0        0.000000    0.625216   -1.846881
      9          1           0       -0.000000   -0.625216   -1.846881
     10          1           0        0.000000    0.000000   -2.770322
 ---------------------------------------------------------------------

 SCF Done:  E(RHF) =  -4.80775849969     A.U. after    9 cycles
 E2 =    -0.1290773274D+00 EUMP2 =    -0.49368358270504D+01

 The electronic state is 1-AG.
 Alpha  occ. eigenvalues --   -0.81355  -0.73073  -0.55993  -0.30294  -0.26915
 Alpha virt. eigenvalues --    0.01371   0.14774   0.20367   0.45650   0.69865

 Mulliken charges:
               1
     1  H    0.180452
     2  H   -0.147566
     3  H   -0.234435
     4  H    0.180452
     5  H    0.021097
     6  H    0.021097
     7  H   -0.234435
     8  H    0.180452
     9  H    0.180452
    10  H   -0.147566
 Sum of Mulliken charges =   0.00000

 Dipole moment (field-independent basis, Debye):
    X=             -0.0000    Y=             -0.0000    Z=             -0.0000  Tot=              0.0000
 Quadrupole moment (field-independent basis, Debye-Ang):
   XX=            -13.0588   YY=            -13.1493   ZZ=            -16.1862
   XY=              0.0000   XZ=              0.0000   YZ=             -0.0000

 Normal termination of Gaussian 09 at Thu Feb  9 15:44:12 2017.
