 Gaussian 09, Revision E.01,
 Gaussian 09:  ES64L-G09RevE.01 30-Nov-2015

 ----------------------------------------------------------------------
 #rhf/gen scf(symm,tight,novaracc,noincfock,fulldiag) stable(crhf) geom
 =nocrowd test
 ----------------------------------------------------------------------

 hf stability analysis of h10 triangular lattice, y= 0.3214990666490618
 6
 ----------------------------------------------------------------------
 Symbolic Z-matrix:
 Charge =  0 Multiplicity = 1

                         Standard orientation:
 ---------------------------------------------------------------------
 Center     Atomic      Atomic             Coordinates (Angstroms)
 Number     Number       Type             X           Y           Z
 ---------------------------------------------------------------------
      1          1           0       -0.000000    0.321499    3.591614
      2          1           0       -0.000000    0.000000    5.387421
      3          1           0       -0.000000    0.000000    1.795807
      4          1           0       -0.000000   -0.321499    3.591614
      5          1           0       -0.000000    0.321499    0.000000
      6          1           0       -0.000000   -0.321499   -0.000000
      7          1           0        0.000000   -0.000000   -1.795807
      8          1           0        0.000000    0.321499   -3.591614
      9          1           0       -0.000000   -0.321499   -3.591614
     10          1           0        0.000000   -0.000000   -5.387421
 ---------------------------------------------------------------------

 SCF Done:  E(RHF) =  -4.74351909730     A.U. after   10 cycles
 E2 =    -0.2724603961D+00 EUMP2 =    -0.50159794934419D+01

 The electronic state is 1-AG.
 Alpha  occ. eigenvalues --   -0.70262  -0.69630  -0.68112  -0.28272  -0.24444
 Alpha virt. eigenvalues --   -0.07198  -0.02896   0.43688   0.44367   0.46270

 Mulliken charges:
               1
     1  H    0.038974
     2  H   -0.074017
     3  H   -0.015885
     4  H    0.038974
     5  H    0.011954
     6  H    0.011954
     7  H   -0.015885
     8  H    0.038974
     9  H    0.038974
    10  H   -0.074017
 Sum of Mulliken charges =  -0.00000

 Dipole moment (field-independent basis, Debye):
    X=             -0.0000    Y=              0.0000    Z=             -0.0000  Tot=              0.0000
 Quadrupole moment (field-independent basis, Debye-Ang):
   XX=            -13.6118   YY=            -12.4934   ZZ=            -26.6832
   XY=              0.0000   XZ=              0.0000   YZ=              0.0000

 Normal termination of Gaussian 09 at Thu Feb  9 16:03:59 2017.
