 Gaussian 09, Revision E.01,
 Gaussian 09:  ES64L-G09RevE.01 30-Nov-2015

 ----------------------------------------------------------------------
 #rhf/gen scf(symm,tight,novaracc,noincfock,fulldiag) stable(crhf) geom
 =nocrowd test
 ----------------------------------------------------------------------

 hf stability analysis of h10 triangular lattice, y= 0.6452892080335149
 7
 ----------------------------------------------------------------------
 Symbolic Z-matrix:
 Charge =  0 Multiplicity = 1

                         Standard orientation:
 ---------------------------------------------------------------------
 Center     Atomic      Atomic             Coordinates (Angstroms)
 Number     Number       Type             X           Y           Z
 ---------------------------------------------------------------------
      1          1           0       -0.000000    0.645289    1.789431
      2          1           0        0.000000   -0.000000    2.684147
      3          1           0        0.000000   -0.000000    0.894716
      4          1           0       -0.000000   -0.645289    1.789431
      5          1           0       -0.000000    0.645289    0.000000
      6          1           0       -0.000000   -0.645289   -0.000000
      7          1           0        0.000000    0.000000   -0.894716
      8          1           0        0.000000    0.645289   -1.789431
      9          1           0       -0.000000   -0.645289   -1.789431
     10          1           0        0.000000    0.000000   -2.684147
 ---------------------------------------------------------------------

 SCF Done:  E(RHF) =  -4.81678274472     A.U. after    9 cycles
 E2 =    -0.1220626615D+00 EUMP2 =    -0.49388454061713D+01

 The electronic state is 1-AG.
 Alpha  occ. eigenvalues --   -0.82260  -0.73223  -0.55426  -0.29510  -0.29303
 Alpha virt. eigenvalues --    0.00156   0.17736   0.20131   0.48667   0.70147

 Mulliken charges:
               1
     1  H    0.200172
     2  H   -0.178298
     3  H   -0.250763
     4  H    0.200172
     5  H    0.028717
     6  H    0.028717
     7  H   -0.250763
     8  H    0.200172
     9  H    0.200172
    10  H   -0.178298
 Sum of Mulliken charges =   0.00000

 Dipole moment (field-independent basis, Debye):
    X=             -0.0000    Y=              0.0000    Z=              0.0000  Tot=              0.0000
 Quadrupole moment (field-independent basis, Debye-Ang):
   XX=            -13.0128   YY=            -12.7459   ZZ=            -17.4109
   XY=              0.0000   XZ=              0.0000   YZ=              0.0000

 Normal termination of Gaussian 09 at Thu Feb  9 15:42:43 2017.
