 Gaussian 09, Revision E.01,
 Gaussian 09:  ES64L-G09RevE.01 30-Nov-2015

 ----------------------------------------------------------------------
 #rhf/gen scf(symm,tight,novaracc,noincfock,fulldiag) stable(crhf) geom
 =nocrowd test
 ----------------------------------------------------------------------

 hf stability analysis of h10 triangular lattice, y= 0.6788907736058349
 4
 ----------------------------------------------------------------------
 Symbolic Z-matrix:
 Charge =  0 Multiplicity = 1

                         Standard orientation:
 ---------------------------------------------------------------------
 Center     Atomic      Atomic             Coordinates (Angstroms)
 Number     Number       Type             X           Y           Z
 ---------------------------------------------------------------------
      1          1           0        0.000000    0.678891    1.700864
      2          1           0        0.000000   -0.000000    2.551295
      3          1           0        0.000000   -0.000000    0.850432
      4          1           0       -0.000000   -0.678891    1.700864
      5          1           0       -0.000000    0.678891    0.000000
      6          1           0       -0.000000   -0.678891   -0.000000
      7          1           0        0.000000    0.000000   -0.850432
      8          1           0        0.000000    0.678891   -1.700864
      9          1           0       -0.000000   -0.678891   -1.700864
     10          1           0        0.000000    0.000000   -2.551295
 ---------------------------------------------------------------------

 SCF Done:  E(RHF) =  -4.81978444806     A.U. after    8 cycles
 E2 =    -0.1125338794D+00 EUMP2 =    -0.49323183275122D+01

 The electronic state is 1-AG.
 Alpha  occ. eigenvalues --   -0.83589  -0.73264  -0.54279  -0.33025  -0.27817
 Alpha virt. eigenvalues --   -0.01631   0.20023   0.22802   0.52850   0.68461

 Mulliken charges:
               1
     1  H    0.230174
     2  H   -0.226921
     3  H   -0.270718
     4  H    0.230174
     5  H    0.037291
     6  H    0.037291
     7  H   -0.270718
     8  H    0.230174
     9  H    0.230174
    10  H   -0.226921
 Sum of Mulliken charges =  -0.00000

 Dipole moment (field-independent basis, Debye):
    X=             -0.0000    Y=              0.0000    Z=             -0.0000  Tot=              0.0000
 Quadrupole moment (field-independent basis, Debye-Ang):
   XX=            -12.9358   YY=            -12.0433   ZZ=            -19.1288
   XY=              0.0000   XZ=              0.0000   YZ=             -0.0000

 Normal termination of Gaussian 09 at Thu Feb  9 15:40:17 2017.
