 Gaussian 09, Revision E.01,
 Gaussian 09:  ES64L-G09RevE.01 30-Nov-2015

 ----------------------------------------------------------------------
 #rhf/gen scf(symm,tight,novaracc,noincfock,fulldiag) stable(crhf) geom
 =nocrowd test
 ----------------------------------------------------------------------

 hf stability analysis of h10 triangular lattice, y= 0.4683105810735408
 4
 ----------------------------------------------------------------------
 Symbolic Z-matrix:
 Charge =  0 Multiplicity = 1

                         Standard orientation:
 ---------------------------------------------------------------------
 Center     Atomic      Atomic             Coordinates (Angstroms)
 Number     Number       Type             X           Y           Z
 ---------------------------------------------------------------------
      1          1           0        0.000000    0.468311    2.465673
      2          1           0       -0.000000    0.000000    3.698509
      3          1           0       -0.000000    0.000000    1.232836
      4          1           0       -0.000000   -0.468311    2.465673
      5          1           0        0.000000    0.468311   -0.000000
      6          1           0       -0.000000   -0.468311    0.000000
      7          1           0        0.000000   -0.000000   -1.232836
      8          1           0        0.000000    0.468311   -2.465673
      9          1           0       -0.000000   -0.468311   -2.465673
     10          1           0        0.000000   -0.000000   -3.698509
 ---------------------------------------------------------------------

 SCF Done:  E(RHF) =  -4.87715347148     A.U. after    9 cycles
 E2 =    -0.1011700018D+00 EUMP2 =    -0.49783234732890D+01

 The electronic state is 1-AG.
 Alpha  occ. eigenvalues --   -0.76474  -0.71459  -0.63847  -0.34105  -0.20597
 Alpha virt. eigenvalues --    0.14411   0.15543   0.20430   0.26055   0.31697

 Mulliken charges:
               1
     1  H    0.199934
     2  H   -0.336512
     3  H   -0.167714
     4  H    0.199934
     5  H    0.104358
     6  H    0.104358
     7  H   -0.167714
     8  H    0.199934
     9  H    0.199934
    10  H   -0.336512
 Sum of Mulliken charges =   0.00000

 Dipole moment (field-independent basis, Debye):
    X=             -0.0000    Y=             -0.0000    Z=             -0.0000  Tot=              0.0000
 Quadrupole moment (field-independent basis, Debye-Ang):
   XX=            -13.2274   YY=            -10.5124   ZZ=            -41.1358
   XY=              0.0000   XZ=              0.0000   YZ=             -0.0000

 Normal termination of Gaussian 09 at Thu Feb  9 15:55:43 2017.
