 Gaussian 09, Revision E.01,
 Gaussian 09:  ES64L-G09RevE.01 30-Nov-2015

 ----------------------------------------------------------------------
 #rhf/gen scf(symm,tight,novaracc,noincfock,fulldiag) stable(crhf) geom
 =nocrowd test
 ----------------------------------------------------------------------

 hf stability analysis of h10 triangular lattice, y= 0.2766265205745471
 7
 ----------------------------------------------------------------------
 Symbolic Z-matrix:
 Charge =  0 Multiplicity = 1

                         Standard orientation:
 ---------------------------------------------------------------------
 Center     Atomic      Atomic             Coordinates (Angstroms)
 Number     Number       Type             X           Y           Z
 ---------------------------------------------------------------------
      1          1           0       -0.000000    0.276627    4.174222
      2          1           0       -0.000000    0.000000    6.261333
      3          1           0       -0.000000    0.000000    2.087111
      4          1           0       -0.000000   -0.276627    4.174222
      5          1           0       -0.000000    0.276627    0.000000
      6          1           0       -0.000000   -0.276627   -0.000000
      7          1           0        0.000000    0.000000   -2.087111
      8          1           0        0.000000    0.276627   -4.174222
      9          1           0       -0.000000   -0.276627   -4.174222
     10          1           0        0.000000    0.000000   -6.261333
 ---------------------------------------------------------------------

 SCF Done:  E(RHF) =  -4.54368369690     A.U. after   10 cycles
 E2 =    -0.4187750579D+00 EUMP2 =    -0.49624587548469D+01

 The electronic state is 1-AG.
 Alpha  occ. eigenvalues --   -0.70703  -0.70517  -0.69972  -0.26178  -0.24313
 Alpha virt. eigenvalues --   -0.10820  -0.08810   0.53919   0.54173   0.55030

 Mulliken charges:
               1
     1  H    0.009011
     2  H   -0.024020
     3  H    0.005734
     4  H    0.009011
     5  H    0.000264
     6  H    0.000264
     7  H    0.005734
     8  H    0.009011
     9  H    0.009011
    10  H   -0.024020
 Sum of Mulliken charges =   0.00000

 Dipole moment (field-independent basis, Debye):
    X=             -0.0000    Y=             -0.0000    Z=              0.0000  Tot=              0.0000
 Quadrupole moment (field-independent basis, Debye-Ang):
   XX=            -13.5936   YY=            -12.7768   ZZ=            -20.5172
   XY=              0.0000   XZ=              0.0000   YZ=              0.0000

 Normal termination of Gaussian 09 at Thu Feb  9 16:05:42 2017.
