 Gaussian 09, Revision E.01,
 Gaussian 09:  ES64L-G09RevE.01 30-Nov-2015

 ----------------------------------------------------------------------
 #rhf/gen scf(symm,tight,novaracc,noincfock,fulldiag) stable(crhf) geom
 =nocrowd test
 ----------------------------------------------------------------------

 hf stability analysis of h10 triangular lattice, y= 0.7235394098406757
 7
 ----------------------------------------------------------------------
 Symbolic Z-matrix:
 Charge =  0 Multiplicity = 1

                         Standard orientation:
 ---------------------------------------------------------------------
 Center     Atomic      Atomic             Coordinates (Angstroms)
 Number     Number       Type             X           Y           Z
 ---------------------------------------------------------------------
      1          1           0        0.000000    0.723539    1.595906
      2          1           0        0.000000   -0.000000    2.393858
      3          1           0        0.000000   -0.000000    0.797953
      4          1           0       -0.000000   -0.723539    1.595906
      5          1           0       -0.000000    0.723539    0.000000
      6          1           0       -0.000000   -0.723539   -0.000000
      7          1           0        0.000000    0.000000   -0.797953
      8          1           0        0.000000    0.723539   -1.595906
      9          1           0       -0.000000   -0.723539   -1.595906
     10          1           0        0.000000    0.000000   -2.393858
 ---------------------------------------------------------------------

 SCF Done:  E(RHF) =  -4.80232910106     A.U. after    8 cycles
 E2 =    -0.1033719574D+00 EUMP2 =    -0.49057010584216D+01

 The electronic state is 1-AG.
 Alpha  occ. eigenvalues --   -0.85010  -0.72937  -0.52414  -0.37520  -0.24891
 Alpha virt. eigenvalues --   -0.03600   0.20366   0.29566   0.56444   0.62997

 Mulliken charges:
               1
     1  H    0.263897
     2  H   -0.285641
     3  H   -0.282807
     4  H    0.263897
     5  H    0.040654
     6  H    0.040654
     7  H   -0.282807
     8  H    0.263897
     9  H    0.263897
    10  H   -0.285641
 Sum of Mulliken charges =  -0.00000

 Dipole moment (field-independent basis, Debye):
    X=             -0.0000    Y=             -0.0000    Z=              0.0000  Tot=              0.0000
 Quadrupole moment (field-independent basis, Debye-Ang):
   XX=            -12.8357   YY=            -11.0784   ZZ=            -20.8919
   XY=              0.0000   XZ=              0.0000   YZ=              0.0000

 Normal termination of Gaussian 09 at Thu Feb  9 15:37:12 2017.
