 Gaussian 09, Revision E.01,
 Gaussian 09:  ES64L-G09RevE.01 30-Nov-2015

 ----------------------------------------------------------------------
 #rhf/gen scf(symm,tight,novaracc,noincfock,fulldiag) stable(crhf) geom
 =nocrowd test
 ----------------------------------------------------------------------

 hf stability analysis of h10 triangular lattice, y= 0.3434938496689898
 3
 ----------------------------------------------------------------------
 Symbolic Z-matrix:
 Charge =  0 Multiplicity = 1

                         Standard orientation:
 ---------------------------------------------------------------------
 Center     Atomic      Atomic             Coordinates (Angstroms)
 Number     Number       Type             X           Y           Z
 ---------------------------------------------------------------------
      1          1           0       -0.000000    0.343494    3.361634
      2          1           0       -0.000000    0.000000    5.042451
      3          1           0       -0.000000    0.000000    1.680817
      4          1           0       -0.000000   -0.343494    3.361634
      5          1           0       -0.000000    0.343494   -0.000000
      6          1           0       -0.000000   -0.343494    0.000000
      7          1           0        0.000000   -0.000000   -1.680817
      8          1           0        0.000000    0.343494   -3.361634
      9          1           0       -0.000000   -0.343494   -3.361634
     10          1           0        0.000000   -0.000000   -5.042451
 ---------------------------------------------------------------------

 SCF Done:  E(RHF) =  -4.80799414427     A.U. after    9 cycles
 E2 =    -0.2218820977D+00 EUMP2 =    -0.50298762419854D+01

 The electronic state is 1-AG.
 Alpha  occ. eigenvalues --   -0.70631  -0.69599  -0.67434  -0.29383  -0.24339
 Alpha virt. eigenvalues --   -0.04857   0.00932   0.38872   0.39893   0.42338

 Mulliken charges:
               1
     1  H    0.060081
     2  H   -0.108269
     3  H   -0.033946
     4  H    0.060081
     5  H    0.022053
     6  H    0.022053
     7  H   -0.033946
     8  H    0.060081
     9  H    0.060081
    10  H   -0.108269
 Sum of Mulliken charges =  -0.00000

 Dipole moment (field-independent basis, Debye):
    X=             -0.0000    Y=              0.0000    Z=             -0.0000  Tot=              0.0000
 Quadrupole moment (field-independent basis, Debye-Ang):
   XX=            -13.6041   YY=            -12.3067   ZZ=            -29.8346
   XY=              0.0000   XZ=              0.0000   YZ=             -0.0000

 Normal termination of Gaussian 09 at Thu Feb  9 16:03:02 2017.
