 Gaussian 09, Revision E.01,
 Gaussian 09:  ES64L-G09RevE.01 30-Nov-2015

 ----------------------------------------------------------------------
 #rhf/gen scf(symm,tight,novaracc,noincfock,fulldiag) stable(crhf) geom
 =nocrowd test
 ----------------------------------------------------------------------

 hf stability analysis of h10 triangular lattice, y= 0.4028471750046858
 1
 ----------------------------------------------------------------------
 Symbolic Z-matrix:
 Charge =  0 Multiplicity = 1

                         Standard orientation:
 ---------------------------------------------------------------------
 Center     Atomic      Atomic             Coordinates (Angstroms)
 Number     Number       Type             X           Y           Z
 ---------------------------------------------------------------------
      1          1           0       -0.000000    0.402847    2.866349
      2          1           0        0.000000    0.000000    4.299523
      3          1           0        0.000000    0.000000    1.433174
      4          1           0       -0.000000   -0.402847    2.866349
      5          1           0       -0.000000    0.402847   -0.000000
      6          1           0       -0.000000   -0.402847    0.000000
      7          1           0        0.000000   -0.000000   -1.433174
      8          1           0        0.000000    0.402847   -2.866349
      9          1           0       -0.000000   -0.402847   -2.866349
     10          1           0        0.000000   -0.000000   -4.299523
 ---------------------------------------------------------------------

 SCF Done:  E(RHF) =  -4.89898425628     A.U. after    8 cycles
 E2 =    -0.1394813030D+00 EUMP2 =    -0.50384655592531D+01

 The electronic state is 1-AG.
 Alpha  occ. eigenvalues --   -0.72934  -0.70249  -0.65841  -0.32196  -0.23314
 Alpha virt. eigenvalues --    0.03175   0.13986   0.26899   0.29385   0.33268

 Mulliken charges:
               1
     1  H    0.126453
     2  H   -0.216282
     3  H   -0.095157
     4  H    0.126453
     5  H    0.058533
     6  H    0.058533
     7  H   -0.095157
     8  H    0.126453
     9  H    0.126453
    10  H   -0.216282
 Sum of Mulliken charges =   0.00000

 Dipole moment (field-independent basis, Debye):
    X=             -0.0000    Y=              0.0000    Z=              0.0000  Tot=              0.0000
 Quadrupole moment (field-independent basis, Debye-Ang):
   XX=            -13.4901   YY=            -11.6008   ZZ=            -36.8689
   XY=              0.0000   XZ=              0.0000   YZ=             -0.0000

 Normal termination of Gaussian 09 at Thu Feb  9 16:00:03 2017.
