 Gaussian 09, Revision E.01,
 Gaussian 09:  ES64L-G09RevE.01 30-Nov-2015

 ----------------------------------------------------------------------
 #rhf/gen scf(symm,tight,novaracc,noincfock,fulldiag) stable(crhf) geom
 =nocrowd test
 ----------------------------------------------------------------------

 hf stability analysis of h10 triangular lattice, y= 0.5604715003946055
 8
 ----------------------------------------------------------------------
 Symbolic Z-matrix:
 Charge =  0 Multiplicity = 1

                         Standard orientation:
 ---------------------------------------------------------------------
 Center     Atomic      Atomic             Coordinates (Angstroms)
 Number     Number       Type             X           Y           Z
 ---------------------------------------------------------------------
      1          1           0        0.000000    0.560471    2.060231
      2          1           0        0.000000   -0.000000    3.090346
      3          1           0        0.000000   -0.000000    1.030115
      4          1           0       -0.000000   -0.560471    2.060231
      5          1           0       -0.000000    0.560471    0.000000
      6          1           0       -0.000000   -0.560471   -0.000000
      7          1           0        0.000000    0.000000   -1.030115
      8          1           0        0.000000    0.560471   -2.060231
      9          1           0       -0.000000   -0.560471   -2.060231
     10          1           0        0.000000    0.000000   -3.090346
 ---------------------------------------------------------------------

 SCF Done:  E(RHF) =  -4.73621353072     A.U. after    9 cycles
 E2 =    -0.1607460463D+00 EUMP2 =    -0.48969595770144D+01

 The electronic state is 1-AG.
 Alpha  occ. eigenvalues --   -0.77903  -0.71943  -0.57176  -0.31598  -0.18227
 Alpha virt. eigenvalues --    0.05802   0.06184   0.22143   0.34159   0.62115

 Mulliken charges:
               1
     1  H    0.108911
     2  H   -0.041712
     3  H   -0.160904
     4  H    0.108911
     5  H   -0.015205
     6  H   -0.015205
     7  H   -0.160904
     8  H    0.108911
     9  H    0.108911
    10  H   -0.041712
 Sum of Mulliken charges =  -0.00000

 Dipole moment (field-independent basis, Debye):
    X=             -0.0000    Y=              0.0000    Z=              0.0000  Tot=              0.0000
 Quadrupole moment (field-independent basis, Debye-Ang):
   XX=            -13.2019   YY=            -14.3277   ZZ=            -10.9573
   XY=             -0.0000   XZ=              0.0000   YZ=             -0.0000

 Normal termination of Gaussian 09 at Thu Feb  9 15:49:04 2017.
