 Gaussian 09, Revision E.01,
 Gaussian 09:  ES64L-G09RevE.01 30-Nov-2015

 ----------------------------------------------------------------------
 #rhf/gen scf(symm,tight,novaracc,noincfock,fulldiag) stable(crhf) geom
 =nocrowd test
 ----------------------------------------------------------------------

 hf stability analysis of h10 triangular lattice, y= 0.3206894907469787
 8
 ----------------------------------------------------------------------
 Symbolic Z-matrix:
 Charge =  0 Multiplicity = 1

                         Standard orientation:
 ---------------------------------------------------------------------
 Center     Atomic      Atomic             Coordinates (Angstroms)
 Number     Number       Type             X           Y           Z
 ---------------------------------------------------------------------
      1          1           0        0.000000    0.320689    3.600681
      2          1           0        0.000000    0.000000    5.401021
      3          1           0        0.000000    0.000000    1.800340
      4          1           0       -0.000000   -0.320689    3.600681
      5          1           0       -0.000000    0.320689   -0.000000
      6          1           0       -0.000000   -0.320689    0.000000
      7          1           0        0.000000   -0.000000   -1.800340
      8          1           0        0.000000    0.320689   -3.600681
      9          1           0       -0.000000   -0.320689   -3.600681
     10          1           0        0.000000   -0.000000   -5.401021
 ---------------------------------------------------------------------

 SCF Done:  E(RHF) =  -4.74078045730     A.U. after   10 cycles
 E2 =    -0.2745812521D+00 EUMP2 =    -0.50153617093738D+01

 The electronic state is 1-AG.
 Alpha  occ. eigenvalues --   -0.70255  -0.69636  -0.68139  -0.28232  -0.24445
 Alpha virt. eigenvalues --   -0.07277  -0.03025   0.43868   0.44537   0.46419

 Mulliken charges:
               1
     1  H    0.038263
     2  H   -0.072859
     3  H   -0.015300
     4  H    0.038263
     5  H    0.011634
     6  H    0.011634
     7  H   -0.015300
     8  H    0.038263
     9  H    0.038263
    10  H   -0.072859
 Sum of Mulliken charges =   0.00000

 Dipole moment (field-independent basis, Debye):
    X=             -0.0000    Y=              0.0000    Z=              0.0000  Tot=              0.0000
 Quadrupole moment (field-independent basis, Debye-Ang):
   XX=            -13.6118   YY=            -12.4995   ZZ=            -26.5655
   XY=              0.0000   XZ=              0.0000   YZ=             -0.0000

 Normal termination of Gaussian 09 at Thu Feb  9 16:04:01 2017.
