 Gaussian 09, Revision E.01,
 Gaussian 09:  ES64L-G09RevE.01 30-Nov-2015

 ----------------------------------------------------------------------
 #rhf/gen scf(symm,tight,novaracc,noincfock,fulldiag) stable(crhf) geom
 =nocrowd test
 ----------------------------------------------------------------------

 hf stability analysis of h10 triangular lattice, y= 0.3570251855465351
 2
 ----------------------------------------------------------------------
 Symbolic Z-matrix:
 Charge =  0 Multiplicity = 1

                         Standard orientation:
 ---------------------------------------------------------------------
 Center     Atomic      Atomic             Coordinates (Angstroms)
 Number     Number       Type             X           Y           Z
 ---------------------------------------------------------------------
      1          1           0        0.000000    0.357025    3.234227
      2          1           0        0.000000   -0.000000    4.851341
      3          1           0        0.000000   -0.000000    1.617114
      4          1           0       -0.000000   -0.357025    3.234227
      5          1           0        0.000000    0.357025    0.000000
      6          1           0       -0.000000   -0.357025   -0.000000
      7          1           0        0.000000    0.000000   -1.617114
      8          1           0        0.000000    0.357025   -3.234227
      9          1           0       -0.000000   -0.357025   -3.234227
     10          1           0        0.000000    0.000000   -4.851341
 ---------------------------------------------------------------------

 SCF Done:  E(RHF) =  -4.83885221568     A.U. after    9 cycles
 E2 =    -0.1969743063D+00 EUMP2 =    -0.50358265220196D+01

 The electronic state is 1-AG.
 Alpha  occ. eigenvalues --   -0.71012  -0.69671  -0.67057  -0.30066  -0.24207
 Alpha virt. eigenvalues --   -0.03238   0.03576   0.36003   0.37288   0.40062

 Mulliken charges:
               1
     1  H    0.074410
     2  H   -0.131499
     3  H   -0.046746
     4  H    0.074410
     5  H    0.029425
     6  H    0.029425
     7  H   -0.046746
     8  H    0.074410
     9  H    0.074410
    10  H   -0.131499
 Sum of Mulliken charges =  -0.00000

 Dipole moment (field-independent basis, Debye):
    X=             -0.0000    Y=              0.0000    Z=             -0.0000  Tot=              0.0000
 Quadrupole moment (field-independent basis, Debye-Ang):
   XX=            -13.5905   YY=            -12.1721   ZZ=            -31.6731
   XY=              0.0000   XZ=              0.0000   YZ=              0.0000

 Normal termination of Gaussian 09 at Thu Feb  9 16:02:24 2017.
