 Gaussian 09, Revision E.01,
 Gaussian 09:  ES64L-G09RevE.01 30-Nov-2015

 ----------------------------------------------------------------------
 #rhf/gen scf(symm,tight,novaracc,noincfock,fulldiag) stable(crhf) geom
 =nocrowd test
 ----------------------------------------------------------------------

 hf stability analysis of h10 triangular lattice, y= 0.5324152575559145
 7
 ----------------------------------------------------------------------
 Symbolic Z-matrix:
 Charge =  0 Multiplicity = 1

                         Standard orientation:
 ---------------------------------------------------------------------
 Center     Atomic      Atomic             Coordinates (Angstroms)
 Number     Number       Type             X           Y           Z
 ---------------------------------------------------------------------
      1          1           0        0.000000    0.532415    2.168797
      2          1           0        0.000000    0.000000    3.253195
      3          1           0        0.000000    0.000000    1.084398
      4          1           0       -0.000000   -0.532415    2.168797
      5          1           0        0.000000    0.532415    0.000000
      6          1           0       -0.000000   -0.532415   -0.000000
      7          1           0        0.000000    0.000000   -1.084398
      8          1           0        0.000000    0.532415   -2.168797
      9          1           0       -0.000000   -0.532415   -2.168797
     10          1           0        0.000000    0.000000   -3.253195
 ---------------------------------------------------------------------

 SCF Done:  E(RHF) =  -4.74797866528     A.U. after    8 cycles
 E2 =    -0.8830992934D-01 EUMP2 =    -0.48362885946265D+01

 The electronic state is 1-AG.
 Alpha  occ. eigenvalues --   -0.79831  -0.72490  -0.61325  -0.34165  -0.16070
 Alpha virt. eigenvalues --    0.06195   0.13786   0.21449   0.26889   0.49415

 Mulliken charges:
               1
     1  H    0.264013
     2  H   -0.440344
     3  H   -0.236982
     4  H    0.264013
     5  H    0.149301
     6  H    0.149301
     7  H   -0.236982
     8  H    0.264013
     9  H    0.264013
    10  H   -0.440344
 Sum of Mulliken charges =  -0.00000

 Dipole moment (field-independent basis, Debye):
    X=             -0.0000    Y=             -0.0000    Z=             -0.0000  Tot=              0.0000
 Quadrupole moment (field-independent basis, Debye-Ang):
   XX=            -12.8959   YY=             -9.2205   ZZ=            -42.5366
   XY=              0.0000   XZ=              0.0000   YZ=             -0.0000

 Normal termination of Gaussian 09 at Thu Feb  9 15:51:07 2017.
