 Gaussian 09, Revision E.01,
 Gaussian 09:  ES64L-G09RevE.01 30-Nov-2015

 ----------------------------------------------------------------------
 #rhf/gen scf(symm,tight,novaracc,noincfock,fulldiag) stable(crhf) geom
 =nocrowd test
 ----------------------------------------------------------------------

 hf stability analysis of h10 triangular lattice, y= 0.3815181608920477
 1
 ----------------------------------------------------------------------
 Symbolic Z-matrix:
 Charge =  0 Multiplicity = 1

                         Standard orientation:
 ---------------------------------------------------------------------
 Center     Atomic      Atomic             Coordinates (Angstroms)
 Number     Number       Type             X           Y           Z
 ---------------------------------------------------------------------
      1          1           0       -0.000000    0.381518    3.026594
      2          1           0       -0.000000    0.000000    4.539891
      3          1           0       -0.000000    0.000000    1.513297
      4          1           0       -0.000000   -0.381518    3.026594
      5          1           0        0.000000    0.381518    0.000000
      6          1           0       -0.000000   -0.381518    0.000000
      7          1           0        0.000000    0.000000   -1.513297
      8          1           0        0.000000    0.381518   -3.026594
      9          1           0       -0.000000   -0.381518   -3.026594
     10          1           0        0.000000    0.000000   -4.539891
 ---------------------------------------------------------------------

 SCF Done:  E(RHF) =  -4.87918896822     A.U. after    9 cycles
 E2 =    -0.1618266833D+00 EUMP2 =    -0.50410156514862D+01

 The electronic state is 1-AG.
 Alpha  occ. eigenvalues --   -0.71940  -0.69930  -0.66408  -0.31257  -0.23822
 Alpha virt. eigenvalues --    0.00019   0.08879   0.31017   0.32885   0.36249

 Mulliken charges:
               1
     1  H    0.101862
     2  H   -0.176132
     3  H   -0.071982
     4  H    0.101862
     5  H    0.044390
     6  H    0.044390
     7  H   -0.071982
     8  H    0.101862
     9  H    0.101862
    10  H   -0.176132
 Sum of Mulliken charges =  -0.00000

 Dipole moment (field-independent basis, Debye):
    X=             -0.0000    Y=              0.0000    Z=              0.0000  Tot=              0.0000
 Quadrupole moment (field-independent basis, Debye-Ang):
   XX=            -13.5471   YY=            -11.8886   ZZ=            -34.6735
   XY=              0.0000   XZ=              0.0000   YZ=              0.0000

 Normal termination of Gaussian 09 at Thu Feb  9 16:01:15 2017.
