 Gaussian 09, Revision E.01,
 Gaussian 09:  ES64L-G09RevE.01 30-Nov-2015

 ----------------------------------------------------------------------
 #rhf/gen scf(symm,tight,novaracc,noincfock,fulldiag) stable(crhf) geom
 =nocrowd test
 ----------------------------------------------------------------------

 hf stability analysis of h10 triangular lattice, y= 0.6305110050106810
 2
 ----------------------------------------------------------------------
 Symbolic Z-matrix:
 Charge =  0 Multiplicity = 1

                         Standard orientation:
 ---------------------------------------------------------------------
 Center     Atomic      Atomic             Coordinates (Angstroms)
 Number     Number       Type             X           Y           Z
 ---------------------------------------------------------------------
      1          1           0       -0.000000    0.630511    1.831373
      2          1           0        0.000000    0.000000    2.747059
      3          1           0        0.000000    0.000000    0.915686
      4          1           0       -0.000000   -0.630511    1.831373
      5          1           0       -0.000000    0.630511   -0.000000
      6          1           0       -0.000000   -0.630511    0.000000
      7          1           0        0.000000   -0.000000   -0.915686
      8          1           0        0.000000    0.630511   -1.831373
      9          1           0       -0.000000   -0.630511   -1.831373
     10          1           0        0.000000   -0.000000   -2.747059
 ---------------------------------------------------------------------

 SCF Done:  E(RHF) =  -4.81069158873     A.U. after    9 cycles
 E2 =    -0.1271200868D+00 EUMP2 =    -0.49378116755429D+01

 The electronic state is 1-AG.
 Alpha  occ. eigenvalues --   -0.81602  -0.73122  -0.55852  -0.30104  -0.27558
 Alpha virt. eigenvalues --    0.01039   0.15549   0.20291   0.46479   0.70040

 Mulliken charges:
               1
     1  H    0.185778
     2  H   -0.155786
     3  H   -0.239054
     4  H    0.185778
     5  H    0.023285
     6  H    0.023285
     7  H   -0.239054
     8  H    0.185778
     9  H    0.185778
    10  H   -0.155786
 Sum of Mulliken charges =  -0.00000

 Dipole moment (field-independent basis, Debye):
    X=             -0.0000    Y=              0.0000    Z=              0.0000  Tot=              0.0000
 Quadrupole moment (field-independent basis, Debye-Ang):
   XX=            -13.0467   YY=            -13.0443   ZZ=            -16.5251
   XY=              0.0000   XZ=              0.0000   YZ=             -0.0000

 Normal termination of Gaussian 09 at Thu Feb  9 15:43:49 2017.
