 Gaussian 09, Revision E.01,
 Gaussian 09:  ES64L-G09RevE.01 30-Nov-2015

 ----------------------------------------------------------------------
 #rhf/gen scf(symm,tight,novaracc,noincfock,fulldiag) stable(crhf) geom
 =nocrowd test
 ----------------------------------------------------------------------

 hf stability analysis of h10 triangular lattice, y= 0.6123199016056329
 9
 ----------------------------------------------------------------------
 Symbolic Z-matrix:
 Charge =  0 Multiplicity = 1

                         Standard orientation:
 ---------------------------------------------------------------------
 Center     Atomic      Atomic             Coordinates (Angstroms)
 Number     Number       Type             X           Y           Z
 ---------------------------------------------------------------------
      1          1           0        0.000000    0.612320    1.885780
      2          1           0       -0.000000    0.000000    2.828670
      3          1           0       -0.000000    0.000000    0.942890
      4          1           0       -0.000000   -0.612320    1.885780
      5          1           0       -0.000000    0.612320    0.000000
      6          1           0       -0.000000   -0.612320   -0.000000
      7          1           0        0.000000    0.000000   -0.942890
      8          1           0        0.000000    0.612320   -1.885780
      9          1           0       -0.000000   -0.612320   -1.885780
     10          1           0        0.000000    0.000000   -2.828670
 ---------------------------------------------------------------------

 SCF Done:  E(RHF) =  -4.79889119037     A.U. after    9 cycles
 E2 =    -0.1341920086D+00 EUMP2 =    -0.49330831990116D+01

 The electronic state is 1-AG.
 Alpha  occ. eigenvalues --   -0.80731  -0.72927  -0.56309  -0.30704  -0.25310
 Alpha virt. eigenvalues --    0.02216   0.12909   0.20592   0.43543   0.69138

 Mulliken charges:
               1
     1  H    0.167121
     2  H   -0.127225
     3  H   -0.222264
     4  H    0.167121
     5  H    0.015247
     6  H    0.015247
     7  H   -0.222264
     8  H    0.167121
     9  H    0.167121
    10  H   -0.127225
 Sum of Mulliken charges =   0.00000

 Dipole moment (field-independent basis, Debye):
    X=             -0.0000    Y=              0.0000    Z=             -0.0000  Tot=              0.0000
 Quadrupole moment (field-independent basis, Debye-Ang):
   XX=            -13.0882   YY=            -13.4003   ZZ=            -15.3099
   XY=              0.0000   XZ=              0.0000   YZ=              0.0000

 Normal termination of Gaussian 09 at Thu Feb  9 15:45:09 2017.
