 Gaussian 09, Revision E.01,
 Gaussian 09:  ES64L-G09RevE.01 30-Nov-2015

 ----------------------------------------------------------------------
 #rhf/gen scf(symm,tight,novaracc,noincfock,fulldiag) stable(crhf) geom
 =nocrowd test
 ----------------------------------------------------------------------

 hf stability analysis of h10 triangular lattice, y= 0.4986444789226210
 4
 ----------------------------------------------------------------------
 Symbolic Z-matrix:
 Charge =  0 Multiplicity = 1

                         Standard orientation:
 ---------------------------------------------------------------------
 Center     Atomic      Atomic             Coordinates (Angstroms)
 Number     Number       Type             X           Y           Z
 ---------------------------------------------------------------------
      1          1           0       -0.000000    0.498644    2.315679
      2          1           0       -0.000000   -0.000000    3.473518
      3          1           0       -0.000000   -0.000000    1.157839
      4          1           0       -0.000000   -0.498644    2.315679
      5          1           0       -0.000000    0.498644    0.000000
      6          1           0       -0.000000   -0.498644   -0.000000
      7          1           0        0.000000    0.000000   -1.157839
      8          1           0        0.000000    0.498644   -2.315679
      9          1           0       -0.000000   -0.498644   -2.315679
     10          1           0        0.000000    0.000000   -3.473518
 ---------------------------------------------------------------------

 SCF Done:  E(RHF) =  -4.82815474896     A.U. after    9 cycles
 E2 =    -0.9296462492D-01 EUMP2 =    -0.49211193738729D+01

 The electronic state is 1-AG.
 Alpha  occ. eigenvalues --   -0.78123  -0.71999  -0.62730  -0.34369  -0.18692
 Alpha virt. eigenvalues --    0.10910   0.17063   0.20209   0.23607   0.40306

 Mulliken charges:
               1
     1  H    0.231408
     2  H   -0.387700
     3  H   -0.200908
     4  H    0.231408
     5  H    0.125791
     6  H    0.125791
     7  H   -0.200908
     8  H    0.231408
     9  H    0.231408
    10  H   -0.387700
 Sum of Mulliken charges =  -0.00000

 Dipole moment (field-independent basis, Debye):
    X=             -0.0000    Y=              0.0000    Z=             -0.0000  Tot=              0.0000
 Quadrupole moment (field-independent basis, Debye-Ang):
   XX=            -13.0759   YY=             -9.9235   ZZ=            -42.0622
   XY=              0.0000   XZ=              0.0000   YZ=              0.0000

 Normal termination of Gaussian 09 at Thu Feb  9 15:53:35 2017.
