 Gaussian 09, Revision E.01,
 Gaussian 09:  ES64L-G09RevE.01 30-Nov-2015

 ----------------------------------------------------------------------
 #rhf/gen scf(symm,tight,novaracc,noincfock,fulldiag) stable(crhf) geom
 =nocrowd test
 ----------------------------------------------------------------------

 hf stability analysis of h10 triangular lattice, y= 0.5738595564052082
 5
 ----------------------------------------------------------------------
 Symbolic Z-matrix:
 Charge =  0 Multiplicity = 1

                         Standard orientation:
 ---------------------------------------------------------------------
 Center     Atomic      Atomic             Coordinates (Angstroms)
 Number     Number       Type             X           Y           Z
 ---------------------------------------------------------------------
      1          1           0       -0.000000    0.573860    2.012166
      2          1           0       -0.000000   -0.000000    3.018249
      3          1           0       -0.000000   -0.000000    1.006083
      4          1           0       -0.000000   -0.573860    2.012166
      5          1           0        0.000000    0.573860    0.000000
      6          1           0       -0.000000   -0.573860   -0.000000
      7          1           0        0.000000    0.000000   -1.006083
      8          1           0        0.000000    0.573860   -2.012166
      9          1           0       -0.000000   -0.573860   -2.012166
     10          1           0        0.000000    0.000000   -3.018249
 ---------------------------------------------------------------------

 SCF Done:  E(RHF) =  -4.75683900088     A.U. after    9 cycles
 E2 =    -0.1528359135D+00 EUMP2 =    -0.49096749143784D+01

 The electronic state is 1-AG.
 Alpha  occ. eigenvalues --   -0.78679  -0.72257  -0.57014  -0.31483  -0.20158
 Alpha virt. eigenvalues --    0.05065   0.07571   0.21637   0.36683   0.64505

 Mulliken charges:
               1
     1  H    0.124593
     2  H   -0.064263
     3  H   -0.178583
     4  H    0.124593
     5  H   -0.006339
     6  H   -0.006339
     7  H   -0.178583
     8  H    0.124593
     9  H    0.124593
    10  H   -0.064263
 Sum of Mulliken charges =  -0.00000

 Dipole moment (field-independent basis, Debye):
    X=             -0.0000    Y=             -0.0000    Z=              0.0000  Tot=              0.0000
 Quadrupole moment (field-independent basis, Debye-Ang):
   XX=            -13.1735   YY=            -14.1021   ZZ=            -12.2205
   XY=             -0.0000   XZ=              0.0000   YZ=             -0.0000

 Normal termination of Gaussian 09 at Thu Feb  9 15:48:04 2017.
