 Gaussian 09, Revision E.01,
 Gaussian 09:  ES64L-G09RevE.01 30-Nov-2015

 ----------------------------------------------------------------------
 #rhf/gen scf(symm,tight,novaracc,noincfock,fulldiag) stable(crhf) geom
 =nocrowd test
 ----------------------------------------------------------------------

 hf stability analysis of h10 triangular lattice, y= 0.3411953078684326
 6
 ----------------------------------------------------------------------
 Symbolic Z-matrix:
 Charge =  0 Multiplicity = 1

                         Standard orientation:
 ---------------------------------------------------------------------
 Center     Atomic      Atomic             Coordinates (Angstroms)
 Number     Number       Type             X           Y           Z
 ---------------------------------------------------------------------
      1          1           0       -0.000000    0.341195    3.384280
      2          1           0        0.000000    0.000000    5.076420
      3          1           0        0.000000    0.000000    1.692140
      4          1           0       -0.000000   -0.341195    3.384280
      5          1           0       -0.000000    0.341195    0.000000
      6          1           0       -0.000000   -0.341195   -0.000000
      7          1           0        0.000000    0.000000   -1.692140
      8          1           0        0.000000    0.341195   -3.384280
      9          1           0       -0.000000   -0.341195   -3.384280
     10          1           0        0.000000    0.000000   -5.076420
 ---------------------------------------------------------------------

 SCF Done:  E(RHF) =  -4.80211102933     A.U. after    9 cycles
 E2 =    -0.2265583074D+00 EUMP2 =    -0.50286693366979D+01

 The electronic state is 1-AG.
 Alpha  occ. eigenvalues --   -0.70577  -0.69593  -0.67500  -0.29266  -0.24356
 Alpha virt. eigenvalues --   -0.05119   0.00505   0.39366   0.40347   0.42736

 Mulliken charges:
               1
     1  H    0.057733
     2  H   -0.104464
     3  H   -0.031883
     4  H    0.057733
     5  H    0.020881
     6  H    0.020881
     7  H   -0.031883
     8  H    0.057733
     9  H    0.057733
    10  H   -0.104464
 Sum of Mulliken charges =   0.00000

 Dipole moment (field-independent basis, Debye):
    X=             -0.0000    Y=              0.0000    Z=              0.0000  Tot=              0.0000
 Quadrupole moment (field-independent basis, Debye-Ang):
   XX=            -13.6057   YY=            -12.3280   ZZ=            -29.5126
   XY=              0.0000   XZ=              0.0000   YZ=              0.0000

 Normal termination of Gaussian 09 at Thu Feb  9 16:03:08 2017.
