 Gaussian 09, Revision E.01,
 Gaussian 09:  ES64L-G09RevE.01 30-Nov-2015

 ----------------------------------------------------------------------
 #rhf/gen scf(symm,tight,novaracc,noincfock,fulldiag) stable(crhf) geom
 =nocrowd test
 ----------------------------------------------------------------------

 hf stability analysis of h10 triangular lattice, y= 0.2928661106141334
 8
 ----------------------------------------------------------------------
 Symbolic Z-matrix:
 Charge =  0 Multiplicity = 1

                         Standard orientation:
 ---------------------------------------------------------------------
 Center     Atomic      Atomic             Coordinates (Angstroms)
 Number     Number       Type             X           Y           Z
 ---------------------------------------------------------------------
      1          1           0        0.000000    0.292866    3.942759
      2          1           0        0.000000   -0.000000    5.914139
      3          1           0        0.000000   -0.000000    1.971380
      4          1           0       -0.000000   -0.292866    3.942759
      5          1           0        0.000000    0.292866    0.000000
      6          1           0       -0.000000   -0.292866   -0.000000
      7          1           0        0.000000    0.000000   -1.971380
      8          1           0        0.000000    0.292866   -3.942759
      9          1           0       -0.000000   -0.292866   -3.942759
     10          1           0        0.000000    0.000000   -5.914139
 ---------------------------------------------------------------------

 SCF Done:  E(RHF) =  -4.62844231705     A.U. after    9 cycles
 E2 =    -0.3592110009D+00 EUMP2 =    -0.49876533179797D+01

 The electronic state is 1-AG.
 Alpha  occ. eigenvalues --   -0.70341  -0.70044  -0.69206  -0.26897  -0.24408
 Alpha virt. eigenvalues --   -0.09688  -0.06965   0.50173   0.50546   0.51757

 Mulliken charges:
               1
     1  H    0.017462
     2  H   -0.038561
     3  H    0.000560
     4  H    0.017462
     5  H    0.003077
     6  H    0.003077
     7  H    0.000560
     8  H    0.017462
     9  H    0.017462
    10  H   -0.038561
 Sum of Mulliken charges =  -0.00000

 Dipole moment (field-independent basis, Debye):
    X=             -0.0000    Y=             -0.0000    Z=              0.0000  Tot=              0.0000
 Quadrupole moment (field-independent basis, Debye-Ang):
   XX=            -13.6027   YY=            -12.6857   ZZ=            -22.6108
   XY=              0.0000   XZ=              0.0000   YZ=             -0.0000

 Normal termination of Gaussian 09 at Thu Feb  9 16:05:07 2017.
