 Gaussian 09, Revision E.01,
 Gaussian 09:  ES64L-G09RevE.01 30-Nov-2015

 ----------------------------------------------------------------------
 #rhf/gen scf(symm,tight,novaracc,noincfock,fulldiag) stable(crhf) geom
 =nocrowd test
 ----------------------------------------------------------------------

 hf stability analysis of h10 triangular lattice, y= 0.4596522619267113
 8
 ----------------------------------------------------------------------
 Symbolic Z-matrix:
 Charge =  0 Multiplicity = 1

                         Standard orientation:
 ---------------------------------------------------------------------
 Center     Atomic      Atomic             Coordinates (Angstroms)
 Number     Number       Type             X           Y           Z
 ---------------------------------------------------------------------
      1          1           0        0.000000    0.459652    2.512118
      2          1           0        0.000000    0.000000    3.768176
      3          1           0        0.000000    0.000000    1.256059
      4          1           0       -0.000000   -0.459652    2.512118
      5          1           0        0.000000    0.459652    0.000000
      6          1           0       -0.000000   -0.459652    0.000000
      7          1           0        0.000000    0.000000   -1.256059
      8          1           0        0.000000    0.459652   -2.512118
      9          1           0       -0.000000   -0.459652   -2.512118
     10          1           0        0.000000    0.000000   -3.768176
 ---------------------------------------------------------------------

 SCF Done:  E(RHF) =  -4.88682877987     A.U. after    9 cycles
 E2 =    -0.1043808001D+00 EUMP2 =    -0.49912095799315D+01

 The electronic state is 1-AG.
 Alpha  occ. eigenvalues --   -0.75993  -0.71295  -0.64141  -0.33954  -0.21064
 Alpha virt. eigenvalues --    0.12812   0.16937   0.21475   0.26852   0.29242

 Mulliken charges:
               1
     1  H    0.190599
     2  H   -0.321273
     3  H   -0.158152
     4  H    0.190599
     5  H    0.098227
     6  H    0.098227
     7  H   -0.158152
     8  H    0.190599
     9  H    0.190599
    10  H   -0.321273
 Sum of Mulliken charges =   0.00000

 Dipole moment (field-independent basis, Debye):
    X=             -0.0000    Y=             -0.0000    Z=              0.0000  Tot=              0.0000
 Quadrupole moment (field-independent basis, Debye-Ang):
   XX=            -13.2680   YY=            -10.6718   ZZ=            -40.7647
   XY=              0.0000   XZ=              0.0000   YZ=             -0.0000

 Normal termination of Gaussian 09 at Thu Feb  9 15:56:19 2017.
