 Gaussian 09, Revision E.01,
 Gaussian 09:  ES64L-G09RevE.01 30-Nov-2015

 ----------------------------------------------------------------------
 #rhf/gen scf(symm,tight,novaracc,noincfock,fulldiag) stable(crhf) geom
 =nocrowd test
 ----------------------------------------------------------------------

 hf stability analysis of h10 triangular lattice, y= 0.7216381093749314
 5
 ----------------------------------------------------------------------
 Symbolic Z-matrix:
 Charge =  0 Multiplicity = 1

                         Standard orientation:
 ---------------------------------------------------------------------
 Center     Atomic      Atomic             Coordinates (Angstroms)
 Number     Number       Type             X           Y           Z
 ---------------------------------------------------------------------
      1          1           0        0.000000    0.721638    1.600110
      2          1           0       -0.000000    0.000000    2.400165
      3          1           0       -0.000000    0.000000    0.800055
      4          1           0       -0.000000   -0.721638    1.600110
      5          1           0       -0.000000    0.721638   -0.000000
      6          1           0       -0.000000   -0.721638    0.000000
      7          1           0        0.000000   -0.000000   -0.800055
      8          1           0        0.000000    0.721638   -1.600110
      9          1           0       -0.000000   -0.721638   -1.600110
     10          1           0        0.000000   -0.000000   -2.400165
 ---------------------------------------------------------------------

 SCF Done:  E(RHF) =  -4.80354310900     A.U. after    8 cycles
 E2 =    -0.1036917852D+00 EUMP2 =    -0.49072348941532D+01

 The electronic state is 1-AG.
 Alpha  occ. eigenvalues --   -0.84957  -0.72959  -0.52501  -0.37338  -0.25030
 Alpha virt. eigenvalues --   -0.03524   0.20342   0.29281   0.56339   0.63283

 Mulliken charges:
               1
     1  H    0.262604
     2  H   -0.283278
     3  H   -0.282620
     4  H    0.262604
     5  H    0.040689
     6  H    0.040689
     7  H   -0.282620
     8  H    0.262604
     9  H    0.262604
    10  H   -0.283278
 Sum of Mulliken charges =  -0.00000

 Dipole moment (field-independent basis, Debye):
    X=             -0.0000    Y=              0.0000    Z=             -0.0000  Tot=              0.0000
 Quadrupole moment (field-independent basis, Debye-Ang):
   XX=            -12.8399   YY=            -11.1198   ZZ=            -20.8269
   XY=              0.0000   XZ=              0.0000   YZ=              0.0000

 Normal termination of Gaussian 09 at Thu Feb  9 15:37:20 2017.
