 Gaussian 09, Revision E.01,
 Gaussian 09:  ES64L-G09RevE.01 30-Nov-2015

 ----------------------------------------------------------------------
 #rhf/gen scf(symm,tight,novaracc,noincfock,fulldiag) stable(crhf) geom
 =nocrowd test
 ----------------------------------------------------------------------

 hf stability analysis of h10 triangular lattice, y= 0.6746452920691223
 8
 ----------------------------------------------------------------------
 Symbolic Z-matrix:
 Charge =  0 Multiplicity = 1

                         Standard orientation:
 ---------------------------------------------------------------------
 Center     Atomic      Atomic             Coordinates (Angstroms)
 Number     Number       Type             X           Y           Z
 ---------------------------------------------------------------------
      1          1           0        0.000000    0.674645    1.711567
      2          1           0        0.000000    0.000000    2.567350
      3          1           0        0.000000    0.000000    0.855783
      4          1           0       -0.000000   -0.674645    1.711567
      5          1           0       -0.000000    0.674645   -0.000000
      6          1           0       -0.000000   -0.674645    0.000000
      7          1           0        0.000000   -0.000000   -0.855783
      8          1           0        0.000000    0.674645   -1.711567
      9          1           0       -0.000000   -0.674645   -1.711567
     10          1           0        0.000000   -0.000000   -2.567350
 ---------------------------------------------------------------------

 SCF Done:  E(RHF) =  -4.82020129810     A.U. after    8 cycles
 E2 =    -0.1136007378D+00 EUMP2 =    -0.49338020358748D+01

 The electronic state is 1-AG.
 Alpha  occ. eigenvalues --   -0.83434  -0.73273  -0.54437  -0.32573  -0.28056
 Alpha virt. eigenvalues --   -0.01421   0.20018   0.22157   0.52388   0.68809

 Mulliken charges:
               1
     1  H    0.226599
     2  H   -0.220984
     3  H   -0.268715
     4  H    0.226599
     5  H    0.036500
     6  H    0.036500
     7  H   -0.268715
     8  H    0.226599
     9  H    0.226599
    10  H   -0.220984
 Sum of Mulliken charges =   0.00000

 Dipole moment (field-independent basis, Debye):
    X=             -0.0000    Y=              0.0000    Z=             -0.0000  Tot=              0.0000
 Quadrupole moment (field-independent basis, Debye-Ang):
   XX=            -12.9455   YY=            -12.1335   ZZ=            -18.9324
   XY=              0.0000   XZ=              0.0000   YZ=             -0.0000

 Normal termination of Gaussian 09 at Thu Feb  9 15:40:35 2017.
