 Gaussian 09, Revision E.01,
 Gaussian 09:  ES64L-G09RevE.01 30-Nov-2015

 ----------------------------------------------------------------------
 #rhf/gen scf(symm,tight,novaracc,noincfock,fulldiag) stable(crhf) geom
 =nocrowd test
 ----------------------------------------------------------------------

 hf stability analysis of h10 triangular lattice, y= 0.3350007865764852
 4
 ----------------------------------------------------------------------
 Symbolic Z-matrix:
 Charge =  0 Multiplicity = 1

                         Standard orientation:
 ---------------------------------------------------------------------
 Center     Atomic      Atomic             Coordinates (Angstroms)
 Number     Number       Type             X           Y           Z
 ---------------------------------------------------------------------
      1          1           0        0.000000    0.335001    3.446859
      2          1           0        0.000000    0.000000    5.170289
      3          1           0        0.000000    0.000000    1.723430
      4          1           0       -0.000000   -0.335001    3.446859
      5          1           0        0.000000    0.335001   -0.000000
      6          1           0       -0.000000   -0.335001    0.000000
      7          1           0        0.000000   -0.000000   -1.723430
      8          1           0        0.000000    0.335001   -3.446859
      9          1           0       -0.000000   -0.335001   -3.446859
     10          1           0        0.000000   -0.000000   -5.170289
 ---------------------------------------------------------------------

 SCF Done:  E(RHF) =  -4.78529167405     A.U. after    9 cycles
 E2 =    -0.2398465618D+00 EUMP2 =    -0.50251382358248D+01

 The electronic state is 1-AG.
 Alpha  occ. eigenvalues --   -0.70449  -0.69587  -0.67684  -0.28952  -0.24394
 Alpha virt. eigenvalues --   -0.05804  -0.00616   0.40710   0.41588   0.43824

 Mulliken charges:
               1
     1  H    0.051557
     2  H   -0.094452
     3  H   -0.026511
     4  H    0.051557
     5  H    0.017850
     6  H    0.017850
     7  H   -0.026511
     8  H    0.051557
     9  H    0.051557
    10  H   -0.094452
 Sum of Mulliken charges =   0.00000

 Dipole moment (field-independent basis, Debye):
    X=             -0.0000    Y=             -0.0000    Z=              0.0000  Tot=              0.0000
 Quadrupole moment (field-independent basis, Debye-Ang):
   XX=            -13.6090   YY=            -12.3833   ZZ=            -28.6339
   XY=              0.0000   XZ=              0.0000   YZ=              0.0000

 Normal termination of Gaussian 09 at Thu Feb  9 16:03:24 2017.
