 Gaussian 09, Revision E.01,
 Gaussian 09:  ES64L-G09RevE.01 30-Nov-2015

 ----------------------------------------------------------------------
 #rhf/gen scf(symm,tight,novaracc,noincfock,fulldiag) stable(crhf) geom
 =nocrowd test
 ----------------------------------------------------------------------

 hf stability analysis of h10 triangular lattice, y= 0.5517266305577276
 4
 ----------------------------------------------------------------------
 Symbolic Z-matrix:
 Charge =  0 Multiplicity = 1

                         Standard orientation:
 ---------------------------------------------------------------------
 Center     Atomic      Atomic             Coordinates (Angstroms)
 Number     Number       Type             X           Y           Z
 ---------------------------------------------------------------------
      1          1           0        0.000000    0.551727    2.092885
      2          1           0        0.000000    0.000000    3.139328
      3          1           0        0.000000    0.000000    1.046443
      4          1           0       -0.000000   -0.551727    2.092885
      5          1           0        0.000000    0.551727    0.000000
      6          1           0       -0.000000   -0.551727    0.000000
      7          1           0        0.000000    0.000000   -1.046443
      8          1           0        0.000000    0.551727   -2.092885
      9          1           0       -0.000000   -0.551727   -2.092885
     10          1           0        0.000000    0.000000   -3.139328
 ---------------------------------------------------------------------

 SCF Done:  E(RHF) =  -4.72092536994     A.U. after    9 cycles
 E2 =    -0.1663830045D+00 EUMP2 =    -0.48873083744438D+01

 The electronic state is 1-AG.
 Alpha  occ. eigenvalues --   -0.77381  -0.71716  -0.57258  -0.31630  -0.16924
 Alpha virt. eigenvalues --    0.04675   0.06953   0.22515   0.32488   0.60371

 Mulliken charges:
               1
     1  H    0.098446
     2  H   -0.026856
     3  H   -0.148690
     4  H    0.098446
     5  H   -0.021346
     6  H   -0.021346
     7  H   -0.148690
     8  H    0.098446
     9  H    0.098446
    10  H   -0.026856
 Sum of Mulliken charges =   0.00000

 Dipole moment (field-independent basis, Debye):
    X=             -0.0000    Y=             -0.0000    Z=             -0.0000  Tot=              0.0000
 Quadrupole moment (field-independent basis, Debye-Ang):
   XX=            -13.2199   YY=            -14.4694   ZZ=            -10.0744
   XY=             -0.0000   XZ=              0.0000   YZ=             -0.0000

 Normal termination of Gaussian 09 at Thu Feb  9 15:49:42 2017.
