 Gaussian 09, Revision E.01,
 Gaussian 09:  ES64L-G09RevE.01 30-Nov-2015

 ----------------------------------------------------------------------
 #rhf/gen scf(symm,tight,novaracc,noincfock,fulldiag) stable(crhf) geom
 =nocrowd test
 ----------------------------------------------------------------------

 hf stability analysis of h10 triangular lattice, y= 0.4382452255487812
 6
 ----------------------------------------------------------------------
 Symbolic Z-matrix:
 Charge =  0 Multiplicity = 1

                         Standard orientation:
 ---------------------------------------------------------------------
 Center     Atomic      Atomic             Coordinates (Angstroms)
 Number     Number       Type             X           Y           Z
 ---------------------------------------------------------------------
      1          1           0        0.000000    0.438245    2.634827
      2          1           0        0.000000   -0.000000    3.952241
      3          1           0        0.000000   -0.000000    1.317414
      4          1           0       -0.000000   -0.438245    2.634827
      5          1           0        0.000000    0.438245    0.000000
      6          1           0       -0.000000   -0.438245   -0.000000
      7          1           0        0.000000    0.000000   -1.317414
      8          1           0        0.000000    0.438245   -2.634827
      9          1           0       -0.000000   -0.438245   -2.634827
     10          1           0        0.000000    0.000000   -3.952241
 ---------------------------------------------------------------------

 SCF Done:  E(RHF) =  -4.90209145338     A.U. after    9 cycles
 E2 =    -0.1143880423D+00 EUMP2 =    -0.50164794956893D+01

 The electronic state is 1-AG.
 Alpha  occ. eigenvalues --   -0.74805  -0.70886  -0.64825  -0.33439  -0.22073
 Alpha virt. eigenvalues --    0.08992   0.20523   0.23276   0.24230   0.29019

 Mulliken charges:
               1
     1  H    0.166931
     2  H   -0.282555
     3  H   -0.134410
     4  H    0.166931
     5  H    0.083104
     6  H    0.083104
     7  H   -0.134410
     8  H    0.166931
     9  H    0.166931
    10  H   -0.282555
 Sum of Mulliken charges =   0.00000

 Dipole moment (field-independent basis, Debye):
    X=             -0.0000    Y=             -0.0000    Z=              0.0000  Tot=              0.0000
 Quadrupole moment (field-independent basis, Debye-Ang):
   XX=            -13.3618   YY=            -11.0471   ZZ=            -39.6113
   XY=              0.0000   XZ=              0.0000   YZ=             -0.0000

 Normal termination of Gaussian 09 at Thu Feb  9 15:57:46 2017.
