 Gaussian 09, Revision E.01,
 Gaussian 09:  ES64L-G09RevE.01 30-Nov-2015

 ----------------------------------------------------------------------
 #rhf/gen scf(symm,tight,novaracc,noincfock,fulldiag) stable(crhf) geom
 =nocrowd test
 ----------------------------------------------------------------------

 hf stability analysis of h10 triangular lattice, y= 0.5394520384962004
 9
 ----------------------------------------------------------------------
 Symbolic Z-matrix:
 Charge =  0 Multiplicity = 1

                         Standard orientation:
 ---------------------------------------------------------------------
 Center     Atomic      Atomic             Coordinates (Angstroms)
 Number     Number       Type             X           Y           Z
 ---------------------------------------------------------------------
      1          1           0        0.000000    0.539452    2.140506
      2          1           0        0.000000    0.000000    3.210760
      3          1           0        0.000000    0.000000    1.070253
      4          1           0       -0.000000   -0.539452    2.140506
      5          1           0       -0.000000    0.539452   -0.000000
      6          1           0       -0.000000   -0.539452    0.000000
      7          1           0        0.000000   -0.000000   -1.070253
      8          1           0        0.000000    0.539452   -2.140506
      9          1           0       -0.000000   -0.539452   -2.140506
     10          1           0        0.000000   -0.000000   -3.210760
 ---------------------------------------------------------------------

 SCF Done:  E(RHF) =  -4.72815356544     A.U. after    8 cycles
 E2 =    -0.8784595238D-01 EUMP2 =    -0.48159995178194D+01

 The electronic state is 1-AG.
 Alpha  occ. eigenvalues --   -0.80163  -0.72572  -0.61010  -0.34057  -0.15459
 Alpha virt. eigenvalues --    0.05270   0.13159   0.21068   0.28290   0.51176

 Mulliken charges:
               1
     1  H    0.270465
     2  H   -0.450717
     3  H   -0.244321
     4  H    0.270465
     5  H    0.154108
     6  H    0.154108
     7  H   -0.244321
     8  H    0.270465
     9  H    0.270465
    10  H   -0.450717
 Sum of Mulliken charges =  -0.00000

 Dipole moment (field-independent basis, Debye):
    X=             -0.0000    Y=             -0.0000    Z=              0.0000  Tot=              0.0000
 Quadrupole moment (field-independent basis, Debye-Ang):
   XX=            -12.8575   YY=             -9.0688   ZZ=            -42.5761
   XY=              0.0000   XZ=              0.0000   YZ=             -0.0000

 Normal termination of Gaussian 09 at Thu Feb  9 15:50:36 2017.
