 Gaussian 09, Revision E.01,
 Gaussian 09:  ES64L-G09RevE.01 30-Nov-2015

 ----------------------------------------------------------------------
 #rhf/gen scf(symm,tight,novaracc,noincfock,fulldiag) stable(crhf) geom
 =nocrowd test
 ----------------------------------------------------------------------

 hf stability analysis of h10 triangular lattice, y= 0.5662944903859843
 4
 ----------------------------------------------------------------------
 Symbolic Z-matrix:
 Charge =  0 Multiplicity = 1

                         Standard orientation:
 ---------------------------------------------------------------------
 Center     Atomic      Atomic             Coordinates (Angstroms)
 Number     Number       Type             X           Y           Z
 ---------------------------------------------------------------------
      1          1           0       -0.000000    0.566294    2.039046
      2          1           0        0.000000    0.000000    3.058569
      3          1           0        0.000000    0.000000    1.019523
      4          1           0       -0.000000   -0.566294    2.039046
      5          1           0       -0.000000    0.566294   -0.000000
      6          1           0       -0.000000   -0.566294    0.000000
      7          1           0        0.000000   -0.000000   -1.019523
      8          1           0        0.000000    0.566294   -2.039046
      9          1           0       -0.000000   -0.566294   -2.039046
     10          1           0        0.000000   -0.000000   -3.058569
 ---------------------------------------------------------------------

 SCF Done:  E(RHF) =  -4.74558913647     A.U. after    9 cycles
 E2 =    -0.1572032855D+00 EUMP2 =    -0.49027924219340D+01

 The electronic state is 1-AG.
 Alpha  occ. eigenvalues --   -0.78244  -0.72085  -0.57111  -0.31558  -0.19076
 Alpha virt. eigenvalues --    0.05689   0.06565   0.21913   0.35262   0.63198

 Mulliken charges:
               1
     1  H    0.115783
     2  H   -0.051552
     3  H   -0.168746
     4  H    0.115783
     5  H   -0.011268
     6  H   -0.011268
     7  H   -0.168746
     8  H    0.115783
     9  H    0.115783
    10  H   -0.051552
 Sum of Mulliken charges =   0.00000

 Dipole moment (field-independent basis, Debye):
    X=             -0.0000    Y=              0.0000    Z=             -0.0000  Tot=              0.0000
 Quadrupole moment (field-independent basis, Debye-Ang):
   XX=            -13.1897   YY=            -14.2309   ZZ=            -11.5196
   XY=             -0.0000   XZ=              0.0000   YZ=              0.0000

 Normal termination of Gaussian 09 at Thu Feb  9 15:48:38 2017.
