 Gaussian 09, Revision E.01,
 Gaussian 09:  ES64L-G09RevE.01 30-Nov-2015

 ----------------------------------------------------------------------
 #rhf/gen scf(symm,tight,novaracc,noincfock,fulldiag) stable(crhf) geom
 =nocrowd test
 ----------------------------------------------------------------------

 hf stability analysis of h10 triangular lattice, y= 0.4944454103067983
 4
 ----------------------------------------------------------------------
 Symbolic Z-matrix:
 Charge =  0 Multiplicity = 1

                         Standard orientation:
 ---------------------------------------------------------------------
 Center     Atomic      Atomic             Coordinates (Angstroms)
 Number     Number       Type             X           Y           Z
 ---------------------------------------------------------------------
      1          1           0        0.000000    0.494445    2.335345
      2          1           0        0.000000   -0.000000    3.503017
      3          1           0        0.000000   -0.000000    1.167672
      4          1           0       -0.000000   -0.494445    2.335345
      5          1           0       -0.000000    0.494445    0.000000
      6          1           0       -0.000000   -0.494445   -0.000000
      7          1           0        0.000000    0.000000   -1.167672
      8          1           0        0.000000    0.494445   -2.335345
      9          1           0       -0.000000   -0.494445   -2.335345
     10          1           0        0.000000    0.000000   -3.503017
 ---------------------------------------------------------------------

 SCF Done:  E(RHF) =  -4.83629186129     A.U. after    9 cycles
 E2 =    -0.9384951957D-01 EUMP2 =    -0.49301413808573D+01

 The electronic state is 1-AG.
 Alpha  occ. eigenvalues --   -0.77900  -0.71928  -0.62893  -0.34358  -0.18981
 Alpha virt. eigenvalues --    0.11529   0.17503   0.19391   0.23916   0.39125

 Mulliken charges:
               1
     1  H    0.227171
     2  H   -0.380828
     3  H   -0.196348
     4  H    0.227171
     5  H    0.122834
     6  H    0.122834
     7  H   -0.196348
     8  H    0.227171
     9  H    0.227171
    10  H   -0.380828
 Sum of Mulliken charges =  -0.00000

 Dipole moment (field-independent basis, Debye):
    X=             -0.0000    Y=              0.0000    Z=              0.0000  Tot=              0.0000
 Quadrupole moment (field-independent basis, Debye-Ang):
   XX=            -13.0976   YY=            -10.0076   ZZ=            -41.9654
   XY=              0.0000   XZ=              0.0000   YZ=              0.0000

 Normal termination of Gaussian 09 at Thu Feb  9 15:53:54 2017.
