 Gaussian 09, Revision E.01,
 Gaussian 09:  ES64L-G09RevE.01 30-Nov-2015

 ----------------------------------------------------------------------
 #rhf/gen scf(symm,tight,novaracc,noincfock,fulldiag) stable(crhf) geom
 =nocrowd test
 ----------------------------------------------------------------------

 hf stability analysis of h10 triangular lattice, y= 0.2504402367905124
 2
 ----------------------------------------------------------------------
 Symbolic Z-matrix:
 Charge =  0 Multiplicity = 1

                         Standard orientation:
 ---------------------------------------------------------------------
 Center     Atomic      Atomic             Coordinates (Angstroms)
 Number     Number       Type             X           Y           Z
 ---------------------------------------------------------------------
      1          1           0       -0.000000    0.250440    4.610683
      2          1           0        0.000000   -0.000000    6.916024
      3          1           0        0.000000   -0.000000    2.305341
      4          1           0       -0.000000   -0.250440    4.610683
      5          1           0       -0.000000    0.250440    0.000000
      6          1           0       -0.000000   -0.250440   -0.000000
      7          1           0        0.000000    0.000000   -2.305341
      8          1           0        0.000000    0.250440   -4.610683
      9          1           0       -0.000000   -0.250440   -4.610683
     10          1           0        0.000000    0.000000   -6.916024
 ---------------------------------------------------------------------

 SCF Done:  E(RHF) =  -4.36746883243     A.U. after   10 cycles
 E2 =    -0.5279359236D+00 EUMP2 =    -0.48954047560565D+01

 The electronic state is 1-AG.
 Alpha  occ. eigenvalues --   -0.71777  -0.71687  -0.71461  -0.25126  -0.24056
 Alpha virt. eigenvalues --   -0.12255  -0.11127   0.60030   0.60155   0.60565

 Mulliken charges:
               1
     1  H    0.001148
     2  H   -0.009079
     3  H    0.008343
     4  H    0.001148
     5  H   -0.001559
     6  H   -0.001559
     7  H    0.008343
     8  H    0.001148
     9  H    0.001148
    10  H   -0.009079
 Sum of Mulliken charges =  -0.00000

 Dipole moment (field-independent basis, Debye):
    X=             -0.0000    Y=              0.0000    Z=             -0.0000  Tot=              0.0000
 Quadrupole moment (field-independent basis, Debye-Ang):
   XX=            -13.5823   YY=            -12.9093   ZZ=            -17.7426
   XY=              0.0000   XZ=              0.0000   YZ=              0.0000

 Normal termination of Gaussian 09 at Thu Feb  9 16:06:36 2017.
