 Gaussian 09, Revision E.01,
 Gaussian 09:  ES64L-G09RevE.01 30-Nov-2015

 ----------------------------------------------------------------------
 #rhf/gen scf(symm,tight,novaracc,noincfock,fulldiag) stable(crhf) geom
 =nocrowd test
 ----------------------------------------------------------------------

 hf stability analysis of h10 triangular lattice, y= 0.6710176301314819
 7
 ----------------------------------------------------------------------
 Symbolic Z-matrix:
 Charge =  0 Multiplicity = 1

                         Standard orientation:
 ---------------------------------------------------------------------
 Center     Atomic      Atomic             Coordinates (Angstroms)
 Number     Number       Type             X           Y           Z
 ---------------------------------------------------------------------
      1          1           0        0.000000    0.671018    1.720820
      2          1           0        0.000000    0.000000    2.581230
      3          1           0        0.000000    0.000000    0.860410
      4          1           0       -0.000000   -0.671018    1.720820
      5          1           0       -0.000000    0.671018    0.000000
      6          1           0       -0.000000   -0.671018    0.000000
      7          1           0        0.000000    0.000000   -0.860410
      8          1           0        0.000000    0.671018   -1.720820
      9          1           0       -0.000000   -0.671018   -1.720820
     10          1           0        0.000000    0.000000   -2.581230
 ---------------------------------------------------------------------

 SCF Done:  E(RHF) =  -4.82037932515     A.U. after    8 cycles
 E2 =    -0.1145420788D+00 EUMP2 =    -0.49349214039819D+01

 The electronic state is 1-AG.
 Alpha  occ. eigenvalues --   -0.83298  -0.73278  -0.54569  -0.32182  -0.28255
 Alpha virt. eigenvalues --   -0.01238   0.20018   0.21607   0.51977   0.69078

 Mulliken charges:
               1
     1  H    0.223495
     2  H   -0.215862
     3  H   -0.266884
     4  H    0.223495
     5  H    0.035756
     6  H    0.035756
     7  H   -0.266884
     8  H    0.223495
     9  H    0.223495
    10  H   -0.215862
 Sum of Mulliken charges =   0.00000

 Dipole moment (field-independent basis, Debye):
    X=             -0.0000    Y=              0.0000    Z=             -0.0000  Tot=              0.0000
 Quadrupole moment (field-independent basis, Debye-Ang):
   XX=            -12.9537   YY=            -12.2104   ZZ=            -18.7601
   XY=              0.0000   XZ=              0.0000   YZ=             -0.0000

 Normal termination of Gaussian 09 at Thu Feb  9 15:40:51 2017.
