 Gaussian 09, Revision E.01,
 Gaussian 09:  ES64L-G09RevE.01 30-Nov-2015

 ----------------------------------------------------------------------
 #rhf/gen scf(symm,tight,novaracc,noincfock,fulldiag) stable(crhf) geom
 =nocrowd test
 ----------------------------------------------------------------------

 hf stability analysis of h10 triangular lattice, y= 0.3503135618487248
 1
 ----------------------------------------------------------------------
 Symbolic Z-matrix:
 Charge =  0 Multiplicity = 1

                         Standard orientation:
 ---------------------------------------------------------------------
 Center     Atomic      Atomic             Coordinates (Angstroms)
 Number     Number       Type             X           Y           Z
 ---------------------------------------------------------------------
      1          1           0        0.000000    0.350314    3.296191
      2          1           0        0.000000    0.000000    4.944287
      3          1           0        0.000000    0.000000    1.648096
      4          1           0       -0.000000   -0.350314    3.296191
      5          1           0        0.000000    0.350314   -0.000000
      6          1           0       -0.000000   -0.350314    0.000000
      7          1           0        0.000000   -0.000000   -1.648096
      8          1           0        0.000000    0.350314   -3.296191
      9          1           0       -0.000000   -0.350314   -3.296191
     10          1           0        0.000000   -0.000000   -4.944287
 ---------------------------------------------------------------------

 SCF Done:  E(RHF) =  -4.82434109634     A.U. after    9 cycles
 E2 =    -0.2087845495D+00 EUMP2 =    -0.50331256458095D+01

 The electronic state is 1-AG.
 Alpha  occ. eigenvalues --   -0.70810  -0.69628  -0.67241  -0.29728  -0.24279
 Alpha virt. eigenvalues --   -0.04058   0.02238   0.37416   0.38565   0.41176

 Mulliken charges:
               1
     1  H    0.067202
     2  H   -0.119810
     3  H   -0.040267
     4  H    0.067202
     5  H    0.025673
     6  H    0.025673
     7  H   -0.040267
     8  H    0.067202
     9  H    0.067202
    10  H   -0.119810
 Sum of Mulliken charges =  -0.00000

 Dipole moment (field-independent basis, Debye):
    X=             -0.0000    Y=              0.0000    Z=              0.0000  Tot=              0.0000
 Quadrupole moment (field-independent basis, Debye-Ang):
   XX=            -13.5982   YY=            -12.2408   ZZ=            -30.7745
   XY=              0.0000   XZ=              0.0000   YZ=             -0.0000

 Normal termination of Gaussian 09 at Thu Feb  9 16:02:43 2017.
