 Gaussian 09, Revision E.01,
 Gaussian 09:  ES64L-G09RevE.01 30-Nov-2015

 ----------------------------------------------------------------------
 #rhf/gen scf(symm,tight,novaracc,noincfock,fulldiag) stable(crhf) geom
 =nocrowd test
 ----------------------------------------------------------------------

 hf stability analysis of h10 triangular lattice, y= 0.3525624261482716
 6
 ----------------------------------------------------------------------
 Symbolic Z-matrix:
 Charge =  0 Multiplicity = 1

                         Standard orientation:
 ---------------------------------------------------------------------
 Center     Atomic      Atomic             Coordinates (Angstroms)
 Number     Number       Type             X           Y           Z
 ---------------------------------------------------------------------
      1          1           0       -0.000000    0.352562    3.275166
      2          1           0       -0.000000    0.000000    4.912749
      3          1           0       -0.000000    0.000000    1.637583
      4          1           0       -0.000000   -0.352562    3.275166
      5          1           0       -0.000000    0.352562   -0.000000
      6          1           0       -0.000000   -0.352562    0.000000
      7          1           0        0.000000   -0.000000   -1.637583
      8          1           0        0.000000    0.352562   -3.275166
      9          1           0       -0.000000   -0.352562   -3.275166
     10          1           0        0.000000   -0.000000   -4.912749
 ---------------------------------------------------------------------

 SCF Done:  E(RHF) =  -4.82937514615     A.U. after    9 cycles
 E2 =    -0.2047114920D+00 EUMP2 =    -0.50340866381649D+01

 The electronic state is 1-AG.
 Alpha  occ. eigenvalues --   -0.70875  -0.69641  -0.67179  -0.29842  -0.24257
 Alpha virt. eigenvalues --   -0.03787   0.02681   0.36941   0.38134   0.40800

 Mulliken charges:
               1
     1  H    0.069597
     2  H   -0.123693
     3  H   -0.042411
     4  H    0.069597
     5  H    0.026911
     6  H    0.026911
     7  H   -0.042411
     8  H    0.069597
     9  H    0.069597
    10  H   -0.123693
 Sum of Mulliken charges =   0.00000

 Dipole moment (field-independent basis, Debye):
    X=             -0.0000    Y=              0.0000    Z=              0.0000  Tot=              0.0000
 Quadrupole moment (field-independent basis, Debye-Ang):
   XX=            -13.5958   YY=            -12.2182   ZZ=            -31.0788
   XY=              0.0000   XZ=              0.0000   YZ=             -0.0000

 Normal termination of Gaussian 09 at Thu Feb  9 16:02:36 2017.
