 Gaussian 09, Revision E.01,
 Gaussian 09:  ES64L-G09RevE.01 30-Nov-2015

 ----------------------------------------------------------------------
 #rhf/gen scf(symm,tight,novaracc,noincfock,fulldiag) stable(crhf) geom
 =nocrowd test
 ----------------------------------------------------------------------

 hf stability analysis of h10 triangular lattice, y= 0.4188226698640428
 7
 ----------------------------------------------------------------------
 Symbolic Z-matrix:
 Charge =  0 Multiplicity = 1

                         Standard orientation:
 ---------------------------------------------------------------------
 Center     Atomic      Atomic             Coordinates (Angstroms)
 Number     Number       Type             X           Y           Z
 ---------------------------------------------------------------------
      1          1           0       -0.000000    0.418823    2.757015
      2          1           0       -0.000000    0.000000    4.135523
      3          1           0       -0.000000    0.000000    1.378508
      4          1           0       -0.000000   -0.418823    2.757015
      5          1           0        0.000000    0.418823   -0.000000
      6          1           0       -0.000000   -0.418823    0.000000
      7          1           0        0.000000   -0.000000   -1.378508
      8          1           0        0.000000    0.418823   -2.757015
      9          1           0       -0.000000   -0.418823   -2.757015
     10          1           0        0.000000   -0.000000   -4.135523
 ---------------------------------------------------------------------

 SCF Done:  E(RHF) =  -4.90487716215     A.U. after    8 cycles
 E2 =    -0.1265959404D+00 EUMP2 =    -0.50314731025570D+01

 The electronic state is 1-AG.
 Alpha  occ. eigenvalues --   -0.73754  -0.70526  -0.65398  -0.32812  -0.22818
 Alpha virt. eigenvalues --    0.05716   0.18068   0.23951   0.26962   0.31245

 Mulliken charges:
               1
     1  H    0.144863
     2  H   -0.246414
     3  H   -0.112826
     4  H    0.144863
     5  H    0.069513
     6  H    0.069513
     7  H   -0.112826
     8  H    0.144863
     9  H    0.144863
    10  H   -0.246414
 Sum of Mulliken charges =   0.00000

 Dipole moment (field-independent basis, Debye):
    X=             -0.0000    Y=              0.0000    Z=              0.0000  Tot=              0.0000
 Quadrupole moment (field-independent basis, Debye-Ang):
   XX=            -13.4369   YY=            -11.3620   ZZ=            -38.2432
   XY=              0.0000   XZ=              0.0000   YZ=             -0.0000

 Normal termination of Gaussian 09 at Thu Feb  9 15:59:02 2017.
