 Gaussian 09, Revision E.01,
 Gaussian 09:  ES64L-G09RevE.01 30-Nov-2015

 ----------------------------------------------------------------------
 #rhf/gen scf(symm,tight,novaracc,noincfock,fulldiag) stable(crhf) geom
 =nocrowd test
 ----------------------------------------------------------------------

 hf stability analysis of h10 triangular lattice, y= 0.6819323065735911
 6
 ----------------------------------------------------------------------
 Symbolic Z-matrix:
 Charge =  0 Multiplicity = 1

                         Standard orientation:
 ---------------------------------------------------------------------
 Center     Atomic      Atomic             Coordinates (Angstroms)
 Number     Number       Type             X           Y           Z
 ---------------------------------------------------------------------
      1          1           0       -0.000000    0.681932    1.693277
      2          1           0       -0.000000   -0.000000    2.539916
      3          1           0       -0.000000   -0.000000    0.846639
      4          1           0       -0.000000   -0.681932    1.693277
      5          1           0       -0.000000    0.681932    0.000000
      6          1           0       -0.000000   -0.681932   -0.000000
      7          1           0        0.000000    0.000000   -0.846639
      8          1           0        0.000000    0.681932   -1.693277
      9          1           0       -0.000000   -0.681932   -1.693277
     10          1           0        0.000000    0.000000   -2.539916
 ---------------------------------------------------------------------

 SCF Done:  E(RHF) =  -4.81934883436     A.U. after    8 cycles
 E2 =    -0.1117921382D+00 EUMP2 =    -0.49311409725109D+01

 The electronic state is 1-AG.
 Alpha  occ. eigenvalues --   -0.83698  -0.73256  -0.54164  -0.33347  -0.27641
 Alpha virt. eigenvalues --   -0.01779   0.20030   0.23264   0.53169   0.68190

 Mulliken charges:
               1
     1  H    0.232696
     2  H   -0.231137
     3  H   -0.272062
     4  H    0.232696
     5  H    0.037807
     6  H    0.037807
     7  H   -0.272062
     8  H    0.232696
     9  H    0.232696
    10  H   -0.231137
 Sum of Mulliken charges =   0.00000

 Dipole moment (field-independent basis, Debye):
    X=             -0.0000    Y=              0.0000    Z=             -0.0000  Tot=              0.0000
 Quadrupole moment (field-independent basis, Debye-Ang):
   XX=            -12.9289   YY=            -11.9784   ZZ=            -19.2661
   XY=              0.0000   XZ=              0.0000   YZ=             -0.0000

 Normal termination of Gaussian 09 at Thu Feb  9 15:40:03 2017.
