 Gaussian 09, Revision E.01,
 Gaussian 09:  ES64L-G09RevE.01 30-Nov-2015

 ----------------------------------------------------------------------
 #rhf/gen scf(symm,tight,novaracc,noincfock,fulldiag) stable(crhf) geom
 =nocrowd test
 ----------------------------------------------------------------------

 hf stability analysis of h10 triangular lattice, y= 0.7388998795365205
 9
 ----------------------------------------------------------------------
 Symbolic Z-matrix:
 Charge =  0 Multiplicity = 1

                         Standard orientation:
 ---------------------------------------------------------------------
 Center     Atomic      Atomic             Coordinates (Angstroms)
 Number     Number       Type             X           Y           Z
 ---------------------------------------------------------------------
      1          1           0        0.000000    0.738900    1.562729
      2          1           0        0.000000    0.000000    2.344094
      3          1           0        0.000000    0.000000    0.781365
      4          1           0       -0.000000   -0.738900    1.562729
      5          1           0       -0.000000    0.738900   -0.000000
      6          1           0       -0.000000   -0.738900    0.000000
      7          1           0        0.000000   -0.000000   -0.781365
      8          1           0        0.000000    0.738900   -1.562729
      9          1           0       -0.000000   -0.738900   -1.562729
     10          1           0        0.000000   -0.000000   -2.344094
 ---------------------------------------------------------------------

 SCF Done:  E(RHF) =  -4.82550766857     A.U. after    8 cycles
 E2 =    -0.9827313485D-01 EUMP2 =    -0.49237808034225D+01

 The electronic state is 1-AG.
 Alpha  occ. eigenvalues --   -0.90156  -0.74450  -0.52683  -0.44602  -0.26557
 Alpha virt. eigenvalues --   -0.03536   0.14664   0.31711   0.54903   0.55536

 Mulliken charges:
               1
     1  H   -0.222015
     2  H    0.249051
     3  H    0.169162
     4  H   -0.222015
     5  H    0.025817
     6  H    0.025817
     7  H    0.169162
     8  H   -0.222015
     9  H   -0.222015
    10  H    0.249051
 Sum of Mulliken charges =   0.00000

 Dipole moment (field-independent basis, Debye):
    X=              0.0000    Y=             -0.0000    Z=             -0.0000  Tot=              0.0000
 Quadrupole moment (field-independent basis, Debye-Ang):
   XX=            -13.0156   YY=            -18.8151   ZZ=            -10.0268
   XY=             -0.0000   XZ=             -0.0000   YZ=              0.0000

 Normal termination of Gaussian 09 at Thu Feb  9 15:36:11 2017.
