 Gaussian 09, Revision E.01,
 Gaussian 09:  ES64L-G09RevE.01 30-Nov-2015

 ----------------------------------------------------------------------
 #rhf/gen scf(symm,tight,novaracc,noincfock,fulldiag) stable(crhf) geom
 =nocrowd test
 ----------------------------------------------------------------------

 hf stability analysis of h10 triangular lattice, y= 0.6560058261002529
 3
 ----------------------------------------------------------------------
 Symbolic Z-matrix:
 Charge =  0 Multiplicity = 1

                         Standard orientation:
 ---------------------------------------------------------------------
 Center     Atomic      Atomic             Coordinates (Angstroms)
 Number     Number       Type             X           Y           Z
 ---------------------------------------------------------------------
      1          1           0       -0.000000    0.656006    1.760199
      2          1           0        0.000000    0.000000    2.640298
      3          1           0        0.000000    0.000000    0.880099
      4          1           0       -0.000000   -0.656006    1.760199
      5          1           0       -0.000000    0.656006    0.000000
      6          1           0       -0.000000   -0.656006   -0.000000
      7          1           0        0.000000    0.000000   -0.880099
      8          1           0        0.000000    0.656006   -1.760199
      9          1           0       -0.000000   -0.656006   -1.760199
     10          1           0        0.000000    0.000000   -2.640298
 ---------------------------------------------------------------------

 SCF Done:  E(RHF) =  -4.81933434016     A.U. after    9 cycles
 E2 =    -0.1187430240D+00 EUMP2 =    -0.49380773641189D+01

 The electronic state is 1-AG.
 Alpha  occ. eigenvalues --   -0.82709  -0.73264  -0.55086  -0.30526  -0.29020
 Alpha virt. eigenvalues --   -0.00446   0.19340   0.20059   0.50127   0.69887

 Mulliken charges:
               1
     1  H    0.210161
     2  H   -0.194205
     3  H   -0.258143
     4  H    0.210161
     5  H    0.032025
     6  H    0.032025
     7  H   -0.258143
     8  H    0.210161
     9  H    0.210161
    10  H   -0.194205
 Sum of Mulliken charges =  -0.00000

 Dipole moment (field-independent basis, Debye):
    X=             -0.0000    Y=              0.0000    Z=             -0.0000  Tot=              0.0000
 Quadrupole moment (field-independent basis, Debye-Ang):
   XX=            -12.9881   YY=            -12.5250   ZZ=            -18.0011
   XY=              0.0000   XZ=              0.0000   YZ=             -0.0000

 Normal termination of Gaussian 09 at Thu Feb  9 15:41:56 2017.
