 Gaussian 09, Revision E.01,
 Gaussian 09:  ES64L-G09RevE.01 30-Nov-2015

 ----------------------------------------------------------------------
 #rhf/gen scf(symm,tight,novaracc,noincfock,fulldiag) stable(crhf) geom
 =nocrowd test
 ----------------------------------------------------------------------

 hf stability analysis of h10 triangular lattice, y= 0.4956465381435082
 9
 ----------------------------------------------------------------------
 Symbolic Z-matrix:
 Charge =  0 Multiplicity = 1

                         Standard orientation:
 ---------------------------------------------------------------------
 Center     Atomic      Atomic             Coordinates (Angstroms)
 Number     Number       Type             X           Y           Z
 ---------------------------------------------------------------------
      1          1           0       -0.000000    0.495647    2.329685
      2          1           0       -0.000000    0.000000    3.494528
      3          1           0       -0.000000    0.000000    1.164843
      4          1           0       -0.000000   -0.495647    2.329685
      5          1           0       -0.000000    0.495647    0.000000
      6          1           0       -0.000000   -0.495647    0.000000
      7          1           0        0.000000    0.000000   -1.164843
      8          1           0        0.000000    0.495647   -2.329685
      9          1           0       -0.000000   -0.495647   -2.329685
     10          1           0        0.000000    0.000000   -3.494528
 ---------------------------------------------------------------------

 SCF Done:  E(RHF) =  -4.83400744677     A.U. after    9 cycles
 E2 =    -0.9358884374D-01 EUMP2 =    -0.49275962905013D+01

 The electronic state is 1-AG.
 Alpha  occ. eigenvalues --   -0.77964  -0.71949  -0.62847  -0.34362  -0.18899
 Alpha virt. eigenvalues --    0.11351   0.17376   0.19625   0.23826   0.39463

 Mulliken charges:
               1
     1  H    0.228387
     2  H   -0.382801
     3  H   -0.197653
     4  H    0.228387
     5  H    0.123681
     6  H    0.123681
     7  H   -0.197653
     8  H    0.228387
     9  H    0.228387
    10  H   -0.382801
 Sum of Mulliken charges =   0.00000

 Dipole moment (field-independent basis, Debye):
    X=             -0.0000    Y=             -0.0000    Z=              0.0000  Tot=              0.0000
 Quadrupole moment (field-independent basis, Debye-Ang):
   XX=            -13.0914   YY=             -9.9836   ZZ=            -41.9941
   XY=              0.0000   XZ=              0.0000   YZ=             -0.0000

 Normal termination of Gaussian 09 at Thu Feb  9 15:53:48 2017.
