 Gaussian 09, Revision E.01,
 Gaussian 09:  ES64L-G09RevE.01 30-Nov-2015

 ----------------------------------------------------------------------
 #rhf/gen scf(symm,tight,novaracc,noincfock,fulldiag) stable(crhf) geom
 =nocrowd test
 ----------------------------------------------------------------------

 hf stability analysis of h10 triangular lattice, y= 0.7331075402424347
 4
 ----------------------------------------------------------------------
 Symbolic Z-matrix:
 Charge =  0 Multiplicity = 1

                         Standard orientation:
 ---------------------------------------------------------------------
 Center     Atomic      Atomic             Coordinates (Angstroms)
 Number     Number       Type             X           Y           Z
 ---------------------------------------------------------------------
      1          1           0        0.000000    0.733108    1.575077
      2          1           0        0.000000    0.000000    2.362615
      3          1           0        0.000000    0.000000    0.787538
      4          1           0       -0.000000   -0.733108    1.575077
      5          1           0       -0.000000    0.733108    0.000000
      6          1           0       -0.000000   -0.733108    0.000000
      7          1           0        0.000000   -0.000000   -0.787538
      8          1           0        0.000000    0.733108   -1.575077
      9          1           0       -0.000000   -0.733108   -1.575077
     10          1           0        0.000000   -0.000000   -2.362615
 ---------------------------------------------------------------------

 SCF Done:  E(RHF) =  -4.81601994039     A.U. after    8 cycles
 E2 =    -0.9853477137D-01 EUMP2 =    -0.49145547117568D+01

 The electronic state is 1-AG.
 Alpha  occ. eigenvalues --   -0.89897  -0.74368  -0.52895  -0.44104  -0.26239
 Alpha virt. eigenvalues --   -0.03959   0.14548   0.30881   0.54744   0.56506

 Mulliken charges:
               1
     1  H   -0.225729
     2  H    0.254921
     3  H    0.174499
     4  H   -0.225729
     5  H    0.022038
     6  H    0.022038
     7  H    0.174499
     8  H   -0.225729
     9  H   -0.225729
    10  H    0.254921
 Sum of Mulliken charges =   0.00000

 Dipole moment (field-independent basis, Debye):
    X=              0.0000    Y=              0.0000    Z=             -0.0000  Tot=              0.0000
 Quadrupole moment (field-independent basis, Debye-Ang):
   XX=            -13.0191   YY=            -18.8822   ZZ=             -9.7218
   XY=             -0.0000   XZ=             -0.0000   YZ=             -0.0000

 Normal termination of Gaussian 09 at Thu Feb  9 15:36:34 2017.
