 Gaussian 09, Revision E.01,
 Gaussian 09:  ES64L-G09RevE.01 30-Nov-2015

 ----------------------------------------------------------------------
 #rhf/gen scf(symm,tight,novaracc,noincfock,fulldiag) stable(crhf) geom
 =nocrowd test
 ----------------------------------------------------------------------

 hf stability analysis of h10 triangular lattice, y= 0.5406230550554291
 8
 ----------------------------------------------------------------------
 Symbolic Z-matrix:
 Charge =  0 Multiplicity = 1

                         Standard orientation:
 ---------------------------------------------------------------------
 Center     Atomic      Atomic             Coordinates (Angstroms)
 Number     Number       Type             X           Y           Z
 ---------------------------------------------------------------------
      1          1           0        0.000000    0.540623    2.135870
      2          1           0        0.000000    0.000000    3.203805
      3          1           0        0.000000    0.000000    1.067935
      4          1           0       -0.000000   -0.540623    2.135870
      5          1           0       -0.000000    0.540623   -0.000000
      6          1           0       -0.000000   -0.540623    0.000000
      7          1           0        0.000000   -0.000000   -1.067935
      8          1           0        0.000000    0.540623   -2.135870
      9          1           0       -0.000000   -0.540623   -2.135870
     10          1           0        0.000000   -0.000000   -3.203805
 ---------------------------------------------------------------------

 SCF Done:  E(RHF) =  -4.69934586194     A.U. after    9 cycles
 E2 =    -0.1741348378D+00 EUMP2 =    -0.48734806997107D+01

 The electronic state is 1-AG.
 Alpha  occ. eigenvalues --   -0.76700  -0.71403  -0.57337  -0.31622  -0.15221
 Alpha virt. eigenvalues --    0.03276   0.07976   0.23038   0.30352   0.57975

 Mulliken charges:
               1
     1  H    0.084918
     2  H   -0.007883
     3  H   -0.132425
     4  H    0.084918
     5  H   -0.029528
     6  H   -0.029528
     7  H   -0.132425
     8  H    0.084918
     9  H    0.084918
    10  H   -0.007883
 Sum of Mulliken charges =   0.00000

 Dipole moment (field-independent basis, Debye):
    X=             -0.0000    Y=              0.0000    Z=             -0.0000  Tot=              0.0000
 Quadrupole moment (field-independent basis, Debye-Ang):
   XX=            -13.2420   YY=            -14.6425   ZZ=             -8.8839
   XY=             -0.0000   XZ=             -0.0000   YZ=              0.0000

 Normal termination of Gaussian 09 at Thu Feb  9 15:50:31 2017.
