 Gaussian 09, Revision E.01,
 Gaussian 09:  ES64L-G09RevE.01 30-Nov-2015

 ----------------------------------------------------------------------
 #rhf/gen scf(symm,tight,novaracc,noincfock,fulldiag) stable(crhf) geom
 =nocrowd test
 ----------------------------------------------------------------------

 hf stability analysis of h10 triangular lattice, y= 0.3247197019227651
 1
 ----------------------------------------------------------------------
 Symbolic Z-matrix:
 Charge =  0 Multiplicity = 1

                         Standard orientation:
 ---------------------------------------------------------------------
 Center     Atomic      Atomic             Coordinates (Angstroms)
 Number     Number       Type             X           Y           Z
 ---------------------------------------------------------------------
      1          1           0        0.000000    0.324720    3.555992
      2          1           0        0.000000    0.000000    5.333987
      3          1           0        0.000000    0.000000    1.777996
      4          1           0       -0.000000   -0.324720    3.555992
      5          1           0       -0.000000    0.324720   -0.000000
      6          1           0       -0.000000   -0.324720    0.000000
      7          1           0        0.000000   -0.000000   -1.777996
      8          1           0        0.000000    0.324720   -3.555992
      9          1           0       -0.000000   -0.324720   -3.555992
     10          1           0        0.000000   -0.000000   -5.333987
 ---------------------------------------------------------------------

 SCF Done:  E(RHF) =  -4.75414489369     A.U. after   10 cycles
 E2 =    -0.2642113962D+00 EUMP2 =    -0.50183562898645D+01

 The electronic state is 1-AG.
 Alpha  occ. eigenvalues --   -0.70294  -0.69612  -0.68006  -0.28433  -0.24436
 Alpha virt. eigenvalues --   -0.06878  -0.02373   0.42972   0.43695   0.45677

 Mulliken charges:
               1
     1  H    0.041854
     2  H   -0.078703
     3  H   -0.018272
     4  H    0.041854
     5  H    0.013267
     6  H    0.013267
     7  H   -0.018272
     8  H    0.041854
     9  H    0.041854
    10  H   -0.078703
 Sum of Mulliken charges =   0.00000

 Dipole moment (field-independent basis, Debye):
    X=             -0.0000    Y=             -0.0000    Z=             -0.0000  Tot=              0.0000
 Quadrupole moment (field-independent basis, Debye-Ang):
   XX=            -13.6117   YY=            -12.4684   ZZ=            -27.1510
   XY=              0.0000   XZ=              0.0000   YZ=             -0.0000

 Normal termination of Gaussian 09 at Thu Feb  9 16:03:51 2017.
