 Gaussian 09, Revision E.01,
 Gaussian 09:  ES64L-G09RevE.01 30-Nov-2015

 ----------------------------------------------------------------------
 #rhf/gen scf(symm,tight,novaracc,noincfock,fulldiag) stable(crhf) geom
 =nocrowd test
 ----------------------------------------------------------------------

 hf stability analysis of h10 triangular lattice, y= 0.6655948165158517
 3
 ----------------------------------------------------------------------
 Symbolic Z-matrix:
 Charge =  0 Multiplicity = 1

                         Standard orientation:
 ---------------------------------------------------------------------
 Center     Atomic      Atomic             Coordinates (Angstroms)
 Number     Number       Type             X           Y           Z
 ---------------------------------------------------------------------
      1          1           0       -0.000000    0.665595    1.734840
      2          1           0       -0.000000    0.000000    2.602260
      3          1           0       -0.000000    0.000000    0.867420
      4          1           0       -0.000000   -0.665595    1.734840
      5          1           0       -0.000000    0.665595   -0.000000
      6          1           0       -0.000000   -0.665595    0.000000
      7          1           0        0.000000   -0.000000   -0.867420
      8          1           0        0.000000    0.665595   -1.734840
      9          1           0       -0.000000   -0.665595   -1.734840
     10          1           0        0.000000   -0.000000   -2.602260
 ---------------------------------------------------------------------

 SCF Done:  E(RHF) =  -4.82033569725     A.U. after    8 cycles
 E2 =    -0.1160017540D+00 EUMP2 =    -0.49363374512264D+01

 The electronic state is 1-AG.
 Alpha  occ. eigenvalues --   -0.83091  -0.73279  -0.54761  -0.31591  -0.28542
 Alpha virt. eigenvalues --   -0.00958   0.20025   0.20786   0.51337   0.69427

 Mulliken charges:
               1
     1  H    0.218768
     2  H   -0.208125
     3  H   -0.263942
     4  H    0.218768
     5  H    0.034530
     6  H    0.034530
     7  H   -0.263942
     8  H    0.218768
     9  H    0.218768
    10  H   -0.208125
 Sum of Mulliken charges =  -0.00000

 Dipole moment (field-independent basis, Debye):
    X=             -0.0000    Y=              0.0000    Z=              0.0000  Tot=              0.0000
 Quadrupole moment (field-independent basis, Debye-Ang):
   XX=            -12.9661   YY=            -12.3247   ZZ=            -18.4946
   XY=              0.0000   XZ=              0.0000   YZ=              0.0000

 Normal termination of Gaussian 09 at Thu Feb  9 15:41:15 2017.
