 Gaussian 09, Revision E.01,
 Gaussian 09:  ES64L-G09RevE.01 30-Nov-2015

 ----------------------------------------------------------------------
 #rhf/gen scf(symm,tight,novaracc,noincfock,fulldiag) stable(crhf) geom
 =nocrowd test
 ----------------------------------------------------------------------

 hf stability analysis of h10 triangular lattice, y= 0.4376065044147199
 3
 ----------------------------------------------------------------------
 Symbolic Z-matrix:
 Charge =  0 Multiplicity = 1

                         Standard orientation:
 ---------------------------------------------------------------------
 Center     Atomic      Atomic             Coordinates (Angstroms)
 Number     Number       Type             X           Y           Z
 ---------------------------------------------------------------------
      1          1           0       -0.000000    0.437606    2.638673
      2          1           0       -0.000000    0.000000    3.958010
      3          1           0       -0.000000    0.000000    1.319337
      4          1           0       -0.000000   -0.437606    2.638673
      5          1           0       -0.000000    0.437606    0.000000
      6          1           0       -0.000000   -0.437606    0.000000
      7          1           0        0.000000    0.000000   -1.319337
      8          1           0        0.000000    0.437606   -2.638673
      9          1           0       -0.000000   -0.437606   -2.638673
     10          1           0        0.000000    0.000000   -3.958010
 ---------------------------------------------------------------------

 SCF Done:  E(RHF) =  -4.90235294952     A.U. after    9 cycles
 E2 =    -0.1147377798D+00 EUMP2 =    -0.50170907292881D+01

 The electronic state is 1-AG.
 Alpha  occ. eigenvalues --   -0.74770  -0.70874  -0.64845  -0.33421  -0.22100
 Alpha virt. eigenvalues --    0.08881   0.20633   0.23101   0.24317   0.29088

 Mulliken charges:
               1
     1  H    0.166213
     2  H   -0.281380
     3  H   -0.133700
     4  H    0.166213
     5  H    0.082654
     6  H    0.082654
     7  H   -0.133700
     8  H    0.166213
     9  H    0.166213
    10  H   -0.281380
 Sum of Mulliken charges =  -0.00000

 Dipole moment (field-independent basis, Debye):
    X=             -0.0000    Y=              0.0000    Z=              0.0000  Tot=              0.0000
 Quadrupole moment (field-independent basis, Debye-Ang):
   XX=            -13.3644   YY=            -11.0578   ZZ=            -39.5714
   XY=              0.0000   XZ=              0.0000   YZ=             -0.0000

 Normal termination of Gaussian 09 at Thu Feb  9 15:57:49 2017.
