 Gaussian 09, Revision E.01,
 Gaussian 09:  ES64L-G09RevE.01 30-Nov-2015

 ----------------------------------------------------------------------
 #rhf/gen scf(symm,tight,novaracc,noincfock,fulldiag) stable(crhf) geom
 =nocrowd test
 ----------------------------------------------------------------------

 hf stability analysis of h10 triangular lattice, y= 0.3701512145574039
 6
 ----------------------------------------------------------------------
 Symbolic Z-matrix:
 Charge =  0 Multiplicity = 1

                         Standard orientation:
 ---------------------------------------------------------------------
 Center     Atomic      Atomic             Coordinates (Angstroms)
 Number     Number       Type             X           Y           Z
 ---------------------------------------------------------------------
      1          1           0       -0.000000    0.370151    3.119537
      2          1           0       -0.000000    0.000000    4.679306
      3          1           0       -0.000000    0.000000    1.559769
      4          1           0       -0.000000   -0.370151    3.119537
      5          1           0        0.000000    0.370151    0.000000
      6          1           0       -0.000000   -0.370151    0.000000
      7          1           0        0.000000    0.000000   -1.559769
      8          1           0        0.000000    0.370151   -3.119537
      9          1           0       -0.000000   -0.370151   -3.119537
     10          1           0        0.000000    0.000000   -4.679306
 ---------------------------------------------------------------------

 SCF Done:  E(RHF) =  -4.86287713020     A.U. after    9 cycles
 E2 =    -0.1767010254D+00 EUMP2 =    -0.50395781555869D+01

 The electronic state is 1-AG.
 Alpha  occ. eigenvalues --   -0.71476  -0.69792  -0.66707  -0.30715  -0.24026
 Alpha virt. eigenvalues --   -0.01543   0.06338   0.33297   0.34877   0.37968

 Mulliken charges:
               1
     1  H    0.088948
     2  H   -0.155110
     3  H   -0.060015
     4  H    0.088948
     5  H    0.037229
     6  H    0.037229
     7  H   -0.060015
     8  H    0.088948
     9  H    0.088948
    10  H   -0.155110
 Sum of Mulliken charges =  -0.00000

 Dipole moment (field-independent basis, Debye):
    X=             -0.0000    Y=             -0.0000    Z=              0.0000  Tot=              0.0000
 Quadrupole moment (field-independent basis, Debye-Ang):
   XX=            -13.5703   YY=            -12.0265   ZZ=            -33.3402
   XY=              0.0000   XZ=              0.0000   YZ=             -0.0000

 Normal termination of Gaussian 09 at Thu Feb  9 16:01:48 2017.
