 Gaussian 09, Revision E.01,
 Gaussian 09:  ES64L-G09RevE.01 30-Nov-2015

 ----------------------------------------------------------------------
 #rhf/gen scf(symm,tight,novaracc,noincfock,fulldiag) stable(crhf) geom
 =nocrowd test
 ----------------------------------------------------------------------

 hf stability analysis of h10 triangular lattice, y= 0.6164169849975909
 0
 ----------------------------------------------------------------------
 Symbolic Z-matrix:
 Charge =  0 Multiplicity = 1

                         Standard orientation:
 ---------------------------------------------------------------------
 Center     Atomic      Atomic             Coordinates (Angstroms)
 Number     Number       Type             X           Y           Z
 ---------------------------------------------------------------------
      1          1           0        0.000000    0.616417    1.873246
      2          1           0        0.000000    0.000000    2.809869
      3          1           0        0.000000    0.000000    0.936623
      4          1           0       -0.000000   -0.616417    1.873246
      5          1           0       -0.000000    0.616417    0.000000
      6          1           0       -0.000000   -0.616417   -0.000000
      7          1           0        0.000000   -0.000000   -0.936623
      8          1           0        0.000000    0.616417   -1.873246
      9          1           0       -0.000000   -0.616417   -1.873246
     10          1           0        0.000000   -0.000000   -2.809869
 ---------------------------------------------------------------------

 SCF Done:  E(RHF) =  -4.80197760547     A.U. after    9 cycles
 E2 =    -0.1325118784D+00 EUMP2 =    -0.49344894838882D+01

 The electronic state is 1-AG.
 Alpha  occ. eigenvalues --   -0.80933  -0.72977  -0.56213  -0.30582  -0.25826
 Alpha virt. eigenvalues --    0.01942   0.13498   0.20514   0.44225   0.69416

 Mulliken charges:
               1
     1  H    0.171410
     2  H   -0.133734
     3  H   -0.226270
     4  H    0.171410
     5  H    0.017184
     6  H    0.017184
     7  H   -0.226270
     8  H    0.171410
     9  H    0.171410
    10  H   -0.133734
 Sum of Mulliken charges =   0.00000

 Dipole moment (field-independent basis, Debye):
    X=             -0.0000    Y=              0.0000    Z=              0.0000  Tot=              0.0000
 Quadrupole moment (field-independent basis, Debye-Ang):
   XX=            -13.0789   YY=            -13.3213   ZZ=            -15.5963
   XY=              0.0000   XZ=              0.0000   YZ=             -0.0000

 Normal termination of Gaussian 09 at Thu Feb  9 15:44:51 2017.
