 Gaussian 09, Revision E.01,
 Gaussian 09:  ES64L-G09RevE.01 30-Nov-2015

 ----------------------------------------------------------------------
 #rhf/gen scf(symm,tight,novaracc,noincfock,fulldiag) stable(crhf) geom
 =nocrowd test
 ----------------------------------------------------------------------

 hf stability analysis of h10 triangular lattice, y= 0.4401580473573892
 3
 ----------------------------------------------------------------------
 Symbolic Z-matrix:
 Charge =  0 Multiplicity = 1

                         Standard orientation:
 ---------------------------------------------------------------------
 Center     Atomic      Atomic             Coordinates (Angstroms)
 Number     Number       Type             X           Y           Z
 ---------------------------------------------------------------------
      1          1           0       -0.000000    0.440158    2.623377
      2          1           0       -0.000000    0.000000    3.935066
      3          1           0       -0.000000    0.000000    1.311689
      4          1           0       -0.000000   -0.440158    2.623377
      5          1           0       -0.000000    0.440158    0.000000
      6          1           0       -0.000000   -0.440158   -0.000000
      7          1           0        0.000000   -0.000000   -1.311689
      8          1           0        0.000000    0.440158   -2.623377
      9          1           0       -0.000000   -0.440158   -2.623377
     10          1           0        0.000000   -0.000000   -3.935066
 ---------------------------------------------------------------------

 SCF Done:  E(RHF) =  -4.90124018995     A.U. after    9 cycles
 E2 =    -0.1133598389D+00 EUMP2 =    -0.50146000288689D+01

 The electronic state is 1-AG.
 Alpha  occ. eigenvalues --   -0.74911  -0.70923  -0.64766  -0.33493  -0.21991
 Alpha virt. eigenvalues --    0.09325   0.20194   0.23801   0.23974   0.28814

 Mulliken charges:
               1
     1  H    0.169077
     2  H   -0.286069
     3  H   -0.136536
     4  H    0.169077
     5  H    0.084451
     6  H    0.084451
     7  H   -0.136536
     8  H    0.169077
     9  H    0.169077
    10  H   -0.286069
 Sum of Mulliken charges =  -0.00000

 Dipole moment (field-independent basis, Debye):
    X=             -0.0000    Y=             -0.0000    Z=              0.0000  Tot=              0.0000
 Quadrupole moment (field-independent basis, Debye-Ang):
   XX=            -13.3538   YY=            -11.0147   ZZ=            -39.7289
   XY=              0.0000   XZ=              0.0000   YZ=             -0.0000

 Normal termination of Gaussian 09 at Thu Feb  9 15:57:39 2017.
