 Gaussian 09, Revision E.01,
 Gaussian 09:  ES64L-G09RevE.01 30-Nov-2015

 ----------------------------------------------------------------------
 #rhf/gen scf(symm,tight,novaracc,noincfock,fulldiag) stable(crhf) geom
 =nocrowd test
 ----------------------------------------------------------------------

 hf stability analysis of h10 triangular lattice, y= 0.5488079761876639
 7
 ----------------------------------------------------------------------
 Symbolic Z-matrix:
 Charge =  0 Multiplicity = 1

                         Standard orientation:
 ---------------------------------------------------------------------
 Center     Atomic      Atomic             Coordinates (Angstroms)
 Number     Number       Type             X           Y           Z
 ---------------------------------------------------------------------
      1          1           0       -0.000000    0.548808    2.104016
      2          1           0        0.000000    0.000000    3.156023
      3          1           0        0.000000    0.000000    1.052008
      4          1           0       -0.000000   -0.548808    2.104016
      5          1           0       -0.000000    0.548808    0.000000
      6          1           0       -0.000000   -0.548808   -0.000000
      7          1           0        0.000000   -0.000000   -1.052008
      8          1           0        0.000000    0.548808   -2.104016
      9          1           0       -0.000000   -0.548808   -2.104016
     10          1           0        0.000000   -0.000000   -3.156023
 ---------------------------------------------------------------------

 SCF Done:  E(RHF) =  -4.71549191860     A.U. after    9 cycles
 E2 =    -0.1683537102D+00 EUMP2 =    -0.48838456288131D+01

 The electronic state is 1-AG.
 Alpha  occ. eigenvalues --   -0.77204  -0.71636  -0.57282  -0.31633  -0.16481
 Alpha virt. eigenvalues --    0.04304   0.07217   0.22647   0.31928   0.59760

 Mulliken charges:
               1
     1  H    0.094915
     2  H   -0.021879
     3  H   -0.144496
     4  H    0.094915
     5  H   -0.023455
     6  H   -0.023455
     7  H   -0.144496
     8  H    0.094915
     9  H    0.094915
    10  H   -0.021879
 Sum of Mulliken charges =  -0.00000

 Dipole moment (field-independent basis, Debye):
    X=             -0.0000    Y=              0.0000    Z=             -0.0000  Tot=              0.0000
 Quadrupole moment (field-independent basis, Debye-Ang):
   XX=            -13.2258   YY=            -14.5157   ZZ=             -9.7691
   XY=             -0.0000   XZ=             -0.0000   YZ=             -0.0000

 Normal termination of Gaussian 09 at Thu Feb  9 15:49:55 2017.
