 Gaussian 09, Revision E.01,
 Gaussian 09:  ES64L-G09RevE.01 30-Nov-2015

 ----------------------------------------------------------------------
 #rhf/gen scf(symm,tight,novaracc,noincfock,fulldiag) stable(crhf) geom
 =nocrowd test
 ----------------------------------------------------------------------

 hf stability analysis of h10 triangular lattice, y= 0.5645480334783417
 0
 ----------------------------------------------------------------------
 Symbolic Z-matrix:
 Charge =  0 Multiplicity = 1

                         Standard orientation:
 ---------------------------------------------------------------------
 Center     Atomic      Atomic             Coordinates (Angstroms)
 Number     Number       Type             X           Y           Z
 ---------------------------------------------------------------------
      1          1           0        0.000000    0.564548    2.045354
      2          1           0        0.000000    0.000000    3.068031
      3          1           0        0.000000    0.000000    1.022677
      4          1           0       -0.000000   -0.564548    2.045354
      5          1           0       -0.000000    0.564548    0.000000
      6          1           0       -0.000000   -0.564548    0.000000
      7          1           0        0.000000   -0.000000   -1.022677
      8          1           0        0.000000    0.564548   -2.045354
      9          1           0       -0.000000   -0.564548   -2.045354
     10          1           0        0.000000   -0.000000   -3.068031
 ---------------------------------------------------------------------

 SCF Done:  E(RHF) =  -4.74284344991     A.U. after    9 cycles
 E2 =    -0.1582488455D+00 EUMP2 =    -0.49010922954380D+01

 The electronic state is 1-AG.
 Alpha  occ. eigenvalues --   -0.78143  -0.72043  -0.57131  -0.31571  -0.18823
 Alpha virt. eigenvalues --    0.05836   0.06335   0.21981   0.34932   0.62880

 Mulliken charges:
               1
     1  H    0.113730
     2  H   -0.048606
     3  H   -0.166419
     4  H    0.113730
     5  H   -0.012436
     6  H   -0.012436
     7  H   -0.166419
     8  H    0.113730
     9  H    0.113730
    10  H   -0.048606
 Sum of Mulliken charges =  -0.00000

 Dipole moment (field-independent basis, Debye):
    X=             -0.0000    Y=             -0.0000    Z=             -0.0000  Tot=              0.0000
 Quadrupole moment (field-independent basis, Debye-Ang):
   XX=            -13.1934   YY=            -14.2601   ZZ=            -11.3530
   XY=             -0.0000   XZ=              0.0000   YZ=              0.0000

 Normal termination of Gaussian 09 at Thu Feb  9 15:48:45 2017.
