 Gaussian 09, Revision E.01,
 Gaussian 09:  ES64L-G09RevE.01 30-Nov-2015

 ----------------------------------------------------------------------
 #rhf/gen scf(symm,tight,novaracc,noincfock,fulldiag) stable(crhf) geom
 =nocrowd test
 ----------------------------------------------------------------------

 hf stability analysis of h10 triangular lattice, y= 0.2821356060257092
 0
 ----------------------------------------------------------------------
 Symbolic Z-matrix:
 Charge =  0 Multiplicity = 1

                         Standard orientation:
 ---------------------------------------------------------------------
 Center     Atomic      Atomic             Coordinates (Angstroms)
 Number     Number       Type             X           Y           Z
 ---------------------------------------------------------------------
      1          1           0        0.000000    0.282136    4.092715
      2          1           0        0.000000   -0.000000    6.139072
      3          1           0        0.000000   -0.000000    2.046357
      4          1           0       -0.000000   -0.282136    4.092715
      5          1           0        0.000000    0.282136    0.000000
      6          1           0       -0.000000   -0.282136   -0.000000
      7          1           0        0.000000    0.000000   -2.046357
      8          1           0        0.000000    0.282136   -4.092715
      9          1           0       -0.000000   -0.282136   -4.092715
     10          1           0        0.000000    0.000000   -6.139072
 ---------------------------------------------------------------------

 SCF Done:  E(RHF) =  -4.57426646418     A.U. after   10 cycles
 E2 =    -0.3977907381D+00 EUMP2 =    -0.49720572023077D+01

 The electronic state is 1-AG.
 Alpha  occ. eigenvalues --   -0.70554  -0.70335  -0.69699  -0.26416  -0.24351
 Alpha virt. eigenvalues --   -0.10458  -0.08221   0.52645   0.52935   0.53907

 Mulliken charges:
               1
     1  H    0.011558
     2  H   -0.028481
     3  H    0.004316
     4  H    0.011558
     5  H    0.001050
     6  H    0.001050
     7  H    0.004316
     8  H    0.011558
     9  H    0.011558
    10  H   -0.028481
 Sum of Mulliken charges =   0.00000

 Dipole moment (field-independent basis, Debye):
    X=             -0.0000    Y=              0.0000    Z=              0.0000  Tot=              0.0000
 Quadrupole moment (field-independent basis, Debye-Ang):
   XX=            -13.5967   YY=            -12.7469   ZZ=            -21.2006
   XY=              0.0000   XZ=              0.0000   YZ=             -0.0000

 Normal termination of Gaussian 09 at Thu Feb  9 16:05:30 2017.
