 Gaussian 09, Revision E.01,
 Gaussian 09:  ES64L-G09RevE.01 30-Nov-2015

 ----------------------------------------------------------------------
 #rhf/gen scf(symm,tight,novaracc,noincfock,fulldiag) stable(crhf) geom
 =nocrowd test
 ----------------------------------------------------------------------

 hf stability analysis of h10 triangular lattice, y= 0.4234052775129074
 1
 ----------------------------------------------------------------------
 Symbolic Z-matrix:
 Charge =  0 Multiplicity = 1

                         Standard orientation:
 ---------------------------------------------------------------------
 Center     Atomic      Atomic             Coordinates (Angstroms)
 Number     Number       Type             X           Y           Z
 ---------------------------------------------------------------------
      1          1           0        0.000000    0.423405    2.727176
      2          1           0        0.000000   -0.000000    4.090763
      3          1           0        0.000000   -0.000000    1.363588
      4          1           0       -0.000000   -0.423405    2.727176
      5          1           0       -0.000000    0.423405    0.000000
      6          1           0       -0.000000   -0.423405   -0.000000
      7          1           0        0.000000    0.000000   -1.363588
      8          1           0        0.000000    0.423405   -2.727176
      9          1           0       -0.000000   -0.423405   -2.727176
     10          1           0        0.000000    0.000000   -4.090763
 ---------------------------------------------------------------------

 SCF Done:  E(RHF) =  -4.90519165131     A.U. after    8 cycles
 E2 =    -0.1234039583D+00 EUMP2 =    -0.50285956096300D+01

 The electronic state is 1-AG.
 Alpha  occ. eigenvalues --   -0.73998  -0.70609  -0.65266  -0.32973  -0.22657
 Alpha virt. eigenvalues --    0.06471   0.19275   0.23127   0.26296   0.30697

 Mulliken charges:
               1
     1  H    0.150110
     2  H   -0.255006
     3  H   -0.117915
     4  H    0.150110
     5  H    0.072702
     6  H    0.072702
     7  H   -0.117915
     8  H    0.150110
     9  H    0.150110
    10  H   -0.255006
 Sum of Mulliken charges =  -0.00000

 Dipole moment (field-independent basis, Debye):
    X=             -0.0000    Y=             -0.0000    Z=              0.0000  Tot=              0.0000
 Quadrupole moment (field-independent basis, Debye-Ang):
   XX=            -13.4201   YY=            -11.2900   ZZ=            -38.5952
   XY=              0.0000   XZ=              0.0000   YZ=              0.0000

 Normal termination of Gaussian 09 at Thu Feb  9 15:58:45 2017.
