 Gaussian 09, Revision E.01,
 Gaussian 09:  ES64L-G09RevE.01 30-Nov-2015

 ----------------------------------------------------------------------
 #rhf/gen scf(symm,tight,novaracc,noincfock,fulldiag) stable(crhf) geom
 =nocrowd test
 ----------------------------------------------------------------------

 hf stability analysis of h10 triangular lattice, y= 0.3066389812720254
 9
 ----------------------------------------------------------------------
 Symbolic Z-matrix:
 Charge =  0 Multiplicity = 1

                         Standard orientation:
 ---------------------------------------------------------------------
 Center     Atomic      Atomic             Coordinates (Angstroms)
 Number     Number       Type             X           Y           Z
 ---------------------------------------------------------------------
      1          1           0       -0.000000    0.306639    3.765668
      2          1           0       -0.000000    0.000000    5.648502
      3          1           0       -0.000000    0.000000    1.882834
      4          1           0       -0.000000   -0.306639    3.765668
      5          1           0       -0.000000    0.306639    0.000000
      6          1           0       -0.000000   -0.306639    0.000000
      7          1           0        0.000000    0.000000   -1.882834
      8          1           0        0.000000    0.306639   -3.765668
      9          1           0       -0.000000   -0.306639   -3.765668
     10          1           0        0.000000    0.000000   -5.648502
 ---------------------------------------------------------------------

 SCF Done:  E(RHF) =  -4.68868999643     A.U. after    9 cycles
 E2 =    -0.3144648298D+00 EUMP2 =    -0.50031548261977D+01

 The electronic state is 1-AG.
 Alpha  occ. eigenvalues --   -0.70217  -0.69784  -0.68643  -0.27544  -0.24447
 Alpha virt. eigenvalues --   -0.08570  -0.05139   0.47030   0.47533   0.49070

 Mulliken charges:
               1
     1  H    0.026826
     2  H   -0.054139
     3  H   -0.006221
     4  H    0.026826
     5  H    0.006708
     6  H    0.006708
     7  H   -0.006221
     8  H    0.026826
     9  H    0.026826
    10  H   -0.054139
 Sum of Mulliken charges =  -0.00000

 Dipole moment (field-independent basis, Debye):
    X=             -0.0000    Y=             -0.0000    Z=              0.0000  Tot=              0.0000
 Quadrupole moment (field-independent basis, Debye-Ang):
   XX=            -13.6089   YY=            -12.5993   ZZ=            -24.5346
   XY=              0.0000   XZ=              0.0000   YZ=              0.0000

 Normal termination of Gaussian 09 at Thu Feb  9 16:04:35 2017.
