 Gaussian 09, Revision E.01,
 Gaussian 09:  ES64L-G09RevE.01 30-Nov-2015

 ----------------------------------------------------------------------
 #rhf/gen scf(symm,tight,novaracc,noincfock,fulldiag) stable(crhf) geom
 =nocrowd test
 ----------------------------------------------------------------------

 hf stability analysis of h10 triangular lattice, y= 0.3687111964088696
 8
 ----------------------------------------------------------------------
 Symbolic Z-matrix:
 Charge =  0 Multiplicity = 1

                         Standard orientation:
 ---------------------------------------------------------------------
 Center     Atomic      Atomic             Coordinates (Angstroms)
 Number     Number       Type             X           Y           Z
 ---------------------------------------------------------------------
      1          1           0        0.000000    0.368711    3.131721
      2          1           0        0.000000    0.000000    4.697581
      3          1           0        0.000000    0.000000    1.565860
      4          1           0       -0.000000   -0.368711    3.131721
      5          1           0       -0.000000    0.368711    0.000000
      6          1           0       -0.000000   -0.368711    0.000000
      7          1           0        0.000000   -0.000000   -1.565860
      8          1           0        0.000000    0.368711   -3.131721
      9          1           0       -0.000000   -0.368711   -3.131721
     10          1           0        0.000000   -0.000000   -4.697581
 ---------------------------------------------------------------------

 SCF Done:  E(RHF) =  -4.86051659881     A.U. after    9 cycles
 E2 =    -0.1787547870D+00 EUMP2 =    -0.50392713858368D+01

 The electronic state is 1-AG.
 Alpha  occ. eigenvalues --   -0.71421  -0.69777  -0.66745  -0.30645  -0.24048
 Alpha virt. eigenvalues --   -0.01735   0.06026   0.33590   0.35136   0.38192

 Mulliken charges:
               1
     1  H    0.087330
     2  H   -0.152480
     3  H   -0.058527
     4  H    0.087330
     5  H    0.036347
     6  H    0.036347
     7  H   -0.058527
     8  H    0.087330
     9  H    0.087330
    10  H   -0.152480
 Sum of Mulliken charges =   0.00000

 Dipole moment (field-independent basis, Debye):
    X=             -0.0000    Y=              0.0000    Z=              0.0000  Tot=              0.0000
 Quadrupole moment (field-independent basis, Debye-Ang):
   XX=            -13.5728   YY=            -12.0432   ZZ=            -33.1637
   XY=              0.0000   XZ=              0.0000   YZ=              0.0000

 Normal termination of Gaussian 09 at Thu Feb  9 16:01:52 2017.
