 Gaussian 09, Revision E.01,
 Gaussian 09:  ES64L-G09RevE.01 30-Nov-2015

 ----------------------------------------------------------------------
 #rhf/gen scf(symm,tight,novaracc,noincfock,fulldiag) stable(crhf) geom
 =nocrowd test
 ----------------------------------------------------------------------

 hf stability analysis of h10 triangular lattice, y= 0.4253593920508348
 4
 ----------------------------------------------------------------------
 Symbolic Z-matrix:
 Charge =  0 Multiplicity = 1

                         Standard orientation:
 ---------------------------------------------------------------------
 Center     Atomic      Atomic             Coordinates (Angstroms)
 Number     Number       Type             X           Y           Z
 ---------------------------------------------------------------------
      1          1           0        0.000000    0.425359    2.714647
      2          1           0        0.000000    0.000000    4.071970
      3          1           0        0.000000    0.000000    1.357323
      4          1           0       -0.000000   -0.425359    2.714647
      5          1           0       -0.000000    0.425359    0.000000
      6          1           0       -0.000000   -0.425359   -0.000000
      7          1           0        0.000000    0.000000   -1.357323
      8          1           0        0.000000    0.425359   -2.714647
      9          1           0       -0.000000   -0.425359   -2.714647
     10          1           0        0.000000    0.000000   -4.071970
 ---------------------------------------------------------------------

 SCF Done:  E(RHF) =  -4.90514174985     A.U. after    8 cycles
 E2 =    -0.1221046533D+00 EUMP2 =    -0.50272464031623D+01

 The electronic state is 1-AG.
 Alpha  occ. eigenvalues --   -0.74103  -0.70645  -0.65210  -0.33039  -0.22585
 Alpha virt. eigenvalues --    0.06797   0.19794   0.22778   0.26017   0.30467

 Mulliken charges:
               1
     1  H    0.152341
     2  H   -0.258660
     3  H   -0.120086
     4  H    0.152341
     5  H    0.074065
     6  H    0.074065
     7  H   -0.120086
     8  H    0.152341
     9  H    0.152341
    10  H   -0.258660
 Sum of Mulliken charges =   0.00000

 Dipole moment (field-independent basis, Debye):
    X=             -0.0000    Y=              0.0000    Z=              0.0000  Tot=              0.0000
 Quadrupole moment (field-independent basis, Debye-Ang):
   XX=            -13.4128   YY=            -11.2589   ZZ=            -38.7398
   XY=              0.0000   XZ=              0.0000   YZ=             -0.0000

 Normal termination of Gaussian 09 at Thu Feb  9 15:58:37 2017.
