 Gaussian 09, Revision E.01,
 Gaussian 09:  ES64L-G09RevE.01 30-Nov-2015

 ----------------------------------------------------------------------
 #rhf/gen scf(symm,tight,novaracc,noincfock,fulldiag) stable(crhf) geom
 =nocrowd test
 ----------------------------------------------------------------------

 hf stability analysis of h10 triangular lattice, y= 0.4142066255514091
 9
 ----------------------------------------------------------------------
 Symbolic Z-matrix:
 Charge =  0 Multiplicity = 1

                         Standard orientation:
 ---------------------------------------------------------------------
 Center     Atomic      Atomic             Coordinates (Angstroms)
 Number     Number       Type             X           Y           Z
 ---------------------------------------------------------------------
      1          1           0       -0.000000    0.414207    2.787740
      2          1           0       -0.000000   -0.000000    4.181611
      3          1           0       -0.000000   -0.000000    1.393870
      4          1           0       -0.000000   -0.414207    2.787740
      5          1           0        0.000000    0.414207    0.000000
      6          1           0       -0.000000   -0.414207   -0.000000
      7          1           0        0.000000    0.000000   -1.393870
      8          1           0        0.000000    0.414207   -2.787740
      9          1           0       -0.000000   -0.414207   -2.787740
     10          1           0        0.000000    0.000000   -4.181611
 ---------------------------------------------------------------------

 SCF Done:  E(RHF) =  -4.90394451654     A.U. after    8 cycles
 E2 =    -0.1300270470D+00 EUMP2 =    -0.50339715635621D+01

 The electronic state is 1-AG.
 Alpha  occ. eigenvalues --   -0.73512  -0.70443  -0.65528  -0.32643  -0.22972
 Alpha virt. eigenvalues --    0.04967   0.16868   0.24791   0.27645   0.31811

 Mulliken charges:
               1
     1  H    0.139560
     2  H   -0.237729
     3  H   -0.107707
     4  H    0.139560
     5  H    0.066317
     6  H    0.066317
     7  H   -0.107707
     8  H    0.139560
     9  H    0.139560
    10  H   -0.237729
 Sum of Mulliken charges =  -0.00000

 Dipole moment (field-independent basis, Debye):
    X=             -0.0000    Y=             -0.0000    Z=              0.0000  Tot=              0.0000
 Quadrupole moment (field-independent basis, Debye-Ang):
   XX=            -13.4531   YY=            -11.4329   ZZ=            -37.8697
   XY=              0.0000   XZ=              0.0000   YZ=              0.0000

 Normal termination of Gaussian 09 at Thu Feb  9 15:59:20 2017.
