 Gaussian 09, Revision E.01,
 Gaussian 09:  ES64L-G09RevE.01 30-Nov-2015

 ----------------------------------------------------------------------
 #rhf/gen scf(symm,tight,novaracc,noincfock,fulldiag) stable(crhf) geom
 =nocrowd test
 ----------------------------------------------------------------------

 hf stability analysis of h10 triangular lattice, y= 0.4427008172522774
 5
 ----------------------------------------------------------------------
 Symbolic Z-matrix:
 Charge =  0 Multiplicity = 1

                         Standard orientation:
 ---------------------------------------------------------------------
 Center     Atomic      Atomic             Coordinates (Angstroms)
 Number     Number       Type             X           Y           Z
 ---------------------------------------------------------------------
      1          1           0        0.000000    0.442701    2.608309
      2          1           0       -0.000000   -0.000000    3.912464
      3          1           0       -0.000000   -0.000000    1.304155
      4          1           0       -0.000000   -0.442701    2.608309
      5          1           0        0.000000    0.442701    0.000000
      6          1           0       -0.000000   -0.442701   -0.000000
      7          1           0        0.000000    0.000000   -1.304155
      8          1           0        0.000000    0.442701   -2.608309
      9          1           0       -0.000000   -0.442701   -2.608309
     10          1           0        0.000000    0.000000   -3.912464
 ---------------------------------------------------------------------

 SCF Done:  E(RHF) =  -4.89995095201     A.U. after    9 cycles
 E2 =    -0.1120366001D+00 EUMP2 =    -0.50119875521203D+01

 The electronic state is 1-AG.
 Alpha  occ. eigenvalues --   -0.75051  -0.70971  -0.64688  -0.33562  -0.21880
 Alpha virt. eigenvalues --    0.09770   0.19760   0.23636   0.24501   0.28544

 Mulliken charges:
               1
     1  H    0.171920
     2  H   -0.290725
     3  H   -0.139360
     4  H    0.171920
     5  H    0.086244
     6  H    0.086244
     7  H   -0.139360
     8  H    0.171920
     9  H    0.171920
    10  H   -0.290725
 Sum of Mulliken charges =   0.00000

 Dipole moment (field-independent basis, Debye):
    X=             -0.0000    Y=              0.0000    Z=             -0.0000  Tot=              0.0000
 Quadrupole moment (field-independent basis, Debye-Ang):
   XX=            -13.3431   YY=            -10.9713   ZZ=            -39.8807
   XY=              0.0000   XZ=              0.0000   YZ=              0.0000

 Normal termination of Gaussian 09 at Thu Feb  9 15:57:29 2017.
