 Gaussian 09, Revision E.01,
 Gaussian 09:  ES64L-G09RevE.01 30-Nov-2015

 ----------------------------------------------------------------------
 #rhf/gen scf(symm,tight,novaracc,noincfock,fulldiag) stable(crhf) geom
 =nocrowd test
 ----------------------------------------------------------------------

 hf stability analysis of h10 triangular lattice, y= 0.5123528606899246
 9
 ----------------------------------------------------------------------
 Symbolic Z-matrix:
 Charge =  0 Multiplicity = 1

                         Standard orientation:
 ---------------------------------------------------------------------
 Center     Atomic      Atomic             Coordinates (Angstroms)
 Number     Number       Type             X           Y           Z
 ---------------------------------------------------------------------
      1          1           0        0.000000    0.512353    2.253721
      2          1           0        0.000000   -0.000000    3.380582
      3          1           0        0.000000   -0.000000    1.126861
      4          1           0       -0.000000   -0.512353    2.253721
      5          1           0       -0.000000    0.512353    0.000000
      6          1           0       -0.000000   -0.512353   -0.000000
      7          1           0        0.000000    0.000000   -1.126861
      8          1           0        0.000000    0.512353   -2.253721
      9          1           0       -0.000000   -0.512353   -2.253721
     10          1           0        0.000000    0.000000   -3.380582
 ---------------------------------------------------------------------

 SCF Done:  E(RHF) =  -4.79870166586     A.U. after    9 cycles
 E2 =    -0.9056846333D-01 EUMP2 =    -0.48892701291863D+01

 The electronic state is 1-AG.
 Alpha  occ. eigenvalues --   -0.78837  -0.72216  -0.62180  -0.34349  -0.17691
 Alpha virt. eigenvalues --    0.08941   0.15677   0.22663   0.22903   0.44106

 Mulliken charges:
               1
     1  H    0.244964
     2  H   -0.409636
     3  H   -0.215695
     4  H    0.244964
     5  H    0.135403
     6  H    0.135403
     7  H   -0.215695
     8  H    0.244964
     9  H    0.244964
    10  H   -0.409636
 Sum of Mulliken charges =  -0.00000

 Dipole moment (field-independent basis, Debye):
    X=             -0.0000    Y=              0.0000    Z=              0.0000  Tot=              0.0000
 Quadrupole moment (field-independent basis, Debye-Ang):
   XX=            -13.0039   YY=             -9.6435   ZZ=            -42.3165
   XY=              0.0000   XZ=              0.0000   YZ=             -0.0000

 Normal termination of Gaussian 09 at Thu Feb  9 15:52:35 2017.
