 Gaussian 09, Revision E.01,
 Gaussian 09:  ES64L-G09RevE.01 30-Nov-2015

 ----------------------------------------------------------------------
 #rhf/gen scf(symm,tight,novaracc,noincfock,fulldiag) stable(crhf) geom
 =nocrowd test
 ----------------------------------------------------------------------

 hf stability analysis of h10 triangular lattice, y= 0.4273077573934040
 4
 ----------------------------------------------------------------------
 Symbolic Z-matrix:
 Charge =  0 Multiplicity = 1

                         Standard orientation:
 ---------------------------------------------------------------------
 Center     Atomic      Atomic             Coordinates (Angstroms)
 Number     Number       Type             X           Y           Z
 ---------------------------------------------------------------------
      1          1           0        0.000000    0.427308    2.702269
      2          1           0        0.000000    0.000000    4.053404
      3          1           0        0.000000    0.000000    1.351135
      4          1           0       -0.000000   -0.427308    2.702269
      5          1           0        0.000000    0.427308    0.000000
      6          1           0       -0.000000   -0.427308    0.000000
      7          1           0        0.000000   -0.000000   -1.351135
      8          1           0        0.000000    0.427308   -2.702269
      9          1           0       -0.000000   -0.427308   -2.702269
     10          1           0        0.000000   -0.000000   -4.053404
 ---------------------------------------------------------------------

 SCF Done:  E(RHF) =  -4.90498304026     A.U. after    8 cycles
 E2 =    -0.1208446274D+00 EUMP2 =    -0.50258276677069D+01

 The electronic state is 1-AG.
 Alpha  occ. eigenvalues --   -0.74208  -0.70681  -0.65153  -0.33104  -0.22512
 Alpha virt. eigenvalues --    0.07123   0.20314   0.22433   0.25740   0.30241

 Mulliken charges:
               1
     1  H    0.154560
     2  H   -0.262296
     3  H   -0.122252
     4  H    0.154560
     5  H    0.075427
     6  H    0.075427
     7  H   -0.122252
     8  H    0.154560
     9  H    0.154560
    10  H   -0.262296
 Sum of Mulliken charges =  -0.00000

 Dipole moment (field-independent basis, Debye):
    X=             -0.0000    Y=              0.0000    Z=              0.0000  Tot=              0.0000
 Quadrupole moment (field-independent basis, Debye-Ang):
   XX=            -13.4054   YY=            -11.2276   ZZ=            -38.8806
   XY=              0.0000   XZ=              0.0000   YZ=             -0.0000

 Normal termination of Gaussian 09 at Thu Feb  9 15:58:29 2017.
