 Gaussian 09, Revision E.01,
 Gaussian 09:  ES64L-G09RevE.01 30-Nov-2015

 ----------------------------------------------------------------------
 #rhf/gen scf(symm,tight,novaracc,noincfock,fulldiag) stable(crhf) geom
 =nocrowd test
 ----------------------------------------------------------------------

 hf stability analysis of h10 triangular lattice, y= 0.2514560395575198
 3
 ----------------------------------------------------------------------
 Symbolic Z-matrix:
 Charge =  0 Multiplicity = 1

                         Standard orientation:
 ---------------------------------------------------------------------
 Center     Atomic      Atomic             Coordinates (Angstroms)
 Number     Number       Type             X           Y           Z
 ---------------------------------------------------------------------
      1          1           0       -0.000000    0.251456    4.592057
      2          1           0       -0.000000   -0.000000    6.888086
      3          1           0       -0.000000   -0.000000    2.296029
      4          1           0       -0.000000   -0.251456    4.592057
      5          1           0       -0.000000    0.251456    0.000000
      6          1           0       -0.000000   -0.251456   -0.000000
      7          1           0        0.000000    0.000000   -2.296029
      8          1           0        0.000000    0.251456   -4.592057
      9          1           0       -0.000000   -0.251456   -4.592057
     10          1           0        0.000000    0.000000   -6.888086
 ---------------------------------------------------------------------

 SCF Done:  E(RHF) =  -4.37539056744     A.U. after   10 cycles
 E2 =    -0.5234420430D+00 EUMP2 =    -0.48988326104312D+01

 The electronic state is 1-AG.
 Alpha  occ. eigenvalues --   -0.71724  -0.71632  -0.71398  -0.25165  -0.24069
 Alpha virt. eigenvalues --   -0.12207  -0.11051   0.59791   0.59920   0.60343

 Mulliken charges:
               1
     1  H    0.001335
     2  H   -0.009482
     3  H    0.008349
     4  H    0.001335
     5  H   -0.001536
     6  H   -0.001536
     7  H    0.008349
     8  H    0.001335
     9  H    0.001335
    10  H   -0.009482
 Sum of Mulliken charges =  -0.00000

 Dipole moment (field-independent basis, Debye):
    X=             -0.0000    Y=             -0.0000    Z=             -0.0000  Tot=              0.0000
 Quadrupole moment (field-independent basis, Debye-Ang):
   XX=            -13.5826   YY=            -12.9043   ZZ=            -17.8343
   XY=              0.0000   XZ=              0.0000   YZ=             -0.0000

 Normal termination of Gaussian 09 at Thu Feb  9 16:06:34 2017.
