 Gaussian 09, Revision E.01,
 Gaussian 09:  ES64L-G09RevE.01 30-Nov-2015

 ----------------------------------------------------------------------
 #rhf/gen scf(symm,tight,novaracc,noincfock,fulldiag) stable(crhf) geom
 =nocrowd test
 ----------------------------------------------------------------------

 hf stability analysis of h10 triangular lattice, y= 0.4738346202814235
 9
 ----------------------------------------------------------------------
 Symbolic Z-matrix:
 Charge =  0 Multiplicity = 1

                         Standard orientation:
 ---------------------------------------------------------------------
 Center     Atomic      Atomic             Coordinates (Angstroms)
 Number     Number       Type             X           Y           Z
 ---------------------------------------------------------------------
      1          1           0       -0.000000    0.473835    2.436927
      2          1           0       -0.000000    0.000000    3.655391
      3          1           0       -0.000000    0.000000    1.218464
      4          1           0       -0.000000   -0.473835    2.436927
      5          1           0        0.000000    0.473835    0.000000
      6          1           0       -0.000000   -0.473835   -0.000000
      7          1           0        0.000000    0.000000   -1.218464
      8          1           0        0.000000    0.473835   -2.436927
      9          1           0       -0.000000   -0.473835   -2.436927
     10          1           0        0.000000    0.000000   -3.655391
 ---------------------------------------------------------------------

 SCF Done:  E(RHF) =  -4.86995705832     A.U. after    9 cycles
 E2 =    -0.9934063298D-01 EUMP2 =    -0.49692976913008D+01

 The electronic state is 1-AG.
 Alpha  occ. eigenvalues --   -0.76779  -0.71561  -0.63653  -0.34184  -0.20282
 Alpha virt. eigenvalues --    0.14671   0.15445   0.19784   0.25571   0.33269

 Mulliken charges:
               1
     1  H    0.205811
     2  H   -0.346095
     3  H   -0.173797
     4  H    0.205811
     5  H    0.108270
     6  H    0.108270
     7  H   -0.173797
     8  H    0.205811
     9  H    0.205811
    10  H   -0.346095
 Sum of Mulliken charges =  -0.00000

 Dipole moment (field-independent basis, Debye):
    X=             -0.0000    Y=              0.0000    Z=             -0.0000  Tot=              0.0000
 Quadrupole moment (field-independent basis, Debye-Ang):
   XX=            -13.2008   YY=            -10.4086   ZZ=            -41.3461
   XY=              0.0000   XZ=              0.0000   YZ=              0.0000

 Normal termination of Gaussian 09 at Thu Feb  9 15:55:20 2017.
