 Gaussian 09, Revision E.01,
 Gaussian 09:  ES64L-G09RevE.01 30-Nov-2015

 ----------------------------------------------------------------------
 #rhf/gen scf(symm,tight,novaracc,noincfock,fulldiag) stable(crhf) geom
 =nocrowd test
 ----------------------------------------------------------------------

 hf stability analysis of h10 triangular lattice, y= 0.6607923996974783
 8
 ----------------------------------------------------------------------
 Symbolic Z-matrix:
 Charge =  0 Multiplicity = 1

                         Standard orientation:
 ---------------------------------------------------------------------
 Center     Atomic      Atomic             Coordinates (Angstroms)
 Number     Number       Type             X           Y           Z
 ---------------------------------------------------------------------
      1          1           0        0.000000    0.660792    1.747448
      2          1           0        0.000000    0.000000    2.621172
      3          1           0        0.000000    0.000000    0.873724
      4          1           0       -0.000000   -0.660792    1.747448
      5          1           0       -0.000000    0.660792   -0.000000
      6          1           0       -0.000000   -0.660792    0.000000
      7          1           0        0.000000   -0.000000   -0.873724
      8          1           0        0.000000    0.660792   -1.747448
      9          1           0       -0.000000   -0.660792   -1.747448
     10          1           0        0.000000   -0.000000   -2.621172
 ---------------------------------------------------------------------

 SCF Done:  E(RHF) =  -4.81998320519     A.U. after    9 cycles
 E2 =    -0.1173485163D+00 EUMP2 =    -0.49373317215412D+01

 The electronic state is 1-AG.
 Alpha  occ. eigenvalues --   -0.82902  -0.73274  -0.54926  -0.31061  -0.28786
 Alpha virt. eigenvalues --   -0.00704   0.20039   0.20061   0.50743   0.69684

 Mulliken charges:
               1
     1  H    0.214497
     2  H   -0.201191
     3  H   -0.261133
     4  H    0.214497
     5  H    0.033330
     6  H    0.033330
     7  H   -0.261133
     8  H    0.214497
     9  H    0.214497
    10  H   -0.201191
 Sum of Mulliken charges =   0.00000

 Dipole moment (field-independent basis, Debye):
    X=             -0.0000    Y=              0.0000    Z=              0.0000  Tot=              0.0000
 Quadrupole moment (field-independent basis, Debye-Ang):
   XX=            -12.9772   YY=            -12.4253   ZZ=            -18.2514
   XY=              0.0000   XZ=              0.0000   YZ=              0.0000

 Normal termination of Gaussian 09 at Thu Feb  9 15:41:36 2017.
