 Gaussian 09, Revision E.01,
 Gaussian 09:  ES64L-G09RevE.01 30-Nov-2015

 ----------------------------------------------------------------------
 #rhf/gen scf(symm,tight,novaracc,noincfock,fulldiag) stable(crhf) geom
 =nocrowd test
 ----------------------------------------------------------------------

 hf stability analysis of h10 triangular lattice, y= 0.4540408386868131
 6
 ----------------------------------------------------------------------
 Symbolic Z-matrix:
 Charge =  0 Multiplicity = 1

                         Standard orientation:
 ---------------------------------------------------------------------
 Center     Atomic      Atomic             Coordinates (Angstroms)
 Number     Number       Type             X           Y           Z
 ---------------------------------------------------------------------
      1          1           0       -0.000000    0.454041    2.543164
      2          1           0       -0.000000    0.000000    3.814747
      3          1           0       -0.000000    0.000000    1.271582
      4          1           0       -0.000000   -0.454041    2.543164
      5          1           0        0.000000    0.454041    0.000000
      6          1           0       -0.000000   -0.454041    0.000000
      7          1           0        0.000000    0.000000   -1.271582
      8          1           0        0.000000    0.454041   -2.543164
      9          1           0       -0.000000   -0.454041   -2.543164
     10          1           0        0.000000    0.000000   -3.814747
 ---------------------------------------------------------------------

 SCF Done:  E(RHF) =  -4.89203542828     A.U. after    9 cycles
 E2 =    -0.1067030061D+00 EUMP2 =    -0.49987384343723D+01

 The electronic state is 1-AG.
 Alpha  occ. eigenvalues --   -0.75681  -0.71188  -0.64326  -0.33838  -0.21348
 Alpha virt. eigenvalues --    0.11791   0.17858   0.22173   0.27392   0.27661

 Mulliken charges:
               1
     1  H    0.184473
     2  H   -0.311260
     3  H   -0.151941
     4  H    0.184473
     5  H    0.094256
     6  H    0.094256
     7  H   -0.151941
     8  H    0.184473
     9  H    0.184473
    10  H   -0.311260
 Sum of Mulliken charges =   0.00000

 Dipole moment (field-independent basis, Debye):
    X=             -0.0000    Y=             -0.0000    Z=              0.0000  Tot=              0.0000
 Quadrupole moment (field-independent basis, Debye-Ang):
   XX=            -13.2935   YY=            -10.7728   ZZ=            -40.4960
   XY=              0.0000   XZ=              0.0000   YZ=              0.0000

 Normal termination of Gaussian 09 at Thu Feb  9 15:56:42 2017.
