 Gaussian 09, Revision E.01,
 Gaussian 09:  ES64L-G09RevE.01 30-Nov-2015

 ----------------------------------------------------------------------
 #rhf/gen scf(symm,tight,novaracc,noincfock,fulldiag) stable(crhf) geom
 =nocrowd test
 ----------------------------------------------------------------------

 hf stability analysis of h10 triangular lattice, y= 0.3607097257522778
 9
 ----------------------------------------------------------------------
 Symbolic Z-matrix:
 Charge =  0 Multiplicity = 1

                         Standard orientation:
 ---------------------------------------------------------------------
 Center     Atomic      Atomic             Coordinates (Angstroms)
 Number     Number       Type             X           Y           Z
 ---------------------------------------------------------------------
      1          1           0       -0.000000    0.360710    3.201190
      2          1           0       -0.000000    0.000000    4.801786
      3          1           0       -0.000000    0.000000    1.600595
      4          1           0       -0.000000   -0.360710    3.201190
      5          1           0       -0.000000    0.360710   -0.000000
      6          1           0       -0.000000   -0.360710    0.000000
      7          1           0        0.000000   -0.000000   -1.600595
      8          1           0        0.000000    0.360710   -3.201190
      9          1           0       -0.000000   -0.360710   -3.201190
     10          1           0        0.000000   -0.000000   -4.801786
 ---------------------------------------------------------------------

 SCF Done:  E(RHF) =  -4.84617021371     A.U. after    9 cycles
 E2 =    -0.1909204314D+00 EUMP2 =    -0.50370906450896D+01

 The electronic state is 1-AG.
 Alpha  occ. eigenvalues --   -0.71134  -0.69701  -0.66958  -0.30250  -0.24162
 Alpha virt. eigenvalues --   -0.02775   0.04332   0.35236   0.36599   0.39462

 Mulliken charges:
               1
     1  H    0.078439
     2  H   -0.138037
     3  H   -0.050398
     4  H    0.078439
     5  H    0.031558
     6  H    0.031558
     7  H   -0.050398
     8  H    0.078439
     9  H    0.078439
    10  H   -0.138037
 Sum of Mulliken charges =  -0.00000

 Dipole moment (field-independent basis, Debye):
    X=             -0.0000    Y=             -0.0000    Z=              0.0000  Tot=              0.0000
 Quadrupole moment (field-independent basis, Debye-Ang):
   XX=            -13.5855   YY=            -12.1327   ZZ=            -32.1539
   XY=              0.0000   XZ=              0.0000   YZ=             -0.0000

 Normal termination of Gaussian 09 at Thu Feb  9 16:02:14 2017.
