 Gaussian 09, Revision E.01,
 Gaussian 09:  ES64L-G09RevE.01 30-Nov-2015

 ----------------------------------------------------------------------
 #rhf/gen scf(symm,tight,novaracc,noincfock,fulldiag) stable(crhf) geom
 =nocrowd test
 ----------------------------------------------------------------------

 hf stability analysis of h10 triangular lattice, y= 0.5111657639941985
 5
 ----------------------------------------------------------------------
 Symbolic Z-matrix:
 Charge =  0 Multiplicity = 1

                         Standard orientation:
 ---------------------------------------------------------------------
 Center     Atomic      Atomic             Coordinates (Angstroms)
 Number     Number       Type             X           Y           Z
 ---------------------------------------------------------------------
      1          1           0        0.000000    0.511166    2.258955
      2          1           0        0.000000    0.000000    3.388433
      3          1           0        0.000000    0.000000    1.129478
      4          1           0       -0.000000   -0.511166    2.258955
      5          1           0       -0.000000    0.511166   -0.000000
      6          1           0       -0.000000   -0.511166    0.000000
      7          1           0        0.000000   -0.000000   -1.129478
      8          1           0        0.000000    0.511166   -2.258955
      9          1           0       -0.000000   -0.511166   -2.258955
     10          1           0        0.000000   -0.000000   -3.388433
 ---------------------------------------------------------------------

 SCF Done:  E(RHF) =  -4.80142372265     A.U. after    9 cycles
 E2 =    -0.9074736611D-01 EUMP2 =    -0.48921710887625D+01

 The electronic state is 1-AG.
 Alpha  occ. eigenvalues --   -0.78776  -0.72198  -0.62229  -0.34354  -0.17781
 Alpha virt. eigenvalues --    0.09109   0.15794   0.22669   0.22741   0.43781

 Mulliken charges:
               1
     1  H    0.243807
     2  H   -0.407767
     3  H   -0.214421
     4  H    0.243807
     5  H    0.134574
     6  H    0.134574
     7  H   -0.214421
     8  H    0.243807
     9  H    0.243807
    10  H   -0.407767
 Sum of Mulliken charges =  -0.00000

 Dipole moment (field-independent basis, Debye):
    X=             -0.0000    Y=              0.0000    Z=              0.0000  Tot=              0.0000
 Quadrupole moment (field-independent basis, Debye-Ang):
   XX=            -13.0102   YY=             -9.6681   ZZ=            -42.2980
   XY=              0.0000   XZ=              0.0000   YZ=             -0.0000

 Normal termination of Gaussian 09 at Thu Feb  9 15:52:41 2017.
