 Gaussian 09, Revision E.01,
 Gaussian 09:  ES64L-G09RevE.01 30-Nov-2015

 ----------------------------------------------------------------------
 #rhf/gen scf(symm,tight,novaracc,noincfock,fulldiag) stable(crhf) geom
 =nocrowd test
 ----------------------------------------------------------------------

 hf stability analysis of h10 triangular lattice, y= 0.6572010346671897
 1
 ----------------------------------------------------------------------
 Symbolic Z-matrix:
 Charge =  0 Multiplicity = 1

                         Standard orientation:
 ---------------------------------------------------------------------
 Center     Atomic      Atomic             Coordinates (Angstroms)
 Number     Number       Type             X           Y           Z
 ---------------------------------------------------------------------
      1          1           0       -0.000000    0.657201    1.756997
      2          1           0       -0.000000    0.000000    2.635496
      3          1           0       -0.000000    0.000000    0.878499
      4          1           0       -0.000000   -0.657201    1.756997
      5          1           0       -0.000000    0.657201   -0.000000
      6          1           0       -0.000000   -0.657201    0.000000
      7          1           0        0.000000   -0.000000   -0.878499
      8          1           0        0.000000    0.657201   -1.756997
      9          1           0       -0.000000   -0.657201   -1.756997
     10          1           0        0.000000   -0.000000   -2.635496
 ---------------------------------------------------------------------

 SCF Done:  E(RHF) =  -4.81952441390     A.U. after    9 cycles
 E2 =    -0.1183898457D+00 EUMP2 =    -0.49379142595470D+01

 The electronic state is 1-AG.
 Alpha  occ. eigenvalues --   -0.82758  -0.73267  -0.55046  -0.30660  -0.28963
 Alpha virt. eigenvalues --   -0.00511   0.19520   0.20053   0.50283   0.69841

 Mulliken charges:
               1
     1  H    0.211251
     2  H   -0.195956
     3  H   -0.258907
     4  H    0.211251
     5  H    0.032361
     6  H    0.032361
     7  H   -0.258907
     8  H    0.211251
     9  H    0.211251
    10  H   -0.195956
 Sum of Mulliken charges =  -0.00000

 Dipole moment (field-independent basis, Debye):
    X=             -0.0000    Y=              0.0000    Z=              0.0000  Tot=              0.0000
 Quadrupole moment (field-independent basis, Debye-Ang):
   XX=            -12.9854   YY=            -12.5002   ZZ=            -18.0643
   XY=              0.0000   XZ=              0.0000   YZ=              0.0000

 Normal termination of Gaussian 09 at Thu Feb  9 15:41:51 2017.
