 Gaussian 09, Revision E.01,
 Gaussian 09:  ES64L-G09RevE.01 30-Nov-2015

 ----------------------------------------------------------------------
 #rhf/gen scf(symm,tight,novaracc,noincfock,fulldiag) stable(crhf) geom
 =nocrowd test
 ----------------------------------------------------------------------

 hf stability analysis of h10 triangular lattice, y= 0.5820046413034921
 7
 ----------------------------------------------------------------------
 Symbolic Z-matrix:
 Charge =  0 Multiplicity = 1

                         Standard orientation:
 ---------------------------------------------------------------------
 Center     Atomic      Atomic             Coordinates (Angstroms)
 Number     Number       Type             X           Y           Z
 ---------------------------------------------------------------------
      1          1           0        0.000000    0.582005    1.984006
      2          1           0       -0.000000   -0.000000    2.976009
      3          1           0       -0.000000   -0.000000    0.992003
      4          1           0       -0.000000   -0.582005    1.984006
      5          1           0        0.000000    0.582005    0.000000
      6          1           0       -0.000000   -0.582005   -0.000000
      7          1           0        0.000000    0.000000   -0.992003
      8          1           0        0.000000    0.582005   -1.984006
      9          1           0       -0.000000   -0.582005   -1.984006
     10          1           0        0.000000    0.000000   -2.976009
 ---------------------------------------------------------------------

 SCF Done:  E(RHF) =  -4.76781081518     A.U. after    9 cycles
 E2 =    -0.1484128365D+00 EUMP2 =    -0.49162236516677D+01

 The electronic state is 1-AG.
 Alpha  occ. eigenvalues --   -0.79136  -0.72428  -0.56895  -0.31374  -0.21297
 Alpha virt. eigenvalues --    0.04418   0.08670   0.21367   0.38192   0.65776

 Mulliken charges:
               1
     1  H    0.133923
     2  H   -0.077844
     3  H   -0.188726
     4  H    0.133923
     5  H   -0.001275
     6  H   -0.001275
     7  H   -0.188726
     8  H    0.133923
     9  H    0.133923
    10  H   -0.077844
 Sum of Mulliken charges =  -0.00000

 Dipole moment (field-independent basis, Debye):
    X=             -0.0000    Y=             -0.0000    Z=             -0.0000  Tot=              0.0000
 Quadrupole moment (field-independent basis, Debye-Ang):
   XX=            -13.1559   YY=            -13.9598   ZZ=            -12.9391
   XY=             -0.0000   XZ=              0.0000   YZ=              0.0000

 Normal termination of Gaussian 09 at Thu Feb  9 15:47:26 2017.
