 Gaussian 09, Revision E.01,
 Gaussian 09:  ES64L-G09RevE.01 30-Nov-2015

 ----------------------------------------------------------------------
 #rhf/gen scf(symm,tight,novaracc,noincfock,fulldiag) stable(crhf) geom
 =nocrowd test
 ----------------------------------------------------------------------

 hf stability analysis of h10 triangular lattice, y= 0.5563924050096883
 4
 ----------------------------------------------------------------------
 Symbolic Z-matrix:
 Charge =  0 Multiplicity = 1

                         Standard orientation:
 ---------------------------------------------------------------------
 Center     Atomic      Atomic             Coordinates (Angstroms)
 Number     Number       Type             X           Y           Z
 ---------------------------------------------------------------------
      1          1           0       -0.000000    0.556392    2.075335
      2          1           0       -0.000000    0.000000    3.113002
      3          1           0       -0.000000    0.000000    1.037667
      4          1           0       -0.000000   -0.556392    2.075335
      5          1           0        0.000000    0.556392    0.000000
      6          1           0       -0.000000   -0.556392   -0.000000
      7          1           0        0.000000    0.000000   -1.037667
      8          1           0        0.000000    0.556392   -2.075335
      9          1           0       -0.000000   -0.556392   -2.075335
     10          1           0        0.000000    0.000000   -3.113002
 ---------------------------------------------------------------------

 SCF Done:  E(RHF) =  -4.72926530631     A.U. after    9 cycles
 E2 =    -0.1633266920D+00 EUMP2 =    -0.48925919983066D+01

 The electronic state is 1-AG.
 Alpha  occ. eigenvalues --   -0.77661  -0.71839  -0.57217  -0.31617  -0.17623
 Alpha virt. eigenvalues --    0.05274   0.06539   0.22312   0.33381   0.61318

 Mulliken charges:
               1
     1  H    0.104050
     2  H   -0.034793
     3  H   -0.155272
     4  H    0.104050
     5  H   -0.018035
     6  H   -0.018035
     7  H   -0.155272
     8  H    0.104050
     9  H    0.104050
    10  H   -0.034793
 Sum of Mulliken charges =   0.00000

 Dipole moment (field-independent basis, Debye):
    X=             -0.0000    Y=              0.0000    Z=              0.0000  Tot=              0.0000
 Quadrupole moment (field-independent basis, Debye-Ang):
   XX=            -13.2103   YY=            -14.3944   ZZ=            -10.5513
   XY=             -0.0000   XZ=              0.0000   YZ=              0.0000

 Normal termination of Gaussian 09 at Thu Feb  9 15:49:22 2017.
