 Gaussian 09, Revision E.01,
 Gaussian 09:  ES64L-G09RevE.01 30-Nov-2015

 ----------------------------------------------------------------------
 #rhf/gen scf(symm,tight,novaracc,noincfock,fulldiag) stable(crhf) geom
 =nocrowd test
 ----------------------------------------------------------------------

 hf stability analysis of h10 triangular lattice, y= 0.7153287968517742
 0
 ----------------------------------------------------------------------
 Symbolic Z-matrix:
 Charge =  0 Multiplicity = 1

                         Standard orientation:
 ---------------------------------------------------------------------
 Center     Atomic      Atomic             Coordinates (Angstroms)
 Number     Number       Type             X           Y           Z
 ---------------------------------------------------------------------
      1          1           0       -0.000000    0.715329    1.614223
      2          1           0       -0.000000   -0.000000    2.421335
      3          1           0       -0.000000   -0.000000    0.807112
      4          1           0       -0.000000   -0.715329    1.614223
      5          1           0       -0.000000    0.715329    0.000000
      6          1           0       -0.000000   -0.715329   -0.000000
      7          1           0        0.000000    0.000000   -0.807112
      8          1           0        0.000000    0.715329   -1.614223
      9          1           0       -0.000000   -0.715329   -1.614223
     10          1           0        0.000000    0.000000   -2.421335
 ---------------------------------------------------------------------

 SCF Done:  E(RHF) =  -4.80727876889     A.U. after    9 cycles
 E2 =    -0.1047951286D+00 EUMP2 =    -0.49120738975306D+01

 The electronic state is 1-AG.
 Alpha  occ. eigenvalues --   -0.84777  -0.73028  -0.52784  -0.36728  -0.25483
 Alpha virt. eigenvalues --   -0.03268   0.20266   0.28332   0.55960   0.64205

 Mulliken charges:
               1
     1  H    0.258224
     2  H   -0.275349
     3  H   -0.281794
     4  H    0.258224
     5  H    0.040695
     6  H    0.040695
     7  H   -0.281794
     8  H    0.258224
     9  H    0.258224
    10  H   -0.275349
 Sum of Mulliken charges =   0.00000

 Dipole moment (field-independent basis, Debye):
    X=             -0.0000    Y=             -0.0000    Z=              0.0000  Tot=              0.0000
 Quadrupole moment (field-independent basis, Debye-Ang):
   XX=            -12.8538   YY=            -11.2573   ZZ=            -20.6052
   XY=              0.0000   XZ=              0.0000   YZ=             -0.0000

 Normal termination of Gaussian 09 at Thu Feb  9 15:37:46 2017.
