 Gaussian 09, Revision E.01,
 Gaussian 09:  ES64L-G09RevE.01 30-Nov-2015

 ----------------------------------------------------------------------
 #rhf/gen scf(symm,tight,novaracc,noincfock,fulldiag) stable(crhf) geom
 =nocrowd test
 ----------------------------------------------------------------------

 hf stability analysis of h10 triangular lattice, y= 0.5347629916210511
 2
 ----------------------------------------------------------------------
 Symbolic Z-matrix:
 Charge =  0 Multiplicity = 1

                         Standard orientation:
 ---------------------------------------------------------------------
 Center     Atomic      Atomic             Coordinates (Angstroms)
 Number     Number       Type             X           Y           Z
 ---------------------------------------------------------------------
      1          1           0        0.000000    0.534763    2.159275
      2          1           0        0.000000    0.000000    3.238913
      3          1           0        0.000000    0.000000    1.079638
      4          1           0       -0.000000   -0.534763    2.159275
      5          1           0        0.000000    0.534763    0.000000
      6          1           0       -0.000000   -0.534763   -0.000000
      7          1           0        0.000000    0.000000   -1.079638
      8          1           0        0.000000    0.534763   -2.159275
      9          1           0       -0.000000   -0.534763   -2.159275
     10          1           0        0.000000    0.000000   -3.238913
 ---------------------------------------------------------------------

 SCF Done:  E(RHF) =  -4.74147817232     A.U. after    8 cycles
 E2 =    -0.8813663750D-01 EUMP2 =    -0.48296148098184D+01

 The electronic state is 1-AG.
 Alpha  occ. eigenvalues --   -0.79943  -0.72518  -0.61221  -0.34131  -0.15869
 Alpha virt. eigenvalues --    0.05885   0.13575   0.21319   0.27357   0.50009

 Mulliken charges:
               1
     1  H    0.266179
     2  H   -0.443828
     3  H   -0.239439
     4  H    0.266179
     5  H    0.150909
     6  H    0.150909
     7  H   -0.239439
     8  H    0.266179
     9  H    0.266179
    10  H   -0.443828
 Sum of Mulliken charges =  -0.00000

 Dipole moment (field-independent basis, Debye):
    X=             -0.0000    Y=             -0.0000    Z=             -0.0000  Tot=              0.0000
 Quadrupole moment (field-independent basis, Debye-Ang):
   XX=            -12.8831   YY=             -9.1700   ZZ=            -42.5518
   XY=              0.0000   XZ=              0.0000   YZ=             -0.0000

 Normal termination of Gaussian 09 at Thu Feb  9 15:50:57 2017.
