 Gaussian 09, Revision E.01,
 Gaussian 09:  ES64L-G09RevE.01 30-Nov-2015

 ----------------------------------------------------------------------
 #rhf/gen scf(symm,tight,novaracc,noincfock,fulldiag) stable(crhf) geom
 =nocrowd test
 ----------------------------------------------------------------------

 hf stability analysis of h10 triangular lattice, y= 0.6782833829040531
 0
 ----------------------------------------------------------------------
 Symbolic Z-matrix:
 Charge =  0 Multiplicity = 1

                         Standard orientation:
 ---------------------------------------------------------------------
 Center     Atomic      Atomic             Coordinates (Angstroms)
 Number     Number       Type             X           Y           Z
 ---------------------------------------------------------------------
      1          1           0        0.000000    0.678283    1.702387
      2          1           0        0.000000    0.000000    2.553580
      3          1           0        0.000000    0.000000    0.851193
      4          1           0       -0.000000   -0.678283    1.702387
      5          1           0       -0.000000    0.678283    0.000000
      6          1           0       -0.000000   -0.678283    0.000000
      7          1           0        0.000000    0.000000   -0.851193
      8          1           0        0.000000    0.678283   -1.702387
      9          1           0       -0.000000   -0.678283   -1.702387
     10          1           0        0.000000    0.000000   -2.553580
 ---------------------------------------------------------------------

 SCF Done:  E(RHF) =  -4.81985778421     A.U. after    8 cycles
 E2 =    -0.1126842452D+00 EUMP2 =    -0.49325420294489D+01

 The electronic state is 1-AG.
 Alpha  occ. eigenvalues --   -0.83567  -0.73266  -0.54302  -0.32961  -0.27852
 Alpha virt. eigenvalues --   -0.01601   0.20022   0.22710   0.52785   0.68513

 Mulliken charges:
               1
     1  H    0.229667
     2  H   -0.226075
     3  H   -0.270441
     4  H    0.229667
     5  H    0.037183
     6  H    0.037183
     7  H   -0.270441
     8  H    0.229667
     9  H    0.229667
    10  H   -0.226075
 Sum of Mulliken charges =  -0.00000

 Dipole moment (field-independent basis, Debye):
    X=             -0.0000    Y=              0.0000    Z=              0.0000  Tot=              0.0000
 Quadrupole moment (field-independent basis, Debye-Ang):
   XX=            -12.9372   YY=            -12.0562   ZZ=            -19.1010
   XY=              0.0000   XZ=              0.0000   YZ=              0.0000

 Normal termination of Gaussian 09 at Thu Feb  9 15:40:19 2017.
