 Gaussian 09, Revision E.01,
 Gaussian 09:  ES64L-G09RevE.01 30-Nov-2015

 ----------------------------------------------------------------------
 #rhf/gen scf(symm,tight,novaracc,noincfock,fulldiag) stable(crhf) geom
 =nocrowd test
 ----------------------------------------------------------------------

 hf stability analysis of h10 triangular lattice, y= 0.6673999967191717
 2
 ----------------------------------------------------------------------
 Symbolic Z-matrix:
 Charge =  0 Multiplicity = 1

                         Standard orientation:
 ---------------------------------------------------------------------
 Center     Atomic      Atomic             Coordinates (Angstroms)
 Number     Number       Type             X           Y           Z
 ---------------------------------------------------------------------
      1          1           0       -0.000000    0.667400    1.730148
      2          1           0       -0.000000    0.000000    2.595222
      3          1           0       -0.000000    0.000000    0.865074
      4          1           0       -0.000000   -0.667400    1.730148
      5          1           0       -0.000000    0.667400    0.000000
      6          1           0       -0.000000   -0.667400    0.000000
      7          1           0        0.000000    0.000000   -0.865074
      8          1           0        0.000000    0.667400   -1.730148
      9          1           0       -0.000000   -0.667400   -1.730148
     10          1           0        0.000000    0.000000   -2.595222
 ---------------------------------------------------------------------

 SCF Done:  E(RHF) =  -4.82039170511     A.U. after    8 cycles
 E2 =    -0.1155087556D+00 EUMP2 =    -0.49359004607331D+01

 The electronic state is 1-AG.
 Alpha  occ. eigenvalues --   -0.83161  -0.73279  -0.54698  -0.31788  -0.28448
 Alpha virt. eigenvalues --   -0.01052   0.20022   0.21059   0.51553   0.69318

 Mulliken charges:
               1
     1  H    0.220353
     2  H   -0.210711
     3  H   -0.264948
     4  H    0.220353
     5  H    0.034954
     6  H    0.034954
     7  H   -0.264948
     8  H    0.220353
     9  H    0.220353
    10  H   -0.210711
 Sum of Mulliken charges =  -0.00000

 Dipole moment (field-independent basis, Debye):
    X=             -0.0000    Y=              0.0000    Z=             -0.0000  Tot=              0.0000
 Quadrupole moment (field-independent basis, Debye-Ang):
   XX=            -12.9620   YY=            -12.2867   ZZ=            -18.5841
   XY=              0.0000   XZ=              0.0000   YZ=              0.0000

 Normal termination of Gaussian 09 at Thu Feb  9 15:41:07 2017.
