 Gaussian 09, Revision E.01,
 Gaussian 09:  ES64L-G09RevE.01 30-Nov-2015

 ----------------------------------------------------------------------
 #rhf/gen scf(symm,tight,novaracc,noincfock,fulldiag) stable(crhf) geom
 =nocrowd test
 ----------------------------------------------------------------------

 hf stability analysis of h10 triangular lattice, y= 0.2972322466265926
 4
 ----------------------------------------------------------------------
 Symbolic Z-matrix:
 Charge =  0 Multiplicity = 1

                         Standard orientation:
 ---------------------------------------------------------------------
 Center     Atomic      Atomic             Coordinates (Angstroms)
 Number     Number       Type             X           Y           Z
 ---------------------------------------------------------------------
      1          1           0       -0.000000    0.297232    3.884843
      2          1           0       -0.000000    0.000000    5.827264
      3          1           0       -0.000000    0.000000    1.942421
      4          1           0       -0.000000   -0.297232    3.884843
      5          1           0       -0.000000    0.297232    0.000000
      6          1           0       -0.000000   -0.297232    0.000000
      7          1           0        0.000000    0.000000   -1.942421
      8          1           0        0.000000    0.297232   -3.884843
      9          1           0       -0.000000   -0.297232   -3.884843
     10          1           0        0.000000    0.000000   -5.827264
 ---------------------------------------------------------------------

 SCF Done:  E(RHF) =  -4.64860778901     A.U. after    9 cycles
 E2 =    -0.3444295344D+00 EUMP2 =    -0.49930373234290D+01

 The electronic state is 1-AG.
 Alpha  occ. eigenvalues --   -0.70284  -0.69948  -0.69019  -0.27099  -0.24425
 Alpha virt. eigenvalues --   -0.09349  -0.06413   0.49173   0.49584   0.50896

 Mulliken charges:
               1
     1  H    0.020219
     2  H   -0.043185
     3  H   -0.001353
     4  H    0.020219
     5  H    0.004100
     6  H    0.004100
     7  H   -0.001353
     8  H    0.020219
     9  H    0.020219
    10  H   -0.043185
 Sum of Mulliken charges =  -0.00000

 Dipole moment (field-independent basis, Debye):
    X=             -0.0000    Y=             -0.0000    Z=             -0.0000  Tot=              0.0000
 Quadrupole moment (field-independent basis, Debye-Ang):
   XX=            -13.6049   YY=            -12.6594   ZZ=            -23.2093
   XY=              0.0000   XZ=              0.0000   YZ=             -0.0000

 Normal termination of Gaussian 09 at Thu Feb  9 16:04:57 2017.
