 Gaussian 09, Revision E.01,
 Gaussian 09:  ES64L-G09RevE.01 30-Nov-2015

 ----------------------------------------------------------------------
 #rhf/gen scf(symm,tight,novaracc,noincfock,fulldiag) stable(crhf) geom
 =nocrowd test
 ----------------------------------------------------------------------

 hf stability analysis of h10 triangular lattice, y= 0.3843194380501128
 7
 ----------------------------------------------------------------------
 Symbolic Z-matrix:
 Charge =  0 Multiplicity = 1

                         Standard orientation:
 ---------------------------------------------------------------------
 Center     Atomic      Atomic             Coordinates (Angstroms)
 Number     Number       Type             X           Y           Z
 ---------------------------------------------------------------------
      1          1           0       -0.000000    0.384319    3.004533
      2          1           0       -0.000000    0.000000    4.506800
      3          1           0       -0.000000    0.000000    1.502267
      4          1           0       -0.000000   -0.384319    3.004533
      5          1           0        0.000000    0.384319   -0.000000
      6          1           0       -0.000000   -0.384319    0.000000
      7          1           0        0.000000   -0.000000   -1.502267
      8          1           0        0.000000    0.384319   -3.004533
      9          1           0       -0.000000   -0.384319   -3.004533
     10          1           0        0.000000   -0.000000   -4.506800
 ---------------------------------------------------------------------

 SCF Done:  E(RHF) =  -4.88258473946     A.U. after    9 cycles
 E2 =    -0.1585028607D+00 EUMP2 =    -0.50410876001183D+01

 The electronic state is 1-AG.
 Alpha  occ. eigenvalues --   -0.72062  -0.69967  -0.66335  -0.31386  -0.23765
 Alpha virt. eigenvalues --    0.00417   0.09525   0.30464   0.32408   0.35839

 Mulliken charges:
               1
     1  H    0.105074
     2  H   -0.181368
     3  H   -0.074982
     4  H    0.105074
     5  H    0.046201
     6  H    0.046201
     7  H   -0.074982
     8  H    0.105074
     9  H    0.105074
    10  H   -0.181368
 Sum of Mulliken charges =  -0.00000

 Dipole moment (field-independent basis, Debye):
    X=             -0.0000    Y=             -0.0000    Z=              0.0000  Tot=              0.0000
 Quadrupole moment (field-independent basis, Debye-Ang):
   XX=            -13.5406   YY=            -11.8529   ZZ=            -34.9851
   XY=              0.0000   XZ=              0.0000   YZ=             -0.0000

 Normal termination of Gaussian 09 at Thu Feb  9 16:01:06 2017.
