 Gaussian 09, Revision E.01,
 Gaussian 09:  ES64L-G09RevE.01 30-Nov-2015

 ----------------------------------------------------------------------
 #rhf/gen scf(symm,tight,novaracc,noincfock,fulldiag) stable(crhf) geom
 =nocrowd test
 ----------------------------------------------------------------------

 hf stability analysis of h10 triangular lattice, y= 0.4305425621430090
 7
 ----------------------------------------------------------------------
 Symbolic Z-matrix:
 Charge =  0 Multiplicity = 1

                         Standard orientation:
 ---------------------------------------------------------------------
 Center     Atomic      Atomic             Coordinates (Angstroms)
 Number     Number       Type             X           Y           Z
 ---------------------------------------------------------------------
      1          1           0        0.000000    0.430543    2.681966
      2          1           0        0.000000    0.000000    4.022949
      3          1           0        0.000000    0.000000    1.340983
      4          1           0       -0.000000   -0.430543    2.681966
      5          1           0        0.000000    0.430543   -0.000000
      6          1           0       -0.000000   -0.430543    0.000000
      7          1           0        0.000000   -0.000000   -1.340983
      8          1           0        0.000000    0.430543   -2.681966
      9          1           0       -0.000000   -0.430543   -2.681966
     10          1           0        0.000000   -0.000000   -4.022949
 ---------------------------------------------------------------------

 SCF Done:  E(RHF) =  -4.90448035723     A.U. after    8 cycles
 E2 =    -0.1188284535D+00 EUMP2 =    -0.50233088107274D+01

 The electronic state is 1-AG.
 Alpha  occ. eigenvalues --   -0.74383  -0.70741  -0.65057  -0.33208  -0.22388
 Alpha virt. eigenvalues --    0.07670   0.21182   0.21862   0.25286   0.29872

 Mulliken charges:
               1
     1  H    0.158235
     2  H   -0.268315
     3  H   -0.125848
     4  H    0.158235
     5  H    0.077692
     6  H    0.077692
     7  H   -0.125848
     8  H    0.158235
     9  H    0.158235
    10  H   -0.268315
 Sum of Mulliken charges =   0.00000

 Dipole moment (field-independent basis, Debye):
    X=             -0.0000    Y=              0.0000    Z=             -0.0000  Tot=              0.0000
 Quadrupole moment (field-independent basis, Debye-Ang):
   XX=            -13.3928   YY=            -11.1750   ZZ=            -39.1072
   XY=              0.0000   XZ=              0.0000   YZ=             -0.0000

 Normal termination of Gaussian 09 at Thu Feb  9 15:58:17 2017.
