 Gaussian 09, Revision E.01,
 Gaussian 09:  ES64L-G09RevE.01 30-Nov-2015

 ----------------------------------------------------------------------
 #rhf/gen scf(symm,tight,novaracc,noincfock,fulldiag) stable(crhf) geom
 =nocrowd test
 ----------------------------------------------------------------------

 hf stability analysis of h10 triangular lattice, y= 0.4799368795303601
 3
 ----------------------------------------------------------------------
 Symbolic Z-matrix:
 Charge =  0 Multiplicity = 1

                         Standard orientation:
 ---------------------------------------------------------------------
 Center     Atomic      Atomic             Coordinates (Angstroms)
 Number     Number       Type             X           Y           Z
 ---------------------------------------------------------------------
      1          1           0        0.000000    0.479937    2.405943
      2          1           0        0.000000   -0.000000    3.608914
      3          1           0        0.000000   -0.000000    1.202971
      4          1           0       -0.000000   -0.479937    2.405943
      5          1           0        0.000000    0.479937    0.000000
      6          1           0       -0.000000   -0.479937   -0.000000
      7          1           0        0.000000    0.000000   -1.202971
      8          1           0        0.000000    0.479937   -2.405943
      9          1           0       -0.000000   -0.479937   -2.405943
     10          1           0        0.000000    0.000000   -3.608914
 ---------------------------------------------------------------------

 SCF Done:  E(RHF) =  -4.86109724539     A.U. after    9 cycles
 E2 =    -0.9750415321D-01 EUMP2 =    -0.49586013986007D+01

 The electronic state is 1-AG.
 Alpha  occ. eigenvalues --   -0.77115  -0.71673  -0.63435  -0.34256  -0.19917
 Alpha virt. eigenvalues --    0.13722   0.16600   0.19088   0.25056   0.35007

 Mulliken charges:
               1
     1  H    0.212230
     2  H   -0.356549
     3  H   -0.180499
     4  H    0.212230
     5  H    0.112588
     6  H    0.112588
     7  H   -0.180499
     8  H    0.212230
     9  H    0.212230
    10  H   -0.356549
 Sum of Mulliken charges =   0.00000

 Dipole moment (field-independent basis, Debye):
    X=             -0.0000    Y=             -0.0000    Z=              0.0000  Tot=              0.0000
 Quadrupole moment (field-independent basis, Debye-Ang):
   XX=            -13.1708   YY=            -10.2921   ZZ=            -41.5558
   XY=              0.0000   XZ=              0.0000   YZ=              0.0000

 Normal termination of Gaussian 09 at Thu Feb  9 15:54:55 2017.
