 Gaussian 09, Revision E.01,
 Gaussian 09:  ES64L-G09RevE.01 30-Nov-2015

 ----------------------------------------------------------------------
 #rhf/gen scf(symm,tight,novaracc,noincfock,fulldiag) stable(crhf) geom
 =nocrowd test
 ----------------------------------------------------------------------

 hf stability analysis of h10 triangular lattice, y= 0.5971421992591463
 6
 ----------------------------------------------------------------------
 Symbolic Z-matrix:
 Charge =  0 Multiplicity = 1

                         Standard orientation:
 ---------------------------------------------------------------------
 Center     Atomic      Atomic             Coordinates (Angstroms)
 Number     Number       Type             X           Y           Z
 ---------------------------------------------------------------------
      1          1           0        0.000000    0.597142    1.933711
      2          1           0        0.000000   -0.000000    2.900567
      3          1           0        0.000000   -0.000000    0.966856
      4          1           0       -0.000000   -0.597142    1.933711
      5          1           0       -0.000000    0.597142    0.000000
      6          1           0       -0.000000   -0.597142   -0.000000
      7          1           0        0.000000    0.000000   -0.966856
      8          1           0        0.000000    0.597142   -1.933711
      9          1           0       -0.000000   -0.597142   -1.933711
     10          1           0        0.000000    0.000000   -2.900567
 ---------------------------------------------------------------------

 SCF Done:  E(RHF) =  -4.78519236975     A.U. after    9 cycles
 E2 =    -0.1408976235D+00 EUMP2 =    -0.49260899932108D+01

 The electronic state is 1-AG.
 Alpha  occ. eigenvalues --   -0.79954  -0.72704  -0.56630  -0.31091  -0.23345
 Alpha virt. eigenvalues --    0.03278   0.10760   0.20935   0.40924   0.67736

 Mulliken charges:
               1
     1  H    0.150812
     2  H   -0.102753
     3  H   -0.206318
     4  H    0.150812
     5  H    0.007447
     6  H    0.007447
     7  H   -0.206318
     8  H    0.150812
     9  H    0.150812
    10  H   -0.102753
 Sum of Mulliken charges =  -0.00000

 Dipole moment (field-independent basis, Debye):
    X=             -0.0000    Y=              0.0000    Z=             -0.0000  Tot=              0.0000
 Quadrupole moment (field-independent basis, Debye-Ang):
   XX=            -13.1224   YY=            -13.6861   ZZ=            -14.1803
   XY=              0.0000   XZ=              0.0000   YZ=             -0.0000

 Normal termination of Gaussian 09 at Thu Feb  9 15:46:18 2017.
