 Gaussian 09, Revision E.01,
 Gaussian 09:  ES64L-G09RevE.01 30-Nov-2015

 ----------------------------------------------------------------------
 #rhf/gen scf(symm,tight,novaracc,noincfock,fulldiag) stable(crhf) geom
 =nocrowd test
 ----------------------------------------------------------------------

 hf stability analysis of h10 triangular lattice, y= 0.7003538324506236
 6
 ----------------------------------------------------------------------
 Symbolic Z-matrix:
 Charge =  0 Multiplicity = 1

                         Standard orientation:
 ---------------------------------------------------------------------
 Center     Atomic      Atomic             Coordinates (Angstroms)
 Number     Number       Type             X           Y           Z
 ---------------------------------------------------------------------
      1          1           0        0.000000    0.700354    1.648739
      2          1           0        0.000000    0.000000    2.473108
      3          1           0        0.000000    0.000000    0.824369
      4          1           0       -0.000000   -0.700354    1.648739
      5          1           0       -0.000000    0.700354    0.000000
      6          1           0       -0.000000   -0.700354   -0.000000
      7          1           0        0.000000    0.000000   -0.824369
      8          1           0        0.000000    0.700354   -1.648739
      9          1           0       -0.000000   -0.700354   -1.648739
     10          1           0        0.000000    0.000000   -2.473108
 ---------------------------------------------------------------------

 SCF Done:  E(RHF) =  -4.81431675988     A.U. after    9 cycles
 E2 =    -0.1076827710D+00 EUMP2 =    -0.49219995308618D+01

 The electronic state is 1-AG.
 Alpha  occ. eigenvalues --   -0.84320  -0.73159  -0.53428  -0.35244  -0.26501
 Alpha virt. eigenvalues --   -0.02630   0.20124   0.26065   0.54871   0.66200

 Mulliken charges:
               1
     1  H    0.247267
     2  H   -0.255996
     3  H   -0.278559
     4  H    0.247267
     5  H    0.040020
     6  H    0.040020
     7  H   -0.278559
     8  H    0.247267
     9  H    0.247267
    10  H   -0.255996
 Sum of Mulliken charges =  -0.00000

 Dipole moment (field-independent basis, Debye):
    X=             -0.0000    Y=             -0.0000    Z=              0.0000  Tot=              0.0000
 Quadrupole moment (field-independent basis, Debye-Ang):
   XX=            -12.8872   YY=            -11.5822   ZZ=            -20.0411
   XY=              0.0000   XZ=              0.0000   YZ=             -0.0000

 Normal termination of Gaussian 09 at Thu Feb  9 15:38:49 2017.
