 Gaussian 09, Revision E.01,
 Gaussian 09:  ES64L-G09RevE.01 30-Nov-2015

 ----------------------------------------------------------------------
 #rhf/gen scf(symm,tight,novaracc,noincfock,fulldiag) stable(crhf) geom
 =nocrowd test
 ----------------------------------------------------------------------

 hf stability analysis of h10 triangular lattice, y= 0.4115532701528076
 8
 ----------------------------------------------------------------------
 Symbolic Z-matrix:
 Charge =  0 Multiplicity = 1

                         Standard orientation:
 ---------------------------------------------------------------------
 Center     Atomic      Atomic             Coordinates (Angstroms)
 Number     Number       Type             X           Y           Z
 ---------------------------------------------------------------------
      1          1           0        0.000000    0.411553    2.805713
      2          1           0        0.000000   -0.000000    4.208570
      3          1           0        0.000000   -0.000000    1.402857
      4          1           0       -0.000000   -0.411553    2.805713
      5          1           0       -0.000000    0.411553    0.000000
      6          1           0       -0.000000   -0.411553   -0.000000
      7          1           0        0.000000    0.000000   -1.402857
      8          1           0        0.000000    0.411553   -2.805713
      9          1           0       -0.000000   -0.411553   -2.805713
     10          1           0        0.000000    0.000000   -4.208570
 ---------------------------------------------------------------------

 SCF Done:  E(RHF) =  -4.90312664310     A.U. after    8 cycles
 E2 =    -0.1321025760D+00 EUMP2 =    -0.50352292191033D+01

 The electronic state is 1-AG.
 Alpha  occ. eigenvalues --   -0.73375  -0.70397  -0.65602  -0.32542  -0.23056
 Alpha virt. eigenvalues --    0.04542   0.16185   0.25278   0.28044   0.32144

 Mulliken charges:
               1
     1  H    0.136504
     2  H   -0.232727
     3  H   -0.104768
     4  H    0.136504
     5  H    0.064487
     6  H    0.064487
     7  H   -0.104768
     8  H    0.136504
     9  H    0.136504
    10  H   -0.232727
 Sum of Mulliken charges =  -0.00000

 Dipole moment (field-independent basis, Debye):
    X=             -0.0000    Y=              0.0000    Z=             -0.0000  Tot=              0.0000
 Quadrupole moment (field-independent basis, Debye-Ang):
   XX=            -13.4622   YY=            -11.4730   ZZ=            -37.6464
   XY=              0.0000   XZ=              0.0000   YZ=              0.0000

 Normal termination of Gaussian 09 at Thu Feb  9 15:59:31 2017.
