 Gaussian 09, Revision E.01,
 Gaussian 09:  ES64L-G09RevE.01 30-Nov-2015

 ----------------------------------------------------------------------
 #rhf/gen scf(symm,tight,novaracc,noincfock,fulldiag) stable(crhf) geom
 =nocrowd test
 ----------------------------------------------------------------------

 hf stability analysis of h10 triangular lattice, y= 0.6035568768658181
 6
 ----------------------------------------------------------------------
 Symbolic Z-matrix:
 Charge =  0 Multiplicity = 1

                         Standard orientation:
 ---------------------------------------------------------------------
 Center     Atomic      Atomic             Coordinates (Angstroms)
 Number     Number       Type             X           Y           Z
 ---------------------------------------------------------------------
      1          1           0        0.000000    0.603557    1.913159
      2          1           0       -0.000000    0.000000    2.869739
      3          1           0       -0.000000    0.000000    0.956580
      4          1           0       -0.000000   -0.603557    1.913159
      5          1           0       -0.000000    0.603557    0.000000
      6          1           0       -0.000000   -0.603557    0.000000
      7          1           0        0.000000   -0.000000   -0.956580
      8          1           0        0.000000    0.603557   -1.913159
      9          1           0       -0.000000   -0.603557   -1.913159
     10          1           0        0.000000   -0.000000   -2.869739
 ---------------------------------------------------------------------

 SCF Done:  E(RHF) =  -4.79142454709     A.U. after    9 cycles
 E2 =    -0.1379679464D+00 EUMP2 =    -0.49293924934496D+01

 The electronic state is 1-AG.
 Alpha  occ. eigenvalues --   -0.80288  -0.72805  -0.56501  -0.30940  -0.24186
 Alpha virt. eigenvalues --    0.02820   0.11662   0.20779   0.42048   0.68399

 Mulliken charges:
               1
     1  H    0.157784
     2  H   -0.113161
     3  H   -0.213268
     4  H    0.157784
     5  H    0.010862
     6  H    0.010862
     7  H   -0.213268
     8  H    0.157784
     9  H    0.157784
    10  H   -0.113161
 Sum of Mulliken charges =   0.00000

 Dipole moment (field-independent basis, Debye):
    X=             -0.0000    Y=             -0.0000    Z=             -0.0000  Tot=              0.0000
 Quadrupole moment (field-independent basis, Debye-Ang):
   XX=            -13.1080   YY=            -13.5666   ZZ=            -14.6712
   XY=              0.0000   XZ=              0.0000   YZ=              0.0000

 Normal termination of Gaussian 09 at Thu Feb  9 15:45:49 2017.
