 Gaussian 09, Revision E.01,
 Gaussian 09:  ES64L-G09RevE.01 30-Nov-2015

 ----------------------------------------------------------------------
 #rhf/gen scf(symm,tight,novaracc,noincfock,fulldiag) stable(crhf) geom
 =nocrowd test
 ----------------------------------------------------------------------

 hf stability analysis of h10 triangular lattice, y= 0.3822199390688378
 9
 ----------------------------------------------------------------------
 Symbolic Z-matrix:
 Charge =  0 Multiplicity = 1

                         Standard orientation:
 ---------------------------------------------------------------------
 Center     Atomic      Atomic             Coordinates (Angstroms)
 Number     Number       Type             X           Y           Z
 ---------------------------------------------------------------------
      1          1           0       -0.000000    0.382220    3.021037
      2          1           0       -0.000000    0.000000    4.531555
      3          1           0       -0.000000    0.000000    1.510518
      4          1           0       -0.000000   -0.382220    3.021037
      5          1           0       -0.000000    0.382220   -0.000000
      6          1           0       -0.000000   -0.382220    0.000000
      7          1           0        0.000000   -0.000000   -1.510518
      8          1           0        0.000000    0.382220   -3.021037
      9          1           0       -0.000000   -0.382220   -3.021037
     10          1           0        0.000000   -0.000000   -4.531555
 ---------------------------------------------------------------------

 SCF Done:  E(RHF) =  -4.88006261636     A.U. after    9 cycles
 E2 =    -0.1609819439D+00 EUMP2 =    -0.50410445602352D+01

 The electronic state is 1-AG.
 Alpha  occ. eigenvalues --   -0.71970  -0.69939  -0.66390  -0.31289  -0.23808
 Alpha virt. eigenvalues --    0.00118   0.09040   0.30878   0.32765   0.36146

 Mulliken charges:
               1
     1  H    0.102666
     2  H   -0.177442
     3  H   -0.072732
     4  H    0.102666
     5  H    0.044842
     6  H    0.044842
     7  H   -0.072732
     8  H    0.102666
     9  H    0.102666
    10  H   -0.177442
 Sum of Mulliken charges =   0.00000

 Dipole moment (field-independent basis, Debye):
    X=             -0.0000    Y=              0.0000    Z=             -0.0000  Tot=              0.0000
 Quadrupole moment (field-independent basis, Debye-Ang):
   XX=            -13.5455   YY=            -11.8797   ZZ=            -34.7522
   XY=              0.0000   XZ=              0.0000   YZ=              0.0000

 Normal termination of Gaussian 09 at Thu Feb  9 16:01:13 2017.
