 Gaussian 09, Revision E.01,
 Gaussian 09:  ES64L-G09RevE.01 30-Nov-2015

 ----------------------------------------------------------------------
 #rhf/gen scf(symm,tight,novaracc,noincfock,fulldiag) stable(crhf) geom
 =nocrowd test
 ----------------------------------------------------------------------

 hf stability analysis of h10 triangular lattice, y= 0.7103116849717550
 1
 ----------------------------------------------------------------------
 Symbolic Z-matrix:
 Charge =  0 Multiplicity = 1

                         Standard orientation:
 ---------------------------------------------------------------------
 Center     Atomic      Atomic             Coordinates (Angstroms)
 Number     Number       Type             X           Y           Z
 ---------------------------------------------------------------------
      1          1           0        0.000000    0.710312    1.625625
      2          1           0        0.000000    0.000000    2.438438
      3          1           0        0.000000    0.000000    0.812813
      4          1           0       -0.000000   -0.710312    1.625625
      5          1           0       -0.000000    0.710312    0.000000
      6          1           0       -0.000000   -0.710312    0.000000
      7          1           0        0.000000    0.000000   -0.812813
      8          1           0        0.000000    0.710312   -1.625625
      9          1           0       -0.000000   -0.710312   -1.625625
     10          1           0        0.000000    0.000000   -2.438438
 ---------------------------------------------------------------------

 SCF Done:  E(RHF) =  -4.80992540914     A.U. after    9 cycles
 E2 =    -0.1057196183D+00 EUMP2 =    -0.49156450274387D+01

 The electronic state is 1-AG.
 Alpha  occ. eigenvalues --   -0.84628  -0.73077  -0.53004  -0.36236  -0.25833
 Alpha virt. eigenvalues --   -0.03060   0.20212   0.27574   0.55625   0.64906

 Mulliken charges:
               1
     1  H    0.254642
     2  H   -0.268950
     3  H   -0.280912
     4  H    0.254642
     5  H    0.040578
     6  H    0.040578
     7  H   -0.280912
     8  H    0.254642
     9  H    0.254642
    10  H   -0.268950
 Sum of Mulliken charges =  -0.00000

 Dipole moment (field-independent basis, Debye):
    X=             -0.0000    Y=              0.0000    Z=             -0.0000  Tot=              0.0000
 Quadrupole moment (field-independent basis, Debye-Ang):
   XX=            -12.8650   YY=            -11.3663   ZZ=            -20.4223
   XY=              0.0000   XZ=              0.0000   YZ=             -0.0000

 Normal termination of Gaussian 09 at Thu Feb  9 15:38:07 2017.
