 Gaussian 09, Revision E.01,
 Gaussian 09:  ES64L-G09RevE.01 30-Nov-2015

 ----------------------------------------------------------------------
 #rhf/gen scf(symm,tight,novaracc,noincfock,fulldiag) stable(crhf) geom
 =nocrowd test
 ----------------------------------------------------------------------

 hf stability analysis of h10 triangular lattice, y= 0.6029733667813960
 1
 ----------------------------------------------------------------------
 Symbolic Z-matrix:
 Charge =  0 Multiplicity = 1

                         Standard orientation:
 ---------------------------------------------------------------------
 Center     Atomic      Atomic             Coordinates (Angstroms)
 Number     Number       Type             X           Y           Z
 ---------------------------------------------------------------------
      1          1           0       -0.000000    0.602973    1.915011
      2          1           0       -0.000000    0.000000    2.872516
      3          1           0       -0.000000    0.000000    0.957505
      4          1           0       -0.000000   -0.602973    1.915011
      5          1           0       -0.000000    0.602973    0.000000
      6          1           0       -0.000000   -0.602973    0.000000
      7          1           0        0.000000   -0.000000   -0.957505
      8          1           0        0.000000    0.602973   -1.915011
      9          1           0       -0.000000   -0.602973   -1.915011
     10          1           0        0.000000   -0.000000   -2.872516
 ---------------------------------------------------------------------

 SCF Done:  E(RHF) =  -4.79088475376     A.U. after    9 cycles
 E2 =    -0.1382285141D+00 EUMP2 =    -0.49291132679036D+01

 The electronic state is 1-AG.
 Alpha  occ. eigenvalues --   -0.80258  -0.72796  -0.56513  -0.30955  -0.24110
 Alpha virt. eigenvalues --    0.02861   0.11579   0.20793   0.41947   0.68343

 Mulliken charges:
               1
     1  H    0.157155
     2  H   -0.112218
     3  H   -0.212649
     4  H    0.157155
     5  H    0.010558
     6  H    0.010558
     7  H   -0.212649
     8  H    0.157155
     9  H    0.157155
    10  H   -0.112218
 Sum of Mulliken charges =  -0.00000

 Dipole moment (field-independent basis, Debye):
    X=             -0.0000    Y=             -0.0000    Z=             -0.0000  Tot=              0.0000
 Quadrupole moment (field-independent basis, Debye-Ang):
   XX=            -13.1093   YY=            -13.5776   ZZ=            -14.6274
   XY=              0.0000   XZ=              0.0000   YZ=             -0.0000

 Normal termination of Gaussian 09 at Thu Feb  9 15:45:51 2017.
