 Gaussian 09, Revision E.01,
 Gaussian 09:  ES64L-G09RevE.01 30-Nov-2015

 ----------------------------------------------------------------------
 #rhf/gen scf(symm,tight,novaracc,noincfock,fulldiag) stable(crhf) geom
 =nocrowd test
 ----------------------------------------------------------------------

 hf stability analysis of h10 triangular lattice, y= 0.3294992161466225
 3
 ----------------------------------------------------------------------
 Symbolic Z-matrix:
 Charge =  0 Multiplicity = 1

                         Standard orientation:
 ---------------------------------------------------------------------
 Center     Atomic      Atomic             Coordinates (Angstroms)
 Number     Number       Type             X           Y           Z
 ---------------------------------------------------------------------
      1          1           0        0.000000    0.329499    3.504411
      2          1           0        0.000000    0.000000    5.256616
      3          1           0        0.000000    0.000000    1.752205
      4          1           0       -0.000000   -0.329499    3.504411
      5          1           0        0.000000    0.329499   -0.000000
      6          1           0       -0.000000   -0.329499    0.000000
      7          1           0        0.000000   -0.000000   -1.752205
      8          1           0        0.000000    0.329499   -3.504411
      9          1           0       -0.000000   -0.329499   -3.504411
     10          1           0        0.000000   -0.000000   -5.256616
 ---------------------------------------------------------------------

 SCF Done:  E(RHF) =  -4.76913955869     A.U. after   10 cycles
 E2 =    -0.2525169367D+00 EUMP2 =    -0.50216564954314D+01

 The electronic state is 1-AG.
 Alpha  occ. eigenvalues --   -0.70357  -0.69595  -0.67853  -0.28674  -0.24420
 Alpha virt. eigenvalues --   -0.06389  -0.01572   0.41916   0.42708   0.44808

 Mulliken charges:
               1
     1  H    0.046273
     2  H   -0.085881
     3  H   -0.021990
     4  H    0.046273
     5  H    0.015325
     6  H    0.015325
     7  H   -0.021990
     8  H    0.046273
     9  H    0.046273
    10  H   -0.085881
 Sum of Mulliken charges =   0.00000

 Dipole moment (field-independent basis, Debye):
    X=             -0.0000    Y=              0.0000    Z=              0.0000  Tot=              0.0000
 Quadrupole moment (field-independent basis, Debye-Ang):
   XX=            -13.6109   YY=            -12.4299   ZZ=            -27.8431
   XY=              0.0000   XZ=              0.0000   YZ=             -0.0000

 Normal termination of Gaussian 09 at Thu Feb  9 16:03:38 2017.
