 Gaussian 09, Revision E.01,
 Gaussian 09:  ES64L-G09RevE.01 30-Nov-2015

 ----------------------------------------------------------------------
 #rhf/gen scf(symm,tight,novaracc,noincfock,fulldiag) stable(crhf) geom
 =nocrowd test
 ----------------------------------------------------------------------

 hf stability analysis of h10 triangular lattice, y= 0.5476399001369864
 9
 ----------------------------------------------------------------------
 Symbolic Z-matrix:
 Charge =  0 Multiplicity = 1

                         Standard orientation:
 ---------------------------------------------------------------------
 Center     Atomic      Atomic             Coordinates (Angstroms)
 Number     Number       Type             X           Y           Z
 ---------------------------------------------------------------------
      1          1           0       -0.000000    0.547640    2.108503
      2          1           0        0.000000    0.000000    3.162755
      3          1           0        0.000000    0.000000    1.054252
      4          1           0       -0.000000   -0.547640    2.108503
      5          1           0        0.000000    0.547640    0.000000
      6          1           0       -0.000000   -0.547640    0.000000
      7          1           0        0.000000    0.000000   -1.054252
      8          1           0        0.000000    0.547640   -2.108503
      9          1           0       -0.000000   -0.547640   -2.108503
     10          1           0        0.000000    0.000000   -3.162755
 ---------------------------------------------------------------------

 SCF Done:  E(RHF) =  -4.71327013586     A.U. after    9 cycles
 E2 =    -0.1691554631D+00 EUMP2 =    -0.48824255990073D+01

 The electronic state is 1-AG.
 Alpha  occ. eigenvalues --   -0.77132  -0.71604  -0.57291  -0.31633  -0.16303
 Alpha virt. eigenvalues --    0.04156   0.07324   0.22701   0.31703   0.59512

 Mulliken charges:
               1
     1  H    0.093497
     2  H   -0.019885
     3  H   -0.142802
     4  H    0.093497
     5  H   -0.024308
     6  H   -0.024308
     7  H   -0.142802
     8  H    0.093497
     9  H    0.093497
    10  H   -0.019885
 Sum of Mulliken charges =   0.00000

 Dipole moment (field-independent basis, Debye):
    X=             -0.0000    Y=              0.0000    Z=             -0.0000  Tot=              0.0000
 Quadrupole moment (field-independent basis, Debye-Ang):
   XX=            -13.2281   YY=            -14.5340   ZZ=             -9.6454
   XY=             -0.0000   XZ=             -0.0000   YZ=              0.0000

 Normal termination of Gaussian 09 at Thu Feb  9 15:50:00 2017.
