 Gaussian 09, Revision E.01,
 Gaussian 09:  ES64L-G09RevE.01 30-Nov-2015

 ----------------------------------------------------------------------
 #rhf/gen scf(symm,tight,novaracc,noincfock,fulldiag) stable(crhf) geom
 =nocrowd test
 ----------------------------------------------------------------------

 hf stability analysis of h10 triangular lattice, y= 0.5288892818392642
 0
 ----------------------------------------------------------------------
 Symbolic Z-matrix:
 Charge =  0 Multiplicity = 1

                         Standard orientation:
 ---------------------------------------------------------------------
 Center     Atomic      Atomic             Coordinates (Angstroms)
 Number     Number       Type             X           Y           Z
 ---------------------------------------------------------------------
      1          1           0        0.000000    0.528889    2.183256
      2          1           0        0.000000    0.000000    3.274884
      3          1           0        0.000000    0.000000    1.091628
      4          1           0       -0.000000   -0.528889    2.183256
      5          1           0       -0.000000    0.528889    0.000000
      6          1           0       -0.000000   -0.528889   -0.000000
      7          1           0        0.000000    0.000000   -1.091628
      8          1           0        0.000000    0.528889   -2.183256
      9          1           0       -0.000000   -0.528889   -2.183256
     10          1           0        0.000000    0.000000   -3.274884
 ---------------------------------------------------------------------

 SCF Done:  E(RHF) =  -4.75752407890     A.U. after    8 cycles
 E2 =    -0.8860526258D-01 EUMP2 =    -0.48461293414751D+01

 The electronic state is 1-AG.
 Alpha  occ. eigenvalues --   -0.79661  -0.72446  -0.61480  -0.34210  -0.16368
 Alpha virt. eigenvalues --    0.06666   0.14107   0.21649   0.26187   0.48510

 Mulliken charges:
               1
     1  H    0.260734
     2  H   -0.435068
     3  H   -0.233278
     4  H    0.260734
     5  H    0.146878
     6  H    0.146878
     7  H   -0.233278
     8  H    0.260734
     9  H    0.260734
    10  H   -0.435068
 Sum of Mulliken charges =  -0.00000

 Dipole moment (field-independent basis, Debye):
    X=             -0.0000    Y=              0.0000    Z=             -0.0000  Tot=              0.0000
 Quadrupole moment (field-independent basis, Debye-Ang):
   XX=            -12.9151   YY=             -9.2959   ZZ=            -42.5098
   XY=              0.0000   XZ=              0.0000   YZ=              0.0000

 Normal termination of Gaussian 09 at Thu Feb  9 15:51:23 2017.
