 Gaussian 09, Revision E.01,
 Gaussian 09:  ES64L-G09RevE.01 30-Nov-2015

 ----------------------------------------------------------------------
 #rhf/gen scf(symm,tight,novaracc,noincfock,fulldiag) stable(crhf) geom
 =nocrowd test
 ----------------------------------------------------------------------

 hf stability analysis of h10 triangular lattice, y= 0.4707695940863088
 6
 ----------------------------------------------------------------------
 Symbolic Z-matrix:
 Charge =  0 Multiplicity = 1

                         Standard orientation:
 ---------------------------------------------------------------------
 Center     Atomic      Atomic             Coordinates (Angstroms)
 Number     Number       Type             X           Y           Z
 ---------------------------------------------------------------------
      1          1           0        0.000000    0.470770    2.452793
      2          1           0        0.000000    0.000000    3.679190
      3          1           0        0.000000    0.000000    1.226397
      4          1           0       -0.000000   -0.470770    2.452793
      5          1           0        0.000000    0.470770   -0.000000
      6          1           0       -0.000000   -0.470770    0.000000
      7          1           0        0.000000   -0.000000   -1.226397
      8          1           0        0.000000    0.470770   -2.452793
      9          1           0       -0.000000   -0.470770   -2.452793
     10          1           0        0.000000   -0.000000   -3.679190
 ---------------------------------------------------------------------

 SCF Done:  E(RHF) =  -4.87404750927     A.U. after    9 cycles
 E2 =    -0.1003354333D+00 EUMP2 =    -0.49743829425270D+01

 The electronic state is 1-AG.
 Alpha  occ. eigenvalues --   -0.76610  -0.71505  -0.63761  -0.34142  -0.20459
 Alpha virt. eigenvalues --    0.14870   0.15153   0.20141   0.25837   0.32396

 Mulliken charges:
               1
     1  H    0.202558
     2  H   -0.340791
     3  H   -0.170423
     4  H    0.202558
     5  H    0.106099
     6  H    0.106099
     7  H   -0.170423
     8  H    0.202558
     9  H    0.202558
    10  H   -0.340791
 Sum of Mulliken charges =   0.00000

 Dipole moment (field-independent basis, Debye):
    X=             -0.0000    Y=              0.0000    Z=             -0.0000  Tot=              0.0000
 Quadrupole moment (field-independent basis, Debye-Ang):
   XX=            -13.2156   YY=            -10.4664   ZZ=            -41.2318
   XY=              0.0000   XZ=              0.0000   YZ=             -0.0000

 Normal termination of Gaussian 09 at Thu Feb  9 15:55:33 2017.
