 Gaussian 09, Revision E.01,
 Gaussian 09:  ES64L-G09RevE.01 30-Nov-2015

 ----------------------------------------------------------------------
 #rhf/gen scf(symm,tight,novaracc,noincfock,fulldiag) stable(crhf) geom
 =nocrowd test
 ----------------------------------------------------------------------

 hf stability analysis of h10 triangular lattice, y= 0.4207906495022131
 2
 ----------------------------------------------------------------------
 Symbolic Z-matrix:
 Charge =  0 Multiplicity = 1

                         Standard orientation:
 ---------------------------------------------------------------------
 Center     Atomic      Atomic             Coordinates (Angstroms)
 Number     Number       Type             X           Y           Z
 ---------------------------------------------------------------------
      1          1           0       -0.000000    0.420791    2.744121
      2          1           0        0.000000   -0.000000    4.116182
      3          1           0        0.000000   -0.000000    1.372061
      4          1           0       -0.000000   -0.420791    2.744121
      5          1           0       -0.000000    0.420791    0.000000
      6          1           0       -0.000000   -0.420791   -0.000000
      7          1           0        0.000000    0.000000   -1.372061
      8          1           0        0.000000    0.420791   -2.744121
      9          1           0       -0.000000   -0.420791   -2.744121
     10          1           0        0.000000    0.000000   -4.116182
 ---------------------------------------------------------------------

 SCF Done:  E(RHF) =  -4.90508654960     A.U. after    8 cycles
 E2 =    -0.1251997551D+00 EUMP2 =    -0.50302863047210D+01

 The electronic state is 1-AG.
 Alpha  occ. eigenvalues --   -0.73859  -0.70561  -0.65341  -0.32882  -0.22750
 Alpha virt. eigenvalues --    0.06039   0.18584   0.23596   0.26674   0.31008

 Mulliken charges:
               1
     1  H    0.147119
     2  H   -0.250108
     3  H   -0.115011
     4  H    0.147119
     5  H    0.070881
     6  H    0.070881
     7  H   -0.115011
     8  H    0.147119
     9  H    0.147119
    10  H   -0.250108
 Sum of Mulliken charges =   0.00000

 Dipole moment (field-independent basis, Debye):
    X=             -0.0000    Y=              0.0000    Z=              0.0000  Tot=              0.0000
 Quadrupole moment (field-independent basis, Debye-Ang):
   XX=            -13.4298   YY=            -11.3312   ZZ=            -38.3966
   XY=              0.0000   XZ=              0.0000   YZ=              0.0000

 Normal termination of Gaussian 09 at Thu Feb  9 15:58:55 2017.
