 Gaussian 09, Revision E.01,
 Gaussian 09:  ES64L-G09RevE.01 30-Nov-2015

 ----------------------------------------------------------------------
 #rhf/gen scf(symm,tight,novaracc,noincfock,fulldiag) stable(crhf) geom
 =nocrowd test
 ----------------------------------------------------------------------

 hf stability analysis of h10 triangular lattice, y= 0.4014960725920105
 3
 ----------------------------------------------------------------------
 Symbolic Z-matrix:
 Charge =  0 Multiplicity = 1

                         Standard orientation:
 ---------------------------------------------------------------------
 Center     Atomic      Atomic             Coordinates (Angstroms)
 Number     Number       Type             X           Y           Z
 ---------------------------------------------------------------------
      1          1           0       -0.000000    0.401496    2.875995
      2          1           0       -0.000000    0.000000    4.313992
      3          1           0       -0.000000    0.000000    1.437997
      4          1           0       -0.000000   -0.401496    2.875995
      5          1           0       -0.000000    0.401496   -0.000000
      6          1           0       -0.000000   -0.401496    0.000000
      7          1           0        0.000000   -0.000000   -1.437997
      8          1           0        0.000000    0.401496   -2.875995
      9          1           0       -0.000000   -0.401496   -2.875995
     10          1           0        0.000000   -0.000000   -4.313992
 ---------------------------------------------------------------------

 SCF Done:  E(RHF) =  -4.89813939740     A.U. after    8 cycles
 E2 =    -0.1407090528D+00 EUMP2 =    -0.50388484502509D+01

 The electronic state is 1-AG.
 Alpha  occ. eigenvalues --   -0.72867  -0.70227  -0.65878  -0.32140  -0.23351
 Alpha virt. eigenvalues --    0.02966   0.13650   0.27153   0.29598   0.33448

 Mulliken charges:
               1
     1  H    0.124891
     2  H   -0.213728
     3  H   -0.093671
     4  H    0.124891
     5  H    0.057616
     6  H    0.057616
     7  H   -0.093671
     8  H    0.124891
     9  H    0.124891
    10  H   -0.213728
 Sum of Mulliken charges =   0.00000

 Dipole moment (field-independent basis, Debye):
    X=             -0.0000    Y=             -0.0000    Z=              0.0000  Tot=              0.0000
 Quadrupole moment (field-independent basis, Debye-Ang):
   XX=            -13.4942   YY=            -11.6201   ZZ=            -36.7420
   XY=              0.0000   XZ=              0.0000   YZ=             -0.0000

 Normal termination of Gaussian 09 at Thu Feb  9 16:00:08 2017.
