 Gaussian 09, Revision E.01,
 Gaussian 09:  ES64L-G09RevE.01 30-Nov-2015

 ----------------------------------------------------------------------
 #rhf/gen scf(symm,tight,novaracc,noincfock,fulldiag) stable(crhf) geom
 =nocrowd test
 ----------------------------------------------------------------------

 hf stability analysis of h10 triangular lattice, y= 0.6941788879587844
 6
 ----------------------------------------------------------------------
 Symbolic Z-matrix:
 Charge =  0 Multiplicity = 1

                         Standard orientation:
 ---------------------------------------------------------------------
 Center     Atomic      Atomic             Coordinates (Angstroms)
 Number     Number       Type             X           Y           Z
 ---------------------------------------------------------------------
      1          1           0        0.000000    0.694179    1.663405
      2          1           0       -0.000000    0.000000    2.495107
      3          1           0       -0.000000    0.000000    0.831702
      4          1           0       -0.000000   -0.694179    1.663405
      5          1           0       -0.000000    0.694179    0.000000
      6          1           0       -0.000000   -0.694179    0.000000
      7          1           0        0.000000    0.000000   -0.831702
      8          1           0        0.000000    0.694179   -1.663405
      9          1           0       -0.000000   -0.694179   -1.663405
     10          1           0        0.000000    0.000000   -2.495107
 ---------------------------------------------------------------------

 SCF Done:  E(RHF) =  -4.81645597126     A.U. after    9 cycles
 E2 =    -0.1089890869D+00 EUMP2 =    -0.49254450581810D+01

 The electronic state is 1-AG.
 Alpha  occ. eigenvalues --   -0.84119  -0.73200  -0.53682  -0.34618  -0.26898
 Alpha virt. eigenvalues --   -0.02353   0.20082   0.25126   0.54345   0.66930

 Mulliken charges:
               1
     1  H    0.242517
     2  H   -0.247792
     3  H   -0.276693
     4  H    0.242517
     5  H    0.039450
     6  H    0.039450
     7  H   -0.276693
     8  H    0.242517
     9  H    0.242517
    10  H   -0.247792
 Sum of Mulliken charges =   0.00000

 Dipole moment (field-independent basis, Debye):
    X=             -0.0000    Y=              0.0000    Z=              0.0000  Tot=              0.0000
 Quadrupole moment (field-independent basis, Debye-Ang):
   XX=            -12.9011   YY=            -11.7156   ZZ=            -19.7918
   XY=              0.0000   XZ=              0.0000   YZ=              0.0000

 Normal termination of Gaussian 09 at Thu Feb  9 15:39:12 2017.
