 Gaussian 09, Revision E.01,
 Gaussian 09:  ES64L-G09RevE.01 30-Nov-2015

 ----------------------------------------------------------------------
 #rhf/gen scf(symm,tight,novaracc,noincfock,fulldiag) stable(crhf) geom
 =nocrowd test
 ----------------------------------------------------------------------

 hf stability analysis of h10 triangular lattice, y= 0.5831683378880934
 1
 ----------------------------------------------------------------------
 Symbolic Z-matrix:
 Charge =  0 Multiplicity = 1

                         Standard orientation:
 ---------------------------------------------------------------------
 Center     Atomic      Atomic             Coordinates (Angstroms)
 Number     Number       Type             X           Y           Z
 ---------------------------------------------------------------------
      1          1           0        0.000000    0.583168    1.980047
      2          1           0       -0.000000   -0.000000    2.970070
      3          1           0       -0.000000   -0.000000    0.990023
      4          1           0       -0.000000   -0.583168    1.980047
      5          1           0        0.000000    0.583168    0.000000
      6          1           0       -0.000000   -0.583168   -0.000000
      7          1           0        0.000000    0.000000   -0.990023
      8          1           0        0.000000    0.583168   -1.980047
      9          1           0       -0.000000   -0.583168   -1.980047
     10          1           0        0.000000    0.000000   -2.970070
 ---------------------------------------------------------------------

 SCF Done:  E(RHF) =  -4.76928407841     A.U. after    9 cycles
 E2 =    -0.1478034204D+00 EUMP2 =    -0.49170874988389D+01

 The electronic state is 1-AG.
 Alpha  occ. eigenvalues --   -0.79201  -0.72451  -0.56876  -0.31356  -0.21458
 Alpha virt. eigenvalues --    0.04327   0.08829   0.21330   0.38406   0.65946

 Mulliken charges:
               1
     1  H    0.135242
     2  H   -0.079775
     3  H   -0.190137
     4  H    0.135242
     5  H   -0.000572
     6  H   -0.000572
     7  H   -0.190137
     8  H    0.135242
     9  H    0.135242
    10  H   -0.079775
 Sum of Mulliken charges =  -0.00000

 Dipole moment (field-independent basis, Debye):
    X=             -0.0000    Y=             -0.0000    Z=             -0.0000  Tot=              0.0000
 Quadrupole moment (field-independent basis, Debye-Ang):
   XX=            -13.1533   YY=            -13.9392   ZZ=            -13.0388
   XY=             -0.0000   XZ=              0.0000   YZ=             -0.0000

 Normal termination of Gaussian 09 at Thu Feb  9 15:47:21 2017.
