 Gaussian 09, Revision E.01,
 Gaussian 09:  ES64L-G09RevE.01 30-Nov-2015

 ----------------------------------------------------------------------
 #rhf/gen scf(symm,tight,novaracc,noincfock,fulldiag) stable(crhf) geom
 =nocrowd test
 ----------------------------------------------------------------------

 hf stability analysis of h10 triangular lattice, y= 0.4602734948168057
 4
 ----------------------------------------------------------------------
 Symbolic Z-matrix:
 Charge =  0 Multiplicity = 1

                         Standard orientation:
 ---------------------------------------------------------------------
 Center     Atomic      Atomic             Coordinates (Angstroms)
 Number     Number       Type             X           Y           Z
 ---------------------------------------------------------------------
      1          1           0        0.000000    0.460273    2.508727
      2          1           0        0.000000    0.000000    3.763090
      3          1           0        0.000000    0.000000    1.254363
      4          1           0       -0.000000   -0.460273    2.508727
      5          1           0        0.000000    0.460273    0.000000
      6          1           0       -0.000000   -0.460273    0.000000
      7          1           0        0.000000   -0.000000   -1.254363
      8          1           0        0.000000    0.460273   -2.508727
      9          1           0       -0.000000   -0.460273   -2.508727
     10          1           0        0.000000   -0.000000   -3.763090
 ---------------------------------------------------------------------

 SCF Done:  E(RHF) =  -4.88620057419     A.U. after    9 cycles
 E2 =    -0.1041357400D+00 EUMP2 =    -0.49903363141858D+01

 The electronic state is 1-AG.
 Alpha  occ. eigenvalues --   -0.76028  -0.71307  -0.64120  -0.33966  -0.21031
 Alpha virt. eigenvalues --    0.12925   0.16836   0.21398   0.26793   0.29418

 Mulliken charges:
               1
     1  H    0.191274
     2  H   -0.322375
     3  H   -0.158839
     4  H    0.191274
     5  H    0.098667
     6  H    0.098667
     7  H   -0.158839
     8  H    0.191274
     9  H    0.191274
    10  H   -0.322375
 Sum of Mulliken charges =  -0.00000

 Dipole moment (field-independent basis, Debye):
    X=             -0.0000    Y=              0.0000    Z=             -0.0000  Tot=              0.0000
 Quadrupole moment (field-independent basis, Debye-Ang):
   XX=            -13.2651   YY=            -10.6605   ZZ=            -40.7931
   XY=              0.0000   XZ=              0.0000   YZ=             -0.0000

 Normal termination of Gaussian 09 at Thu Feb  9 15:56:16 2017.
