 Gaussian 09, Revision E.01,
 Gaussian 09:  ES64L-G09RevE.01 30-Nov-2015

 ----------------------------------------------------------------------
 #rhf/gen scf(symm,tight,novaracc,noincfock,fulldiag) stable(crhf) geom
 =nocrowd test
 ----------------------------------------------------------------------

 hf stability analysis of h10 triangular lattice, y= 0.3621750497587933
 9
 ----------------------------------------------------------------------
 Symbolic Z-matrix:
 Charge =  0 Multiplicity = 1

                         Standard orientation:
 ---------------------------------------------------------------------
 Center     Atomic      Atomic             Coordinates (Angstroms)
 Number     Number       Type             X           Y           Z
 ---------------------------------------------------------------------
      1          1           0        0.000000    0.362175    3.188239
      2          1           0        0.000000   -0.000000    4.782358
      3          1           0        0.000000   -0.000000    1.594119
      4          1           0       -0.000000   -0.362175    3.188239
      5          1           0        0.000000    0.362175    0.000000
      6          1           0       -0.000000   -0.362175   -0.000000
      7          1           0        0.000000    0.000000   -1.594119
      8          1           0        0.000000    0.362175   -3.188239
      9          1           0       -0.000000   -0.362175   -3.188239
     10          1           0        0.000000    0.000000   -4.782358
 ---------------------------------------------------------------------

 SCF Done:  E(RHF) =  -4.84895483158     A.U. after    9 cycles
 E2 =    -0.1885939568D+00 EUMP2 =    -0.50375487884145D+01

 The electronic state is 1-AG.
 Alpha  occ. eigenvalues --   -0.71184  -0.69713  -0.66919  -0.30323  -0.24143
 Alpha virt. eigenvalues --   -0.02588   0.04637   0.34932   0.36328   0.39226

 Mulliken charges:
               1
     1  H    0.080053
     2  H   -0.140658
     3  H   -0.051868
     4  H    0.080053
     5  H    0.032419
     6  H    0.032419
     7  H   -0.051868
     8  H    0.080053
     9  H    0.080053
    10  H   -0.140658
 Sum of Mulliken charges =  -0.00000

 Dipole moment (field-independent basis, Debye):
    X=             -0.0000    Y=             -0.0000    Z=              0.0000  Tot=              0.0000
 Quadrupole moment (field-independent basis, Debye-Ang):
   XX=            -13.5834   YY=            -12.1168   ZZ=            -32.3424
   XY=              0.0000   XZ=              0.0000   YZ=             -0.0000

 Normal termination of Gaussian 09 at Thu Feb  9 16:02:10 2017.
