 Gaussian 09, Revision E.01,
 Gaussian 09:  ES64L-G09RevE.01 30-Nov-2015

 ----------------------------------------------------------------------
 #rhf/gen scf(symm,tight,novaracc,noincfock,fulldiag) stable(crhf) geom
 =nocrowd test
 ----------------------------------------------------------------------

 hf stability analysis of h10 triangular lattice, y= 0.5022331513632394
 3
 ----------------------------------------------------------------------
 Symbolic Z-matrix:
 Charge =  0 Multiplicity = 1

                         Standard orientation:
 ---------------------------------------------------------------------
 Center     Atomic      Atomic             Coordinates (Angstroms)
 Number     Number       Type             X           Y           Z
 ---------------------------------------------------------------------
      1          1           0       -0.000000    0.502233    2.299132
      2          1           0       -0.000000    0.000000    3.448699
      3          1           0       -0.000000    0.000000    1.149566
      4          1           0       -0.000000   -0.502233    2.299132
      5          1           0       -0.000000    0.502233   -0.000000
      6          1           0       -0.000000   -0.502233    0.000000
      7          1           0        0.000000   -0.000000   -1.149566
      8          1           0        0.000000    0.502233   -2.299132
      9          1           0       -0.000000   -0.502233   -2.299132
     10          1           0        0.000000   -0.000000   -3.448699
 ---------------------------------------------------------------------

 SCF Done:  E(RHF) =  -4.82086782913     A.U. after    9 cycles
 E2 =    -0.9226593790D-01 EUMP2 =    -0.49131337670346D+01

 The electronic state is 1-AG.
 Alpha  occ. eigenvalues --   -0.78312  -0.72057  -0.62589  -0.34372  -0.18438
 Alpha virt. eigenvalues --    0.10387   0.16692   0.20911   0.23350   0.41310

 Mulliken charges:
               1
     1  H    0.234998
     2  H   -0.393516
     3  H   -0.204795
     4  H    0.234998
     5  H    0.128314
     6  H    0.128314
     7  H   -0.204795
     8  H    0.234998
     9  H    0.234998
    10  H   -0.393516
 Sum of Mulliken charges =  -0.00000

 Dipole moment (field-independent basis, Debye):
    X=             -0.0000    Y=             -0.0000    Z=              0.0000  Tot=              0.0000
 Quadrupole moment (field-independent basis, Debye-Ang):
   XX=            -13.0572   YY=             -9.8510   ZZ=            -42.1377
   XY=              0.0000   XZ=              0.0000   YZ=             -0.0000

 Normal termination of Gaussian 09 at Thu Feb  9 15:53:19 2017.
