 Gaussian 09, Revision E.01,
 Gaussian 09:  ES64L-G09RevE.01 30-Nov-2015

 ----------------------------------------------------------------------
 #rhf/gen scf(symm,tight,novaracc,noincfock,fulldiag) stable(crhf) geom
 =nocrowd test
 ----------------------------------------------------------------------

 hf stability analysis of h10 triangular lattice, y= 0.6346378030545434
 3
 ----------------------------------------------------------------------
 Symbolic Z-matrix:
 Charge =  0 Multiplicity = 1

                         Standard orientation:
 ---------------------------------------------------------------------
 Center     Atomic      Atomic             Coordinates (Angstroms)
 Number     Number       Type             X           Y           Z
 ---------------------------------------------------------------------
      1          1           0        0.000000    0.634638    1.819464
      2          1           0        0.000000   -0.000000    2.729196
      3          1           0        0.000000   -0.000000    0.909732
      4          1           0       -0.000000   -0.634638    1.819464
      5          1           0       -0.000000    0.634638    0.000000
      6          1           0       -0.000000   -0.634638   -0.000000
      7          1           0        0.000000    0.000000   -0.909732
      8          1           0        0.000000    0.634638   -1.819464
      9          1           0       -0.000000   -0.634638   -1.819464
     10          1           0        0.000000    0.000000   -2.729196
 ---------------------------------------------------------------------

 SCF Done:  E(RHF) =  -4.81269972367     A.U. after    9 cycles
 E2 =    -0.1256490456D+00 EUMP2 =    -0.49383487693065D+01

 The electronic state is 1-AG.
 Alpha  occ. eigenvalues --   -0.81790  -0.73155  -0.55738  -0.29948  -0.28052
 Alpha virt. eigenvalues --    0.00786   0.16156   0.20239   0.47109   0.70125

 Mulliken charges:
               1
     1  H    0.189868
     2  H   -0.162138
     3  H   -0.242501
     4  H    0.189868
     5  H    0.024902
     6  H    0.024902
     7  H   -0.242501
     8  H    0.189868
     9  H    0.189868
    10  H   -0.162138
 Sum of Mulliken charges =  -0.00000

 Dipole moment (field-independent basis, Debye):
    X=             -0.0000    Y=              0.0000    Z=              0.0000  Tot=              0.0000
 Quadrupole moment (field-independent basis, Debye-Ang):
   XX=            -13.0372   YY=            -12.9618   ZZ=            -16.7812
   XY=              0.0000   XZ=              0.0000   YZ=             -0.0000

 Normal termination of Gaussian 09 at Thu Feb  9 15:43:30 2017.
