 Gaussian 09, Revision E.01,
 Gaussian 09:  ES64L-G09RevE.01 30-Nov-2015

 ----------------------------------------------------------------------
 #rhf/gen scf(symm,tight,novaracc,noincfock,fulldiag) stable(crhf) geom
 =nocrowd test
 ----------------------------------------------------------------------

 hf stability analysis of h10 triangular lattice, y= 0.6070596443003973
 8
 ----------------------------------------------------------------------
 Symbolic Z-matrix:
 Charge =  0 Multiplicity = 1

                         Standard orientation:
 ---------------------------------------------------------------------
 Center     Atomic      Atomic             Coordinates (Angstroms)
 Number     Number       Type             X           Y           Z
 ---------------------------------------------------------------------
      1          1           0        0.000000    0.607060    1.902120
      2          1           0        0.000000    0.000000    2.853181
      3          1           0        0.000000    0.000000    0.951060
      4          1           0       -0.000000   -0.607060    1.902120
      5          1           0       -0.000000    0.607060    0.000000
      6          1           0       -0.000000   -0.607060    0.000000
      7          1           0        0.000000    0.000000   -0.951060
      8          1           0        0.000000    0.607060   -1.902120
      9          1           0       -0.000000   -0.607060   -1.902120
     10          1           0        0.000000    0.000000   -2.853181
 ---------------------------------------------------------------------

 SCF Done:  E(RHF) =  -4.79455230301     A.U. after    9 cycles
 E2 =    -0.1364280818D+00 EUMP2 =    -0.49309803847943D+01

 The electronic state is 1-AG.
 Alpha  occ. eigenvalues --   -0.80467  -0.72856  -0.56426  -0.30850  -0.24638
 Alpha virt. eigenvalues --    0.02575   0.12158   0.20701   0.42651   0.68718

 Mulliken charges:
               1
     1  H    0.161543
     2  H   -0.118805
     3  H   -0.216934
     4  H    0.161543
     5  H    0.012654
     6  H    0.012654
     7  H   -0.216934
     8  H    0.161543
     9  H    0.161543
    10  H   -0.118805
 Sum of Mulliken charges =  -0.00000

 Dipole moment (field-independent basis, Debye):
    X=             -0.0000    Y=             -0.0000    Z=              0.0000  Tot=              0.0000
 Quadrupole moment (field-independent basis, Debye-Ang):
   XX=            -13.1001   YY=            -13.5005   ZZ=            -14.9309
   XY=              0.0000   XZ=              0.0000   YZ=             -0.0000

 Normal termination of Gaussian 09 at Thu Feb  9 15:45:33 2017.
