 Gaussian 09, Revision E.01,
 Gaussian 09:  ES64L-G09RevE.01 30-Nov-2015

 ----------------------------------------------------------------------
 #rhf/gen scf(symm,tight,novaracc,noincfock,fulldiag) stable(crhf) geom
 =nocrowd test
 ----------------------------------------------------------------------

 hf stability analysis of h10 triangular lattice, y= 0.7585106926782296
 8
 ----------------------------------------------------------------------
 Symbolic Z-matrix:
 Charge =  0 Multiplicity = 1

                         Standard orientation:
 ---------------------------------------------------------------------
 Center     Atomic      Atomic             Coordinates (Angstroms)
 Number     Number       Type             X           Y           Z
 ---------------------------------------------------------------------
      1          1           0       -0.000000    0.758511    1.522326
      2          1           0       -0.000000    0.000000    2.283489
      3          1           0       -0.000000    0.000000    0.761163
      4          1           0       -0.000000   -0.758511    1.522326
      5          1           0       -0.000000    0.758511   -0.000000
      6          1           0       -0.000000   -0.758511    0.000000
      7          1           0        0.000000   -0.000000   -0.761163
      8          1           0        0.000000    0.758511   -1.522326
      9          1           0       -0.000000   -0.758511   -1.522326
     10          1           0        0.000000   -0.000000   -2.283489
 ---------------------------------------------------------------------

 SCF Done:  E(RHF) =  -4.85529936240     A.U. after    8 cycles
 E2 =    -0.9751375485D-01 EUMP2 =    -0.49528131172448D+01

 The electronic state is 1-AG.
 Alpha  occ. eigenvalues --   -0.90989  -0.74675  -0.51934  -0.46231  -0.27570
 Alpha virt. eigenvalues --   -0.02036   0.15124   0.34488   0.52096   0.55167

 Mulliken charges:
               1
     1  H   -0.209817
     2  H    0.229272
     3  H    0.152835
     4  H   -0.209817
     5  H    0.037527
     6  H    0.037527
     7  H    0.152835
     8  H   -0.209817
     9  H   -0.209817
    10  H    0.229272
 Sum of Mulliken charges =   0.00000

 Dipole moment (field-independent basis, Debye):
    X=              0.0000    Y=             -0.0000    Z=             -0.0000  Tot=              0.0000
 Quadrupole moment (field-independent basis, Debye-Ang):
   XX=            -13.0037   YY=            -18.5830   ZZ=            -11.0109
   XY=             -0.0000   XZ=             -0.0000   YZ=              0.0000

 Normal termination of Gaussian 09 at Thu Feb  9 15:34:52 2017.
