 Gaussian 09, Revision E.01,
 Gaussian 09:  ES64L-G09RevE.01 30-Nov-2015

 ----------------------------------------------------------------------
 #rhf/gen scf(symm,tight,novaracc,noincfock,fulldiag) stable(crhf) geom
 =nocrowd test
 ----------------------------------------------------------------------

 hf stability analysis of h10 triangular lattice, y= 0.6991159421304509
 2
 ----------------------------------------------------------------------
 Symbolic Z-matrix:
 Charge =  0 Multiplicity = 1

                         Standard orientation:
 ---------------------------------------------------------------------
 Center     Atomic      Atomic             Coordinates (Angstroms)
 Number     Number       Type             X           Y           Z
 ---------------------------------------------------------------------
      1          1           0       -0.000000    0.699116    1.651658
      2          1           0        0.000000    0.000000    2.477487
      3          1           0        0.000000    0.000000    0.825829
      4          1           0       -0.000000   -0.699116    1.651658
      5          1           0       -0.000000    0.699116    0.000000
      6          1           0       -0.000000   -0.699116    0.000000
      7          1           0        0.000000   -0.000000   -0.825829
      8          1           0        0.000000    0.699116   -1.651658
      9          1           0       -0.000000   -0.699116   -1.651658
     10          1           0        0.000000   -0.000000   -2.477487
 ---------------------------------------------------------------------

 SCF Done:  E(RHF) =  -4.81478170925     A.U. after    9 cycles
 E2 =    -0.1079390803D+00 EUMP2 =    -0.49227207895025D+01

 The electronic state is 1-AG.
 Alpha  occ. eigenvalues --   -0.84280  -0.73168  -0.53479  -0.35119  -0.26582
 Alpha virt. eigenvalues --   -0.02575   0.20115   0.25877   0.54769   0.66351

 Mulliken charges:
               1
     1  H    0.246326
     2  H   -0.254362
     3  H   -0.278210
     4  H    0.246326
     5  H    0.039919
     6  H    0.039919
     7  H   -0.278210
     8  H    0.246326
     9  H    0.246326
    10  H   -0.254362
 Sum of Mulliken charges =  -0.00000

 Dipole moment (field-independent basis, Debye):
    X=             -0.0000    Y=              0.0000    Z=             -0.0000  Tot=              0.0000
 Quadrupole moment (field-independent basis, Debye-Ang):
   XX=            -12.8900   YY=            -11.6090   ZZ=            -19.9919
   XY=              0.0000   XZ=              0.0000   YZ=             -0.0000

 Normal termination of Gaussian 09 at Thu Feb  9 15:38:53 2017.
