 Gaussian 09, Revision E.01,
 Gaussian 09:  ES64L-G09RevE.01 30-Nov-2015

 ----------------------------------------------------------------------
 #rhf/gen scf(symm,tight,novaracc,noincfock,fulldiag) stable(crhf) geom
 =nocrowd test
 ----------------------------------------------------------------------

 hf stability analysis of h10 triangular lattice, y= 0.6935633555650045
 9
 ----------------------------------------------------------------------
 Symbolic Z-matrix:
 Charge =  0 Multiplicity = 1

                         Standard orientation:
 ---------------------------------------------------------------------
 Center     Atomic      Atomic             Coordinates (Angstroms)
 Number     Number       Type             X           Y           Z
 ---------------------------------------------------------------------
      1          1           0        0.000000    0.693563    1.664881
      2          1           0        0.000000    0.000000    2.497322
      3          1           0        0.000000    0.000000    0.832441
      4          1           0       -0.000000   -0.693563    1.664881
      5          1           0       -0.000000    0.693563    0.000000
      6          1           0       -0.000000   -0.693563    0.000000
      7          1           0        0.000000    0.000000   -0.832441
      8          1           0        0.000000    0.693563   -1.664881
      9          1           0       -0.000000   -0.693563   -1.664881
     10          1           0        0.000000    0.000000   -2.497322
 ---------------------------------------------------------------------

 SCF Done:  E(RHF) =  -4.81664442280     A.U. after    9 cycles
 E2 =    -0.1091231505D+00 EUMP2 =    -0.49257675732725D+01

 The electronic state is 1-AG.
 Alpha  occ. eigenvalues --   -0.84098  -0.73203  -0.53707  -0.34555  -0.26936
 Alpha virt. eigenvalues --   -0.02325   0.20079   0.25033   0.54290   0.67000

 Mulliken charges:
               1
     1  H    0.242037
     2  H   -0.246967
     3  H   -0.276490
     4  H    0.242037
     5  H    0.039384
     6  H    0.039384
     7  H   -0.276490
     8  H    0.242037
     9  H    0.242037
    10  H   -0.246967
 Sum of Mulliken charges =   0.00000

 Dipole moment (field-independent basis, Debye):
    X=             -0.0000    Y=             -0.0000    Z=              0.0000  Tot=              0.0000
 Quadrupole moment (field-independent basis, Debye-Ang):
   XX=            -12.9025   YY=            -11.7288   ZZ=            -19.7664
   XY=              0.0000   XZ=              0.0000   YZ=             -0.0000

 Normal termination of Gaussian 09 at Thu Feb  9 15:39:14 2017.
