 Gaussian 09, Revision E.01,
 Gaussian 09:  ES64L-G09RevE.01 30-Nov-2015

 ----------------------------------------------------------------------
 #rhf/gen scf(symm,tight,novaracc,noincfock,fulldiag) stable(crhf) geom
 =nocrowd test
 ----------------------------------------------------------------------

 hf stability analysis of h10 triangular lattice, y= 0.5918992783615676
 4
 ----------------------------------------------------------------------
 Symbolic Z-matrix:
 Charge =  0 Multiplicity = 1

                         Standard orientation:
 ---------------------------------------------------------------------
 Center     Atomic      Atomic             Coordinates (Angstroms)
 Number     Number       Type             X           Y           Z
 ---------------------------------------------------------------------
      1          1           0       -0.000000    0.591899    1.950840
      2          1           0       -0.000000    0.000000    2.926259
      3          1           0       -0.000000    0.000000    0.975420
      4          1           0       -0.000000   -0.591899    1.950840
      5          1           0       -0.000000    0.591899   -0.000000
      6          1           0       -0.000000   -0.591899    0.000000
      7          1           0        0.000000   -0.000000   -0.975420
      8          1           0        0.000000    0.591899   -1.950840
      9          1           0       -0.000000   -0.591899   -1.950840
     10          1           0        0.000000   -0.000000   -2.926259
 ---------------------------------------------------------------------

 SCF Done:  E(RHF) =  -4.77960426839     A.U. after    9 cycles
 E2 =    -0.1434018421D+00 EUMP2 =    -0.49230061105099D+01

 The electronic state is 1-AG.
 Alpha  occ. eigenvalues --   -0.79676  -0.72614  -0.56728  -0.31201  -0.22646
 Alpha virt. eigenvalues --    0.03664   0.10029   0.21074   0.39990   0.67119

 Mulliken charges:
               1
     1  H    0.145031
     2  H   -0.094178
     3  H   -0.200413
     4  H    0.145031
     5  H    0.004530
     6  H    0.004530
     7  H   -0.200413
     8  H    0.145031
     9  H    0.145031
    10  H   -0.094178
 Sum of Mulliken charges =   0.00000

 Dipole moment (field-independent basis, Debye):
    X=             -0.0000    Y=              0.0000    Z=             -0.0000  Tot=              0.0000
 Quadrupole moment (field-independent basis, Debye-Ang):
   XX=            -13.1341   YY=            -13.7822   ZZ=            -13.7638
   XY=              0.0000   XZ=              0.0000   YZ=             -0.0000

 Normal termination of Gaussian 09 at Thu Feb  9 15:46:42 2017.
