 Gaussian 09, Revision E.01,
 Gaussian 09:  ES64L-G09RevE.01 30-Nov-2015

 ----------------------------------------------------------------------
 #rhf/gen scf(symm,tight,novaracc,noincfock,fulldiag) stable(crhf) geom
 =nocrowd test
 ----------------------------------------------------------------------

 hf stability analysis of h10 triangular lattice, y= 0.5105718856905652
 2
 ----------------------------------------------------------------------
 Symbolic Z-matrix:
 Charge =  0 Multiplicity = 1

                         Standard orientation:
 ---------------------------------------------------------------------
 Center     Atomic      Atomic             Coordinates (Angstroms)
 Number     Number       Type             X           Y           Z
 ---------------------------------------------------------------------
      1          1           0       -0.000000    0.510572    2.261583
      2          1           0       -0.000000    0.000000    3.392374
      3          1           0       -0.000000    0.000000    1.130791
      4          1           0       -0.000000   -0.510572    2.261583
      5          1           0       -0.000000    0.510572    0.000000
      6          1           0       -0.000000   -0.510572    0.000000
      7          1           0        0.000000   -0.000000   -1.130791
      8          1           0        0.000000    0.510572   -2.261583
      9          1           0       -0.000000   -0.510572   -2.261583
     10          1           0        0.000000   -0.000000   -3.392374
 ---------------------------------------------------------------------

 SCF Done:  E(RHF) =  -4.80277347558     A.U. after    9 cycles
 E2 =    -0.9083884549D-01 EUMP2 =    -0.48936123210704D+01

 The electronic state is 1-AG.
 Alpha  occ. eigenvalues --   -0.78745  -0.72189  -0.62253  -0.34357  -0.17826
 Alpha virt. eigenvalues --    0.09193   0.15852   0.22552   0.22780   0.43618

 Mulliken charges:
               1
     1  H    0.243227
     2  H   -0.406829
     3  H   -0.213784
     4  H    0.243227
     5  H    0.134159
     6  H    0.134159
     7  H   -0.213784
     8  H    0.243227
     9  H    0.243227
    10  H   -0.406829
 Sum of Mulliken charges =  -0.00000

 Dipole moment (field-independent basis, Debye):
    X=             -0.0000    Y=              0.0000    Z=              0.0000  Tot=              0.0000
 Quadrupole moment (field-independent basis, Debye-Ang):
   XX=            -13.0133   YY=             -9.6803   ZZ=            -42.2885
   XY=              0.0000   XZ=              0.0000   YZ=             -0.0000

 Normal termination of Gaussian 09 at Thu Feb  9 15:52:43 2017.
