 Gaussian 09, Revision E.01,
 Gaussian 09:  ES64L-G09RevE.01 30-Nov-2015

 ----------------------------------------------------------------------
 #rhf/gen scf(symm,tight,novaracc,noincfock,fulldiag) stable(crhf) geom
 =nocrowd test
 ----------------------------------------------------------------------

 hf stability analysis of h10 triangular lattice, y= 0.6464765352057738
 6
 ----------------------------------------------------------------------
 Symbolic Z-matrix:
 Charge =  0 Multiplicity = 1

                         Standard orientation:
 ---------------------------------------------------------------------
 Center     Atomic      Atomic             Coordinates (Angstroms)
 Number     Number       Type             X           Y           Z
 ---------------------------------------------------------------------
      1          1           0       -0.000000    0.646477    1.786145
      2          1           0       -0.000000   -0.000000    2.679217
      3          1           0       -0.000000   -0.000000    0.893072
      4          1           0       -0.000000   -0.646477    1.786145
      5          1           0       -0.000000    0.646477    0.000000
      6          1           0       -0.000000   -0.646477   -0.000000
      7          1           0        0.000000    0.000000   -0.893072
      8          1           0        0.000000    0.646477   -1.786145
      9          1           0       -0.000000   -0.646477   -1.786145
     10          1           0        0.000000    0.000000   -2.679217
 ---------------------------------------------------------------------

 SCF Done:  E(RHF) =  -4.81714137655     A.U. after    9 cycles
 E2 =    -0.1216809869D+00 EUMP2 =    -0.49388223634739D+01

 The electronic state is 1-AG.
 Alpha  occ. eigenvalues --   -0.82311  -0.73229  -0.55389  -0.29458  -0.29440
 Alpha virt. eigenvalues --    0.00088   0.17913   0.20121   0.48834   0.70132

 Mulliken charges:
               1
     1  H    0.201298
     2  H   -0.180078
     3  H   -0.251627
     4  H    0.201298
     5  H    0.029110
     6  H    0.029110
     7  H   -0.251627
     8  H    0.201298
     9  H    0.201298
    10  H   -0.180078
 Sum of Mulliken charges =   0.00000

 Dipole moment (field-independent basis, Debye):
    X=             -0.0000    Y=             -0.0000    Z=              0.0000  Tot=              0.0000
 Quadrupole moment (field-independent basis, Debye-Ang):
   XX=            -13.0100   YY=            -12.7216   ZZ=            -17.4783
   XY=              0.0000   XZ=              0.0000   YZ=             -0.0000

 Normal termination of Gaussian 09 at Thu Feb  9 15:42:38 2017.
