 Gaussian 09, Revision E.01,
 Gaussian 09:  ES64L-G09RevE.01 30-Nov-2015

 ----------------------------------------------------------------------
 #rhf/gen scf(symm,tight,novaracc,noincfock,fulldiag) stable(crhf) geom
 =nocrowd test
 ----------------------------------------------------------------------

 hf stability analysis of h10 triangular lattice, y= 0.5359360320767665
 4
 ----------------------------------------------------------------------
 Symbolic Z-matrix:
 Charge =  0 Multiplicity = 1

                         Standard orientation:
 ---------------------------------------------------------------------
 Center     Atomic      Atomic             Coordinates (Angstroms)
 Number     Number       Type             X           Y           Z
 ---------------------------------------------------------------------
      1          1           0        0.000000    0.535936    2.154549
      2          1           0        0.000000   -0.000000    3.231824
      3          1           0        0.000000   -0.000000    1.077275
      4          1           0       -0.000000   -0.535936    2.154549
      5          1           0        0.000000    0.535936    0.000000
      6          1           0       -0.000000   -0.535936   -0.000000
      7          1           0        0.000000    0.000000   -1.077275
      8          1           0        0.000000    0.535936   -2.154549
      9          1           0       -0.000000   -0.535936   -2.154549
     10          1           0        0.000000    0.000000   -3.231824
 ---------------------------------------------------------------------

 SCF Done:  E(RHF) =  -4.73818727267     A.U. after    8 cycles
 E2 =    -0.8805700521D-01 EUMP2 =    -0.48262442778784D+01

 The electronic state is 1-AG.
 Alpha  occ. eigenvalues --   -0.79998  -0.72532  -0.61168  -0.34113  -0.15767
 Alpha virt. eigenvalues --    0.05730   0.13470   0.21256   0.27590   0.50304

 Mulliken charges:
               1
     1  H    0.267256
     2  H   -0.445560
     3  H   -0.240664
     4  H    0.267256
     5  H    0.151711
     6  H    0.151711
     7  H   -0.240664
     8  H    0.267256
     9  H    0.267256
    10  H   -0.445560
 Sum of Mulliken charges =  -0.00000

 Dipole moment (field-independent basis, Debye):
    X=             -0.0000    Y=              0.0000    Z=              0.0000  Tot=              0.0000
 Quadrupole moment (field-independent basis, Debye-Ang):
   XX=            -12.8767   YY=             -9.1448   ZZ=            -42.5586
   XY=              0.0000   XZ=              0.0000   YZ=             -0.0000

 Normal termination of Gaussian 09 at Thu Feb  9 15:50:51 2017.
