 Gaussian 09, Revision E.01,
 Gaussian 09:  ES64L-G09RevE.01 30-Nov-2015

 ----------------------------------------------------------------------
 #rhf/gen scf(symm,tight,novaracc,noincfock,fulldiag) stable(crhf) geom
 =nocrowd test
 ----------------------------------------------------------------------

 hf stability analysis of h10 triangular lattice, y= 0.6129048728160461
 1
 ----------------------------------------------------------------------
 Symbolic Z-matrix:
 Charge =  0 Multiplicity = 1

                         Standard orientation:
 ---------------------------------------------------------------------
 Center     Atomic      Atomic             Coordinates (Angstroms)
 Number     Number       Type             X           Y           Z
 ---------------------------------------------------------------------
      1          1           0        0.000000    0.612905    1.883980
      2          1           0        0.000000    0.000000    2.825970
      3          1           0        0.000000    0.000000    0.941990
      4          1           0       -0.000000   -0.612905    1.883980
      5          1           0       -0.000000    0.612905   -0.000000
      6          1           0       -0.000000   -0.612905   -0.000000
      7          1           0        0.000000   -0.000000   -0.941990
      8          1           0        0.000000    0.612905   -1.883980
      9          1           0       -0.000000   -0.612905   -1.883980
     10          1           0        0.000000   -0.000000   -2.825970
 ---------------------------------------------------------------------

 SCF Done:  E(RHF) =  -4.79934744779     A.U. after    9 cycles
 E2 =    -0.1339488775D+00 EUMP2 =    -0.49332963252707D+01

 The electronic state is 1-AG.
 Alpha  occ. eigenvalues --   -0.80760  -0.72934  -0.56295  -0.30687  -0.25384
 Alpha virt. eigenvalues --    0.02176   0.12993   0.20580   0.43641   0.69180

 Mulliken charges:
               1
     1  H    0.167736
     2  H   -0.128157
     3  H   -0.222844
     4  H    0.167736
     5  H    0.015528
     6  H    0.015528
     7  H   -0.222844
     8  H    0.167736
     9  H    0.167736
    10  H   -0.128157
 Sum of Mulliken charges =  -0.00000

 Dipole moment (field-independent basis, Debye):
    X=             -0.0000    Y=             -0.0000    Z=             -0.0000  Tot=              0.0000
 Quadrupole moment (field-independent basis, Debye-Ang):
   XX=            -13.0869   YY=            -13.3890   ZZ=            -15.3513
   XY=              0.0000   XZ=              0.0000   YZ=             -0.0000

 Normal termination of Gaussian 09 at Thu Feb  9 15:45:06 2017.
