 Gaussian 09, Revision E.01,
 Gaussian 09:  ES64L-G09RevE.01 30-Nov-2015

 ----------------------------------------------------------------------
 #rhf/gen scf(symm,tight,novaracc,noincfock,fulldiag) stable(crhf) geom
 =nocrowd test
 ----------------------------------------------------------------------

 hf stability analysis of h10 triangular lattice, y= 0.6637919948111299
 4
 ----------------------------------------------------------------------
 Symbolic Z-matrix:
 Charge =  0 Multiplicity = 1

                         Standard orientation:
 ---------------------------------------------------------------------
 Center     Atomic      Atomic             Coordinates (Angstroms)
 Number     Number       Type             X           Y           Z
 ---------------------------------------------------------------------
      1          1           0        0.000000    0.663792    1.739552
      2          1           0        0.000000    0.000000    2.609328
      3          1           0        0.000000    0.000000    0.869776
      4          1           0       -0.000000   -0.663792    1.739552
      5          1           0       -0.000000    0.663792    0.000000
      6          1           0       -0.000000   -0.663792   -0.000000
      7          1           0        0.000000   -0.000000   -0.869776
      8          1           0        0.000000    0.663792   -1.739552
      9          1           0       -0.000000   -0.663792   -1.739552
     10          1           0        0.000000   -0.000000   -2.609328
 ---------------------------------------------------------------------

 SCF Done:  E(RHF) =  -4.82023816756     A.U. after    9 cycles
 E2 =    -0.1165012801D+00 EUMP2 =    -0.49367394476776D+01

 The electronic state is 1-AG.
 Alpha  occ. eigenvalues --   -0.83020  -0.73278  -0.54823  -0.31393  -0.28635
 Alpha virt. eigenvalues --   -0.00864   0.20029   0.20514   0.51116   0.69530

 Mulliken charges:
               1
     1  H    0.217174
     2  H   -0.205530
     3  H   -0.262910
     4  H    0.217174
     5  H    0.034092
     6  H    0.034092
     7  H   -0.262910
     8  H    0.217174
     9  H    0.217174
    10  H   -0.205530
 Sum of Mulliken charges =  -0.00000

 Dipole moment (field-independent basis, Debye):
    X=             -0.0000    Y=              0.0000    Z=              0.0000  Tot=              0.0000
 Quadrupole moment (field-independent basis, Debye-Ang):
   XX=            -12.9703   YY=            -12.3625   ZZ=            -18.4042
   XY=              0.0000   XZ=              0.0000   YZ=             -0.0000

 Normal termination of Gaussian 09 at Thu Feb  9 15:41:22 2017.
