 Gaussian 09, Revision E.01,
 Gaussian 09:  ES64L-G09RevE.01 30-Nov-2015

 ----------------------------------------------------------------------
 #rhf/gen scf(symm,tight,novaracc,noincfock,fulldiag) stable(crhf) geom
 =nocrowd test
 ----------------------------------------------------------------------

 hf stability analysis of h10 triangular lattice, y= 0.6311000608084687
 0
 ----------------------------------------------------------------------
 Symbolic Z-matrix:
 Charge =  0 Multiplicity = 1

                         Standard orientation:
 ---------------------------------------------------------------------
 Center     Atomic      Atomic             Coordinates (Angstroms)
 Number     Number       Type             X           Y           Z
 ---------------------------------------------------------------------
      1          1           0       -0.000000    0.631100    1.829663
      2          1           0       -0.000000   -0.000000    2.744495
      3          1           0       -0.000000   -0.000000    0.914832
      4          1           0       -0.000000   -0.631100    1.829663
      5          1           0       -0.000000    0.631100    0.000000
      6          1           0       -0.000000   -0.631100   -0.000000
      7          1           0        0.000000    0.000000   -0.914832
      8          1           0        0.000000    0.631100   -1.829663
      9          1           0       -0.000000   -0.631100   -1.829663
     10          1           0        0.000000    0.000000   -2.744495
 ---------------------------------------------------------------------

 SCF Done:  E(RHF) =  -4.81099302714     A.U. after    9 cycles
 E2 =    -0.1269072318D+00 EUMP2 =    -0.49379002588985D+01

 The electronic state is 1-AG.
 Alpha  occ. eigenvalues --   -0.81629  -0.73127  -0.55836  -0.30082  -0.27629
 Alpha virt. eigenvalues --    0.01003   0.15636   0.20283   0.46570   0.70055

 Mulliken charges:
               1
     1  H    0.186365
     2  H   -0.156696
     3  H   -0.239555
     4  H    0.186365
     5  H    0.023520
     6  H    0.023520
     7  H   -0.239555
     8  H    0.186365
     9  H    0.186365
    10  H   -0.156696
 Sum of Mulliken charges =  -0.00000

 Dipole moment (field-independent basis, Debye):
    X=             -0.0000    Y=              0.0000    Z=              0.0000  Tot=              0.0000
 Quadrupole moment (field-independent basis, Debye-Ang):
   XX=            -13.0453   YY=            -13.0326   ZZ=            -16.5621
   XY=              0.0000   XZ=              0.0000   YZ=              0.0000

 Normal termination of Gaussian 09 at Thu Feb  9 15:43:46 2017.
