 Gaussian 09, Revision E.01,
 Gaussian 09:  ES64L-G09RevE.01 30-Nov-2015

 ----------------------------------------------------------------------
 #rhf/gen scf(symm,tight,novaracc,noincfock,fulldiag) stable(crhf) geom
 =nocrowd test
 ----------------------------------------------------------------------

 hf stability analysis of h10 triangular lattice, y= 0.5212297219651919
 1
 ----------------------------------------------------------------------
 Symbolic Z-matrix:
 Charge =  0 Multiplicity = 1

                         Standard orientation:
 ---------------------------------------------------------------------
 Center     Atomic      Atomic             Coordinates (Angstroms)
 Number     Number       Type             X           Y           Z
 ---------------------------------------------------------------------
      1          1           0       -0.000000    0.521230    2.215339
      2          1           0       -0.000000   -0.000000    3.323009
      3          1           0       -0.000000   -0.000000    1.107670
      4          1           0       -0.000000   -0.521230    2.215339
      5          1           0        0.000000    0.521230    0.000000
      6          1           0       -0.000000   -0.521230   -0.000000
      7          1           0        0.000000    0.000000   -1.107670
      8          1           0        0.000000    0.521230   -2.215339
      9          1           0       -0.000000   -0.521230   -2.215339
     10          1           0        0.000000    0.000000   -3.323009
 ---------------------------------------------------------------------

 SCF Done:  E(RHF) =  -4.77734368265     A.U. after    9 cycles
 E2 =    -0.8939412873D-01 EUMP2 =    -0.48667378113751D+01

 The electronic state is 1-AG.
 Alpha  occ. eigenvalues --   -0.79285  -0.72344  -0.61809  -0.34290  -0.16996
 Alpha virt. eigenvalues --    0.07707   0.14821   0.22102   0.24663   0.46500

 Mulliken charges:
               1
     1  H    0.253510
     2  H   -0.423429
     3  H   -0.225173
     4  H    0.253510
     5  H    0.141583
     6  H    0.141583
     7  H   -0.225173
     8  H    0.253510
     9  H    0.253510
    10  H   -0.423429
 Sum of Mulliken charges =  -0.00000

 Dipole moment (field-independent basis, Debye):
    X=             -0.0000    Y=             -0.0000    Z=              0.0000  Tot=              0.0000
 Quadrupole moment (field-independent basis, Debye-Ang):
   XX=            -12.9564   YY=             -9.4582   ZZ=            -42.4346
   XY=              0.0000   XZ=              0.0000   YZ=              0.0000

 Normal termination of Gaussian 09 at Thu Feb  9 15:51:56 2017.
