 Gaussian 09, Revision E.01,
 Gaussian 09:  ES64L-G09RevE.01 30-Nov-2015

 ----------------------------------------------------------------------
 #rhf/gen scf(symm,tight,novaracc,noincfock,fulldiag) stable(crhf) geom
 =nocrowd test
 ----------------------------------------------------------------------

 hf stability analysis of h10 triangular lattice, y= 0.6764630087144384
 3
 ----------------------------------------------------------------------
 Symbolic Z-matrix:
 Charge =  0 Multiplicity = 1

                         Standard orientation:
 ---------------------------------------------------------------------
 Center     Atomic      Atomic             Coordinates (Angstroms)
 Number     Number       Type             X           Y           Z
 ---------------------------------------------------------------------
      1          1           0       -0.000000    0.676463    1.706968
      2          1           0       -0.000000    0.000000    2.560452
      3          1           0       -0.000000    0.000000    0.853484
      4          1           0       -0.000000   -0.676463    1.706968
      5          1           0       -0.000000    0.676463   -0.000000
      6          1           0       -0.000000   -0.676463    0.000000
      7          1           0        0.000000   -0.000000   -0.853484
      8          1           0        0.000000    0.676463   -1.706968
      9          1           0       -0.000000   -0.676463   -1.706968
     10          1           0        0.000000   -0.000000   -2.560452
 ---------------------------------------------------------------------

 SCF Done:  E(RHF) =  -4.82005022128     A.U. after    8 cycles
 E2 =    -0.1131394149D+00 EUMP2 =    -0.49331896362170D+01

 The electronic state is 1-AG.
 Alpha  occ. eigenvalues --   -0.83501  -0.73270  -0.54370  -0.32767  -0.27955
 Alpha virt. eigenvalues --   -0.01511   0.20020   0.22433   0.52588   0.68664

 Mulliken charges:
               1
     1  H    0.228138
     2  H   -0.223533
     3  H   -0.269591
     4  H    0.228138
     5  H    0.036849
     6  H    0.036849
     7  H   -0.269591
     8  H    0.228138
     9  H    0.228138
    10  H   -0.223533
 Sum of Mulliken charges =   0.00000

 Dipole moment (field-independent basis, Debye):
    X=             -0.0000    Y=              0.0000    Z=              0.0000  Tot=              0.0000
 Quadrupole moment (field-independent basis, Debye-Ang):
   XX=            -12.9413   YY=            -12.0949   ZZ=            -19.0172
   XY=              0.0000   XZ=              0.0000   YZ=             -0.0000

 Normal termination of Gaussian 09 at Thu Feb  9 15:40:27 2017.
