 Gaussian 09, Revision E.01,
 Gaussian 09:  ES64L-G09RevE.01 30-Nov-2015

 ----------------------------------------------------------------------
 #rhf/gen scf(symm,tight,novaracc,noincfock,fulldiag) stable(crhf) geom
 =nocrowd test
 ----------------------------------------------------------------------

 hf stability analysis of h10 triangular lattice, y= 0.4331194750473593
 1
 ----------------------------------------------------------------------
 Symbolic Z-matrix:
 Charge =  0 Multiplicity = 1

                         Standard orientation:
 ---------------------------------------------------------------------
 Center     Atomic      Atomic             Coordinates (Angstroms)
 Number     Number       Type             X           Y           Z
 ---------------------------------------------------------------------
      1          1           0        0.000000    0.433119    2.666009
      2          1           0        0.000000    0.000000    3.999014
      3          1           0        0.000000    0.000000    1.333005
      4          1           0       -0.000000   -0.433119    2.666009
      5          1           0        0.000000    0.433119   -0.000000
      6          1           0       -0.000000   -0.433119   -0.000000
      7          1           0        0.000000    0.000000   -1.333005
      8          1           0        0.000000    0.433119   -2.666009
      9          1           0       -0.000000   -0.433119   -2.666009
     10          1           0        0.000000    0.000000   -3.999014
 ---------------------------------------------------------------------

 SCF Done:  E(RHF) =  -4.90386732009     A.U. after    8 cycles
 E2 =    -0.1172878080D+00 EUMP2 =    -0.50211551280687D+01

 The electronic state is 1-AG.
 Alpha  occ. eigenvalues --   -0.74524  -0.70789  -0.64980  -0.33288  -0.22285
 Alpha virt. eigenvalues --    0.08109   0.21411   0.21879   0.24929   0.29582

 Mulliken charges:
               1
     1  H    0.161154
     2  H   -0.273095
     3  H   -0.128713
     4  H    0.161154
     5  H    0.079500
     6  H    0.079500
     7  H   -0.128713
     8  H    0.161154
     9  H    0.161154
    10  H   -0.273095
 Sum of Mulliken charges =   0.00000

 Dipole moment (field-independent basis, Debye):
    X=             -0.0000    Y=             -0.0000    Z=             -0.0000  Tot=              0.0000
 Quadrupole moment (field-independent basis, Debye-Ang):
   XX=            -13.3826   YY=            -11.1326   ZZ=            -39.2813
   XY=              0.0000   XZ=              0.0000   YZ=              0.0000

 Normal termination of Gaussian 09 at Thu Feb  9 15:58:07 2017.
