 Gaussian 09, Revision E.01,
 Gaussian 09:  ES64L-G09RevE.01 30-Nov-2015

 ----------------------------------------------------------------------
 #rhf/gen scf(symm,tight,novaracc,noincfock,fulldiag) stable(crhf) geom
 =nocrowd test
 ----------------------------------------------------------------------

 hf stability analysis of h10 triangular lattice, y= 0.6316892759773332
 6
 ----------------------------------------------------------------------
 Symbolic Z-matrix:
 Charge =  0 Multiplicity = 1

                         Standard orientation:
 ---------------------------------------------------------------------
 Center     Atomic      Atomic             Coordinates (Angstroms)
 Number     Number       Type             X           Y           Z
 ---------------------------------------------------------------------
      1          1           0       -0.000000    0.631689    1.827957
      2          1           0       -0.000000    0.000000    2.741935
      3          1           0       -0.000000    0.000000    0.913978
      4          1           0       -0.000000   -0.631689    1.827957
      5          1           0       -0.000000    0.631689    0.000000
      6          1           0       -0.000000   -0.631689    0.000000
      7          1           0        0.000000   -0.000000   -0.913978
      8          1           0        0.000000    0.631689   -1.827957
      9          1           0       -0.000000   -0.631689   -1.827957
     10          1           0        0.000000   -0.000000   -2.741935
 ---------------------------------------------------------------------

 SCF Done:  E(RHF) =  -4.81128960010     A.U. after    9 cycles
 E2 =    -0.1266952853D+00 EUMP2 =    -0.49379848853651D+01

 The electronic state is 1-AG.
 Alpha  occ. eigenvalues --   -0.81656  -0.73132  -0.55820  -0.30060  -0.27700
 Alpha virt. eigenvalues --    0.00966   0.15722   0.20276   0.46660   0.70069

 Mulliken charges:
               1
     1  H    0.186951
     2  H   -0.157605
     3  H   -0.240052
     4  H    0.186951
     5  H    0.023754
     6  H    0.023754
     7  H   -0.240052
     8  H    0.186951
     9  H    0.186951
    10  H   -0.157605
 Sum of Mulliken charges =   0.00000

 Dipole moment (field-independent basis, Debye):
    X=             -0.0000    Y=              0.0000    Z=              0.0000  Tot=              0.0000
 Quadrupole moment (field-independent basis, Debye-Ang):
   XX=            -13.0440   YY=            -13.0208   ZZ=            -16.5990
   XY=              0.0000   XZ=              0.0000   YZ=              0.0000

 Normal termination of Gaussian 09 at Thu Feb  9 15:43:43 2017.
