 Gaussian 09, Revision E.01,
 Gaussian 09:  ES64L-G09RevE.01 30-Nov-2015

 ----------------------------------------------------------------------
 #rhf/gen scf(symm,tight,novaracc,noincfock,fulldiag) stable(crhf) geom
 =nocrowd test
 ----------------------------------------------------------------------

 hf stability analysis of h10 triangular lattice, y= 0.3271170287955045
 3
 ----------------------------------------------------------------------
 Symbolic Z-matrix:
 Charge =  0 Multiplicity = 1

                         Standard orientation:
 ---------------------------------------------------------------------
 Center     Atomic      Atomic             Coordinates (Angstroms)
 Number     Number       Type             X           Y           Z
 ---------------------------------------------------------------------
      1          1           0        0.000000    0.327117    3.529931
      2          1           0        0.000000   -0.000000    5.294896
      3          1           0        0.000000   -0.000000    1.764965
      4          1           0       -0.000000   -0.327117    3.529931
      5          1           0       -0.000000    0.327117    0.000000
      6          1           0       -0.000000   -0.327117   -0.000000
      7          1           0        0.000000    0.000000   -1.764965
      8          1           0        0.000000    0.327117   -3.529931
      9          1           0       -0.000000   -0.327117   -3.529931
     10          1           0        0.000000    0.000000   -5.294896
 ---------------------------------------------------------------------

 SCF Done:  E(RHF) =  -4.76177996654     A.U. after   10 cycles
 E2 =    -0.2582646256D+00 EUMP2 =    -0.50200445921269D+01

 The electronic state is 1-AG.
 Alpha  occ. eigenvalues --   -0.70323  -0.69602  -0.67929  -0.28554  -0.24429
 Alpha virt. eigenvalues --   -0.06635  -0.01975   0.42441   0.43198   0.45240

 Mulliken charges:
               1
     1  H    0.044050
     2  H   -0.082271
     3  H   -0.020112
     4  H    0.044050
     5  H    0.014283
     6  H    0.014283
     7  H   -0.020112
     8  H    0.044050
     9  H    0.044050
    10  H   -0.082271
 Sum of Mulliken charges =   0.00000

 Dipole moment (field-independent basis, Debye):
    X=             -0.0000    Y=              0.0000    Z=              0.0000  Tot=              0.0000
 Quadrupole moment (field-independent basis, Debye-Ang):
   XX=            -13.6114   YY=            -12.4493   ZZ=            -27.4985
   XY=              0.0000   XZ=              0.0000   YZ=              0.0000

 Normal termination of Gaussian 09 at Thu Feb  9 16:03:45 2017.
