 Gaussian 09, Revision E.01,
 Gaussian 09:  ES64L-G09RevE.01 30-Nov-2015

 ----------------------------------------------------------------------
 #rhf/gen scf(symm,tight,novaracc,noincfock,fulldiag) stable(crhf) geom
 =nocrowd test
 ----------------------------------------------------------------------

 hf stability analysis of h10 triangular lattice, y= 0.6661962787628841
 2
 ----------------------------------------------------------------------
 Symbolic Z-matrix:
 Charge =  0 Multiplicity = 1

                         Standard orientation:
 ---------------------------------------------------------------------
 Center     Atomic      Atomic             Coordinates (Angstroms)
 Number     Number       Type             X           Y           Z
 ---------------------------------------------------------------------
      1          1           0        0.000000    0.666196    1.733274
      2          1           0        0.000000   -0.000000    2.599911
      3          1           0        0.000000   -0.000000    0.866637
      4          1           0       -0.000000   -0.666196    1.733274
      5          1           0       -0.000000    0.666196    0.000000
      6          1           0       -0.000000   -0.666196   -0.000000
      7          1           0        0.000000    0.000000   -0.866637
      8          1           0        0.000000    0.666196   -1.733274
      9          1           0       -0.000000   -0.666196   -1.733274
     10          1           0        0.000000    0.000000   -2.599911
 ---------------------------------------------------------------------

 SCF Done:  E(RHF) =  -4.82035897775     A.U. after    8 cycles
 E2 =    -0.1158366992D+00 EUMP2 =    -0.49361956769210D+01

 The electronic state is 1-AG.
 Alpha  occ. eigenvalues --   -0.83114  -0.73279  -0.54740  -0.31657  -0.28511
 Alpha virt. eigenvalues --   -0.00990   0.20024   0.20877   0.51409   0.69392

 Mulliken charges:
               1
     1  H    0.219297
     2  H   -0.208988
     3  H   -0.264280
     4  H    0.219297
     5  H    0.034673
     6  H    0.034673
     7  H   -0.264280
     8  H    0.219297
     9  H    0.219297
    10  H   -0.208988
 Sum of Mulliken charges =  -0.00000

 Dipole moment (field-independent basis, Debye):
    X=             -0.0000    Y=              0.0000    Z=             -0.0000  Tot=              0.0000
 Quadrupole moment (field-independent basis, Debye-Ang):
   XX=            -12.9648   YY=            -12.3120   ZZ=            -18.5245
   XY=              0.0000   XZ=              0.0000   YZ=             -0.0000

 Normal termination of Gaussian 09 at Thu Feb  9 15:41:12 2017.
