 Gaussian 09, Revision E.01,
 Gaussian 09:  ES64L-G09RevE.01 30-Nov-2015

 ----------------------------------------------------------------------
 #rhf/gen scf(symm,tight,novaracc,noincfock,fulldiag) stable(crhf) geom
 =nocrowd test
 ----------------------------------------------------------------------

 hf stability analysis of h10 triangular lattice, y= 0.2594462123241886
 3
 ----------------------------------------------------------------------
 Symbolic Z-matrix:
 Charge =  0 Multiplicity = 1

                         Standard orientation:
 ---------------------------------------------------------------------
 Center     Atomic      Atomic             Coordinates (Angstroms)
 Number     Number       Type             X           Y           Z
 ---------------------------------------------------------------------
      1          1           0       -0.000000    0.259446    4.450636
      2          1           0        0.000000    0.000000    6.675953
      3          1           0        0.000000    0.000000    2.225318
      4          1           0       -0.000000   -0.259446    4.450636
      5          1           0       -0.000000    0.259446    0.000000
      6          1           0       -0.000000   -0.259446   -0.000000
      7          1           0        0.000000    0.000000   -2.225318
      8          1           0        0.000000    0.259446   -4.450636
      9          1           0       -0.000000   -0.259446   -4.450636
     10          1           0        0.000000    0.000000   -6.675953
 ---------------------------------------------------------------------

 SCF Done:  E(RHF) =  -4.43441165329     A.U. after   11 cycles
 E2 =    -0.4887831587D+00 EUMP2 =    -0.49231948119516D+01

 The electronic state is 1-AG.
 Alpha  occ. eigenvalues --   -0.71342  -0.71228  -0.70914  -0.25473  -0.24159
 Alpha virt. eigenvalues --   -0.11811  -0.10416   0.57917   0.58079   0.58622

 Mulliken charges:
               1
     1  H    0.003113
     2  H   -0.013117
     3  H    0.008129
     4  H    0.003113
     5  H   -0.001238
     6  H   -0.001238
     7  H    0.008129
     8  H    0.003113
     9  H    0.003113
    10  H   -0.013117
 Sum of Mulliken charges =  -0.00000

 Dipole moment (field-independent basis, Debye):
    X=             -0.0000    Y=              0.0000    Z=              0.0000  Tot=              0.0000
 Quadrupole moment (field-independent basis, Debye-Ang):
   XX=            -13.5853   YY=            -12.8650   ZZ=            -18.6016
   XY=              0.0000   XZ=              0.0000   YZ=             -0.0000

 Normal termination of Gaussian 09 at Thu Feb  9 16:06:18 2017.
