 Gaussian 09, Revision E.01,
 Gaussian 09:  ES64L-G09RevE.01 30-Nov-2015

 ----------------------------------------------------------------------
 #rhf/gen scf(symm,tight,novaracc,noincfock,fulldiag) stable(crhf) geom
 =nocrowd test
 ----------------------------------------------------------------------

 hf stability analysis of h10 triangular lattice, y= 0.6181745873441064
 6
 ----------------------------------------------------------------------
 Symbolic Z-matrix:
 Charge =  0 Multiplicity = 1

                         Standard orientation:
 ---------------------------------------------------------------------
 Center     Atomic      Atomic             Coordinates (Angstroms)
 Number     Number       Type             X           Y           Z
 ---------------------------------------------------------------------
      1          1           0        0.000000    0.618175    1.867920
      2          1           0       -0.000000    0.000000    2.801880
      3          1           0       -0.000000    0.000000    0.933960
      4          1           0       -0.000000   -0.618175    1.867920
      5          1           0       -0.000000    0.618175    0.000000
      6          1           0       -0.000000   -0.618175    0.000000
      7          1           0        0.000000   -0.000000   -0.933960
      8          1           0        0.000000    0.618175   -1.867920
      9          1           0       -0.000000   -0.618175   -1.867920
     10          1           0        0.000000   -0.000000   -2.801880
 ---------------------------------------------------------------------

 SCF Done:  E(RHF) =  -4.80322408833     A.U. after    9 cycles
 E2 =    -0.1318071677D+00 EUMP2 =    -0.49350312560436D+01

 The electronic state is 1-AG.
 Alpha  occ. eigenvalues --   -0.81018  -0.72998  -0.56170  -0.30527  -0.26046
 Alpha virt. eigenvalues --    0.01826   0.13752   0.20482   0.44514   0.69521

 Mulliken charges:
               1
     1  H    0.173235
     2  H   -0.136513
     3  H   -0.227949
     4  H    0.173235
     5  H    0.017993
     6  H    0.017993
     7  H   -0.227949
     8  H    0.173235
     9  H    0.173235
    10  H   -0.136513
 Sum of Mulliken charges =   0.00000

 Dipole moment (field-independent basis, Debye):
    X=             -0.0000    Y=             -0.0000    Z=              0.0000  Tot=              0.0000
 Quadrupole moment (field-independent basis, Debye-Ang):
   XX=            -13.0749   YY=            -13.2872   ZZ=            -15.7169
   XY=              0.0000   XZ=              0.0000   YZ=             -0.0000

 Normal termination of Gaussian 09 at Thu Feb  9 15:44:43 2017.
