 Gaussian 09, Revision E.01,
 Gaussian 09:  ES64L-G09RevE.01 30-Nov-2015

 ----------------------------------------------------------------------
 #rhf/gen scf(symm,tight,novaracc,noincfock,fulldiag) stable(crhf) geom
 =nocrowd test
 ----------------------------------------------------------------------

 hf stability analysis of h10 triangular lattice, y= 0.4980454386758799
 1
 ----------------------------------------------------------------------
 Symbolic Z-matrix:
 Charge =  0 Multiplicity = 1

                         Standard orientation:
 ---------------------------------------------------------------------
 Center     Atomic      Atomic             Coordinates (Angstroms)
 Number     Number       Type             X           Y           Z
 ---------------------------------------------------------------------
      1          1           0        0.000000    0.498045    2.318464
      2          1           0        0.000000    0.000000    3.477696
      3          1           0        0.000000    0.000000    1.159232
      4          1           0       -0.000000   -0.498045    2.318464
      5          1           0        0.000000    0.498045    0.000000
      6          1           0       -0.000000   -0.498045    0.000000
      7          1           0        0.000000   -0.000000   -1.159232
      8          1           0        0.000000    0.498045   -2.318464
      9          1           0       -0.000000   -0.498045   -2.318464
     10          1           0        0.000000   -0.000000   -3.477696
 ---------------------------------------------------------------------

 SCF Done:  E(RHF) =  -4.82934138094     A.U. after    9 cycles
 E2 =    -0.9308637008D-01 EUMP2 =    -0.49224277510168D+01

 The electronic state is 1-AG.
 Alpha  occ. eigenvalues --   -0.78091  -0.71989  -0.62754  -0.34368  -0.18733
 Alpha virt. eigenvalues --    0.10998   0.17125   0.20092   0.23650   0.40138

 Mulliken charges:
               1
     1  H    0.230806
     2  H   -0.386724
     3  H   -0.200258
     4  H    0.230806
     5  H    0.125370
     6  H    0.125370
     7  H   -0.200258
     8  H    0.230806
     9  H    0.230806
    10  H   -0.386724
 Sum of Mulliken charges =  -0.00000

 Dipole moment (field-independent basis, Debye):
    X=             -0.0000    Y=             -0.0000    Z=              0.0000  Tot=              0.0000
 Quadrupole moment (field-independent basis, Debye-Ang):
   XX=            -13.0790   YY=             -9.9355   ZZ=            -42.0490
   XY=              0.0000   XZ=              0.0000   YZ=             -0.0000

 Normal termination of Gaussian 09 at Thu Feb  9 15:53:37 2017.
