 Gaussian 09, Revision E.01,
 Gaussian 09:  ES64L-G09RevE.01 30-Nov-2015

 ----------------------------------------------------------------------
 #rhf/gen scf(symm,tight,novaracc,noincfock,fulldiag) stable(crhf) geom
 =nocrowd test
 ----------------------------------------------------------------------

 hf stability analysis of h10 triangular lattice, y= 0.4974461268811649
 1
 ----------------------------------------------------------------------
 Symbolic Z-matrix:
 Charge =  0 Multiplicity = 1

                         Standard orientation:
 ---------------------------------------------------------------------
 Center     Atomic      Atomic             Coordinates (Angstroms)
 Number     Number       Type             X           Y           Z
 ---------------------------------------------------------------------
      1          1           0        0.000000    0.497446    2.321257
      2          1           0        0.000000   -0.000000    3.481886
      3          1           0        0.000000   -0.000000    1.160629
      4          1           0       -0.000000   -0.497446    2.321257
      5          1           0       -0.000000    0.497446    0.000000
      6          1           0       -0.000000   -0.497446   -0.000000
      7          1           0        0.000000    0.000000   -1.160629
      8          1           0        0.000000    0.497446   -2.321257
      9          1           0       -0.000000   -0.497446   -2.321257
     10          1           0        0.000000    0.000000   -3.481886
 ---------------------------------------------------------------------

 SCF Done:  E(RHF) =  -4.83051999090     A.U. after    9 cycles
 E2 =    -0.9320965450D-01 EUMP2 =    -0.49237296454033D+01

 The electronic state is 1-AG.
 Alpha  occ. eigenvalues --   -0.78060  -0.71979  -0.62777  -0.34366  -0.18775
 Alpha virt. eigenvalues --    0.11086   0.17188   0.19975   0.23694   0.39970

 Mulliken charges:
               1
     1  H    0.230203
     2  H   -0.385746
     3  H   -0.199608
     4  H    0.230203
     5  H    0.124948
     6  H    0.124948
     7  H   -0.199608
     8  H    0.230203
     9  H    0.230203
    10  H   -0.385746
 Sum of Mulliken charges =   0.00000

 Dipole moment (field-independent basis, Debye):
    X=             -0.0000    Y=              0.0000    Z=              0.0000  Tot=              0.0000
 Quadrupole moment (field-independent basis, Debye-Ang):
   XX=            -13.0821   YY=             -9.9476   ZZ=            -42.0355
   XY=              0.0000   XZ=              0.0000   YZ=              0.0000

 Normal termination of Gaussian 09 at Thu Feb  9 15:53:40 2017.
