 Gaussian 09, Revision E.01,
 Gaussian 09:  ES64L-G09RevE.01 30-Nov-2015

 ----------------------------------------------------------------------
 #rhf/gen scf(symm,tight,novaracc,noincfock,fulldiag) stable(crhf) geom
 =nocrowd test
 ----------------------------------------------------------------------

 hf stability analysis of h10 triangular lattice, y= 0.6722257167963117
 1
 ----------------------------------------------------------------------
 Symbolic Z-matrix:
 Charge =  0 Multiplicity = 1

                         Standard orientation:
 ---------------------------------------------------------------------
 Center     Atomic      Atomic             Coordinates (Angstroms)
 Number     Number       Type             X           Y           Z
 ---------------------------------------------------------------------
      1          1           0       -0.000000    0.672226    1.717727
      2          1           0       -0.000000   -0.000000    2.576591
      3          1           0       -0.000000   -0.000000    0.858864
      4          1           0       -0.000000   -0.672226    1.717727
      5          1           0       -0.000000    0.672226    0.000000
      6          1           0       -0.000000   -0.672226   -0.000000
      7          1           0        0.000000    0.000000   -0.858864
      8          1           0        0.000000    0.672226   -1.717727
      9          1           0       -0.000000   -0.672226   -1.717727
     10          1           0        0.000000    0.000000   -2.576591
 ---------------------------------------------------------------------

 SCF Done:  E(RHF) =  -4.82033837786     A.U. after    8 cycles
 E2 =    -0.1142255080D+00 EUMP2 =    -0.49345638858235D+01

 The electronic state is 1-AG.
 Alpha  occ. eigenvalues --   -0.83344  -0.73277  -0.54525  -0.32312  -0.28189
 Alpha virt. eigenvalues --   -0.01299   0.20018   0.21790   0.52116   0.68991

 Mulliken charges:
               1
     1  H    0.224534
     2  H   -0.217573
     3  H   -0.267506
     4  H    0.224534
     5  H    0.036011
     6  H    0.036011
     7  H   -0.267506
     8  H    0.224534
     9  H    0.224534
    10  H   -0.217573
 Sum of Mulliken charges =  -0.00000

 Dipole moment (field-independent basis, Debye):
    X=             -0.0000    Y=              0.0000    Z=             -0.0000  Tot=              0.0000
 Quadrupole moment (field-independent basis, Debye-Ang):
   XX=            -12.9510   YY=            -12.1848   ZZ=            -18.8179
   XY=              0.0000   XZ=              0.0000   YZ=              0.0000

 Normal termination of Gaussian 09 at Thu Feb  9 15:40:46 2017.
