 Gaussian 09, Revision E.01,
 Gaussian 09:  ES64L-G09RevE.01 30-Nov-2015

 ----------------------------------------------------------------------
 #rhf/gen scf(symm,tight,novaracc,noincfock,fulldiag) stable(crhf) geom
 =nocrowd test
 ----------------------------------------------------------------------

 hf stability analysis of h10 triangular lattice, y= 0.5953940864401909
 8
 ----------------------------------------------------------------------
 Symbolic Z-matrix:
 Charge =  0 Multiplicity = 1

                         Standard orientation:
 ---------------------------------------------------------------------
 Center     Atomic      Atomic             Coordinates (Angstroms)
 Number     Number       Type             X           Y           Z
 ---------------------------------------------------------------------
      1          1           0        0.000000    0.595394    1.939389
      2          1           0        0.000000    0.000000    2.909083
      3          1           0        0.000000    0.000000    0.969694
      4          1           0       -0.000000   -0.595394    1.939389
      5          1           0       -0.000000    0.595394   -0.000000
      6          1           0       -0.000000   -0.595394    0.000000
      7          1           0        0.000000   -0.000000   -0.969694
      8          1           0        0.000000    0.595394   -1.939389
      9          1           0       -0.000000   -0.595394   -1.939389
     10          1           0        0.000000   -0.000000   -2.909083
 ---------------------------------------------------------------------

 SCF Done:  E(RHF) =  -4.78337912102     A.U. after    9 cycles
 E2 =    -0.1417213840D+00 EUMP2 =    -0.49251005050211D+01

 The electronic state is 1-AG.
 Alpha  occ. eigenvalues --   -0.79862  -0.72675  -0.56663  -0.31129  -0.23113
 Alpha virt. eigenvalues --    0.03406   0.10515   0.20980   0.40615   0.67538

 Mulliken charges:
               1
     1  H    0.148893
     2  H   -0.099900
     3  H   -0.204372
     4  H    0.148893
     5  H    0.006487
     6  H    0.006487
     7  H   -0.204372
     8  H    0.148893
     9  H    0.148893
    10  H   -0.099900
 Sum of Mulliken charges =  -0.00000

 Dipole moment (field-independent basis, Debye):
    X=             -0.0000    Y=              0.0000    Z=             -0.0000  Tot=              0.0000
 Quadrupole moment (field-independent basis, Debye-Ang):
   XX=            -13.1263   YY=            -13.7183   ZZ=            -14.0430
   XY=              0.0000   XZ=              0.0000   YZ=             -0.0000

 Normal termination of Gaussian 09 at Thu Feb  9 15:46:26 2017.
