 Gaussian 09, Revision E.01,
 Gaussian 09:  ES64L-G09RevE.01 30-Nov-2015

 ----------------------------------------------------------------------
 #rhf/gen scf(symm,tight,novaracc,noincfock,fulldiag) stable(crhf) geom
 =nocrowd test
 ----------------------------------------------------------------------

 hf stability analysis of h10 triangular lattice, y= 0.4122176972190069
 7
 ----------------------------------------------------------------------
 Symbolic Z-matrix:
 Charge =  0 Multiplicity = 1

                         Standard orientation:
 ---------------------------------------------------------------------
 Center     Atomic      Atomic             Coordinates (Angstroms)
 Number     Number       Type             X           Y           Z
 ---------------------------------------------------------------------
      1          1           0        0.000000    0.412218    2.801191
      2          1           0        0.000000    0.000000    4.201787
      3          1           0        0.000000    0.000000    1.400596
      4          1           0       -0.000000   -0.412218    2.801191
      5          1           0       -0.000000    0.412218    0.000000
      6          1           0       -0.000000   -0.412218   -0.000000
      7          1           0        0.000000   -0.000000   -1.400596
      8          1           0        0.000000    0.412218   -2.801191
      9          1           0       -0.000000   -0.412218   -2.801191
     10          1           0        0.000000   -0.000000   -4.201787
 ---------------------------------------------------------------------

 SCF Done:  E(RHF) =  -4.90335082954     A.U. after    8 cycles
 E2 =    -0.1315755575D+00 EUMP2 =    -0.50349263870266D+01

 The electronic state is 1-AG.
 Alpha  occ. eigenvalues --   -0.73409  -0.70408  -0.65584  -0.32567  -0.23035
 Alpha virt. eigenvalues --    0.04648   0.16356   0.25156   0.27944   0.32060

 Mulliken charges:
               1
     1  H    0.137270
     2  H   -0.233980
     3  H   -0.105503
     4  H    0.137270
     5  H    0.064945
     6  H    0.064945
     7  H   -0.105503
     8  H    0.137270
     9  H    0.137270
    10  H   -0.233980
 Sum of Mulliken charges =   0.00000

 Dipole moment (field-independent basis, Debye):
    X=             -0.0000    Y=              0.0000    Z=             -0.0000  Tot=              0.0000
 Quadrupole moment (field-independent basis, Debye-Ang):
   XX=            -13.4599   YY=            -11.4630   ZZ=            -37.7029
   XY=              0.0000   XZ=              0.0000   YZ=              0.0000

 Normal termination of Gaussian 09 at Thu Feb  9 15:59:28 2017.
