 Gaussian 09, Revision E.01,
 Gaussian 09:  ES64L-G09RevE.01 30-Nov-2015

 ----------------------------------------------------------------------
 #rhf/gen scf(symm,tight,novaracc,noincfock,fulldiag) stable(crhf) geom
 =nocrowd test
 ----------------------------------------------------------------------

 hf stability analysis of h10 triangular lattice, y= 0.6886514910976759
 8
 ----------------------------------------------------------------------
 Symbolic Z-matrix:
 Charge =  0 Multiplicity = 1

                         Standard orientation:
 ---------------------------------------------------------------------
 Center     Atomic      Atomic             Coordinates (Angstroms)
 Number     Number       Type             X           Y           Z
 ---------------------------------------------------------------------
      1          1           0       -0.000000    0.688651    1.676756
      2          1           0       -0.000000   -0.000000    2.515134
      3          1           0       -0.000000   -0.000000    0.838378
      4          1           0       -0.000000   -0.688651    1.676756
      5          1           0       -0.000000    0.688651    0.000000
      6          1           0       -0.000000   -0.688651    0.000000
      7          1           0        0.000000    0.000000   -0.838378
      8          1           0        0.000000    0.688651   -1.676756
      9          1           0       -0.000000   -0.688651   -1.676756
     10          1           0        0.000000    0.000000   -2.515134
 ---------------------------------------------------------------------

 SCF Done:  E(RHF) =  -4.81798581947     A.U. after    9 cycles
 E2 =    -0.1102184991D+00 EUMP2 =    -0.49282043185684D+01

 The electronic state is 1-AG.
 Alpha  occ. eigenvalues --   -0.83933  -0.73229  -0.53903  -0.34049  -0.27240
 Alpha virt. eigenvalues --   -0.02098   0.20054   0.24286   0.53835   0.67531

 Mulliken charges:
               1
     1  H    0.238151
     2  H   -0.240339
     3  H   -0.274756
     4  H    0.238151
     5  H    0.038794
     6  H    0.038794
     7  H   -0.274756
     8  H    0.238151
     9  H    0.238151
    10  H   -0.240339
 Sum of Mulliken charges =   0.00000

 Dipole moment (field-independent basis, Debye):
    X=             -0.0000    Y=              0.0000    Z=              0.0000  Tot=              0.0000
 Quadrupole moment (field-independent basis, Debye-Ang):
   XX=            -12.9136   YY=            -11.8345   ZZ=            -19.5598
   XY=              0.0000   XZ=              0.0000   YZ=             -0.0000

 Normal termination of Gaussian 09 at Thu Feb  9 15:39:35 2017.
