 Gaussian 09, Revision E.01,
 Gaussian 09:  ES64L-G09RevE.01 30-Nov-2015

 ----------------------------------------------------------------------
 #rhf/gen scf(symm,tight,novaracc,noincfock,fulldiag) stable(crhf) geom
 =nocrowd test
 ----------------------------------------------------------------------

 hf stability analysis of h10 triangular lattice, y= 0.6023899333857780
 6
 ----------------------------------------------------------------------
 Symbolic Z-matrix:
 Charge =  0 Multiplicity = 1

                         Standard orientation:
 ---------------------------------------------------------------------
 Center     Atomic      Atomic             Coordinates (Angstroms)
 Number     Number       Type             X           Y           Z
 ---------------------------------------------------------------------
      1          1           0       -0.000000    0.602390    1.916866
      2          1           0       -0.000000    0.000000    2.875298
      3          1           0       -0.000000    0.000000    0.958433
      4          1           0       -0.000000   -0.602390    1.916866
      5          1           0       -0.000000    0.602390    0.000000
      6          1           0       -0.000000   -0.602390    0.000000
      7          1           0        0.000000    0.000000   -0.958433
      8          1           0        0.000000    0.602390   -1.916866
      9          1           0       -0.000000   -0.602390   -1.916866
     10          1           0        0.000000    0.000000   -2.875298
 ---------------------------------------------------------------------

 SCF Done:  E(RHF) =  -4.79033964329     A.U. after    9 cycles
 E2 =    -0.1384902179D+00 EUMP2 =    -0.49288298611830D+01

 The electronic state is 1-AG.
 Alpha  occ. eigenvalues --   -0.80228  -0.72787  -0.56525  -0.30969  -0.24034
 Alpha virt. eigenvalues --    0.02902   0.11497   0.20807   0.41845   0.68286

 Mulliken charges:
               1
     1  H    0.156524
     2  H   -0.111275
     3  H   -0.212027
     4  H    0.156524
     5  H    0.010253
     6  H    0.010253
     7  H   -0.212027
     8  H    0.156524
     9  H    0.156524
    10  H   -0.111275
 Sum of Mulliken charges =  -0.00000

 Dipole moment (field-independent basis, Debye):
    X=             -0.0000    Y=             -0.0000    Z=             -0.0000  Tot=              0.0000
 Quadrupole moment (field-independent basis, Debye-Ang):
   XX=            -13.1106   YY=            -13.5885   ZZ=            -14.5834
   XY=              0.0000   XZ=              0.0000   YZ=             -0.0000

 Normal termination of Gaussian 09 at Thu Feb  9 15:45:54 2017.
