 Gaussian 09, Revision E.01,
 Gaussian 09:  ES64L-G09RevE.01 30-Nov-2015

 ----------------------------------------------------------------------
 #rhf/gen scf(symm,tight,novaracc,noincfock,fulldiag) stable(crhf) geom
 =nocrowd test
 ----------------------------------------------------------------------

 hf stability analysis of h10 triangular lattice, y= 0.5697865341258980
 8
 ----------------------------------------------------------------------
 Symbolic Z-matrix:
 Charge =  0 Multiplicity = 1

                         Standard orientation:
 ---------------------------------------------------------------------
 Center     Atomic      Atomic             Coordinates (Angstroms)
 Number     Number       Type             X           Y           Z
 ---------------------------------------------------------------------
      1          1           0        0.000000    0.569787    2.026549
      2          1           0        0.000000    0.000000    3.039824
      3          1           0        0.000000    0.000000    1.013275
      4          1           0       -0.000000   -0.569787    2.026549
      5          1           0        0.000000    0.569787   -0.000000
      6          1           0       -0.000000   -0.569787   -0.000000
      7          1           0        0.000000    0.000000   -1.013275
      8          1           0        0.000000    0.569787   -2.026549
      9          1           0       -0.000000   -0.569787   -2.026549
     10          1           0        0.000000    0.000000   -3.039824
 ---------------------------------------------------------------------

 SCF Done:  E(RHF) =  -4.75091106148     A.U. after    9 cycles
 E2 =    -0.1551551657D+00 EUMP2 =    -0.49060662271705D+01

 The electronic state is 1-AG.
 Alpha  occ. eigenvalues --   -0.78446  -0.72166  -0.57068  -0.31527  -0.19579
 Alpha virt. eigenvalues --    0.05398   0.07027   0.21783   0.35920   0.63816

 Mulliken charges:
               1
     1  H    0.119866
     2  H   -0.057430
     3  H   -0.173337
     4  H    0.119866
     5  H   -0.008966
     6  H   -0.008966
     7  H   -0.173337
     8  H    0.119866
     9  H    0.119866
    10  H   -0.057430
 Sum of Mulliken charges =   0.00000

 Dipole moment (field-independent basis, Debye):
    X=             -0.0000    Y=             -0.0000    Z=              0.0000  Tot=              0.0000
 Quadrupole moment (field-independent basis, Debye-Ang):
   XX=            -13.1823   YY=            -14.1718   ZZ=            -11.8472
   XY=             -0.0000   XZ=              0.0000   YZ=             -0.0000

 Normal termination of Gaussian 09 at Thu Feb  9 15:48:22 2017.
