 Gaussian 09, Revision E.01,
 Gaussian 09:  ES64L-G09RevE.01 30-Nov-2015

 ----------------------------------------------------------------------
 #rhf/gen scf(symm,tight,novaracc,noincfock,fulldiag) stable(crhf) geom
 =nocrowd test
 ----------------------------------------------------------------------

 hf stability analysis of h10 triangular lattice, y= 0.3495612859575800
 1
 ----------------------------------------------------------------------
 Symbolic Z-matrix:
 Charge =  0 Multiplicity = 1

                         Standard orientation:
 ---------------------------------------------------------------------
 Center     Atomic      Atomic             Coordinates (Angstroms)
 Number     Number       Type             X           Y           Z
 ---------------------------------------------------------------------
      1          1           0        0.000000    0.349561    3.303285
      2          1           0        0.000000   -0.000000    4.954927
      3          1           0        0.000000   -0.000000    1.651642
      4          1           0       -0.000000   -0.349561    3.303285
      5          1           0        0.000000    0.349561    0.000000
      6          1           0       -0.000000   -0.349561   -0.000000
      7          1           0        0.000000    0.000000   -1.651642
      8          1           0        0.000000    0.349561   -3.303285
      9          1           0       -0.000000   -0.349561   -3.303285
     10          1           0        0.000000    0.000000   -4.954927
 ---------------------------------------------------------------------

 SCF Done:  E(RHF) =  -4.82261805598     A.U. after    9 cycles
 E2 =    -0.2101737496D+00 EUMP2 =    -0.50327918055413D+01

 The electronic state is 1-AG.
 Alpha  occ. eigenvalues --   -0.70789  -0.69624  -0.67262  -0.29690  -0.24287
 Alpha virt. eigenvalues --   -0.04148   0.02091   0.37576   0.38710   0.41303

 Mulliken charges:
               1
     1  H    0.066406
     2  H   -0.118519
     3  H   -0.039556
     4  H    0.066406
     5  H    0.025264
     6  H    0.025264
     7  H   -0.039556
     8  H    0.066406
     9  H    0.066406
    10  H   -0.118519
 Sum of Mulliken charges =   0.00000

 Dipole moment (field-independent basis, Debye):
    X=             -0.0000    Y=              0.0000    Z=             -0.0000  Tot=              0.0000
 Quadrupole moment (field-independent basis, Debye-Ang):
   XX=            -13.5989   YY=            -12.2483   ZZ=            -30.6721
   XY=              0.0000   XZ=              0.0000   YZ=              0.0000

 Normal termination of Gaussian 09 at Thu Feb  9 16:02:45 2017.
