 Gaussian 09, Revision E.01,
 Gaussian 09:  ES64L-G09RevE.01 30-Nov-2015

 ----------------------------------------------------------------------
 #rhf/gen scf(symm,tight,novaracc,noincfock,fulldiag) stable(crhf) geom
 =nocrowd test
 ----------------------------------------------------------------------

 hf stability analysis of h10 triangular lattice, y= 0.7571879775612920
 8
 ----------------------------------------------------------------------
 Symbolic Z-matrix:
 Charge =  0 Multiplicity = 1

                         Standard orientation:
 ---------------------------------------------------------------------
 Center     Atomic      Atomic             Coordinates (Angstroms)
 Number     Number       Type             X           Y           Z
 ---------------------------------------------------------------------
      1          1           0       -0.000000    0.757188    1.524985
      2          1           0       -0.000000    0.000000    2.287478
      3          1           0       -0.000000    0.000000    0.762493
      4          1           0       -0.000000   -0.757188    1.524985
      5          1           0       -0.000000    0.757188    0.000000
      6          1           0       -0.000000   -0.757188   -0.000000
      7          1           0        0.000000   -0.000000   -0.762493
      8          1           0        0.000000    0.757188   -1.524985
      9          1           0       -0.000000   -0.757188   -1.524985
     10          1           0        0.000000   -0.000000   -2.287478
 ---------------------------------------------------------------------

 SCF Done:  E(RHF) =  -4.85340191195     A.U. after    8 cycles
 E2 =    -0.9755901362D-01 EUMP2 =    -0.49509609255657D+01

 The electronic state is 1-AG.
 Alpha  occ. eigenvalues --   -0.90935  -0.74662  -0.51986  -0.46123  -0.27505
 Alpha virt. eigenvalues --   -0.02141   0.15090   0.34303   0.52334   0.55162

 Mulliken charges:
               1
     1  H   -0.210621
     2  H    0.230600
     3  H    0.153853
     4  H   -0.210621
     5  H    0.036789
     6  H    0.036789
     7  H    0.153853
     8  H   -0.210621
     9  H   -0.210621
    10  H    0.230600
 Sum of Mulliken charges =   0.00000

 Dipole moment (field-independent basis, Debye):
    X=              0.0000    Y=              0.0000    Z=              0.0000  Tot=              0.0000
 Quadrupole moment (field-independent basis, Debye-Ang):
   XX=            -13.0045   YY=            -18.5989   ZZ=            -10.9468
   XY=             -0.0000   XZ=             -0.0000   YZ=             -0.0000

 Normal termination of Gaussian 09 at Thu Feb  9 15:34:57 2017.
