 Gaussian 09, Revision E.01,
 Gaussian 09:  ES64L-G09RevE.01 30-Nov-2015

 ----------------------------------------------------------------------
 #rhf/gen scf(symm,tight,novaracc,noincfock,fulldiag) stable(crhf) geom
 =nocrowd test
 ----------------------------------------------------------------------

 hf stability analysis of h10 triangular lattice, y= 0.4490208748124050
 5
 ----------------------------------------------------------------------
 Symbolic Z-matrix:
 Charge =  0 Multiplicity = 1

                         Standard orientation:
 ---------------------------------------------------------------------
 Center     Atomic      Atomic             Coordinates (Angstroms)
 Number     Number       Type             X           Y           Z
 ---------------------------------------------------------------------
      1          1           0       -0.000000    0.449021    2.571597
      2          1           0       -0.000000    0.000000    3.857395
      3          1           0       -0.000000    0.000000    1.285798
      4          1           0       -0.000000   -0.449021    2.571597
      5          1           0       -0.000000    0.449021    0.000000
      6          1           0       -0.000000   -0.449021    0.000000
      7          1           0        0.000000    0.000000   -1.285798
      8          1           0        0.000000    0.449021   -2.571597
      9          1           0       -0.000000   -0.449021   -2.571597
     10          1           0        0.000000    0.000000   -3.857395
 ---------------------------------------------------------------------

 SCF Done:  E(RHF) =  -4.89597311748     A.U. after    9 cycles
 E2 =    -0.1089537703D+00 EUMP2 =    -0.50049268878108D+01

 The electronic state is 1-AG.
 Alpha  occ. eigenvalues --   -0.75402  -0.71092  -0.64488  -0.33722  -0.21591
 Alpha virt. eigenvalues --    0.10889   0.18693   0.22811   0.26256   0.27892

 Mulliken charges:
               1
     1  H    0.178943
     2  H   -0.302217
     3  H   -0.146376
     4  H    0.178943
     5  H    0.090706
     6  H    0.090706
     7  H   -0.146376
     8  H    0.178943
     9  H    0.178943
    10  H   -0.302217
 Sum of Mulliken charges =  -0.00000

 Dipole moment (field-independent basis, Debye):
    X=             -0.0000    Y=              0.0000    Z=              0.0000  Tot=              0.0000
 Quadrupole moment (field-independent basis, Debye-Ang):
   XX=            -13.3158   YY=            -10.8616   ZZ=            -40.2358
   XY=              0.0000   XZ=              0.0000   YZ=             -0.0000

 Normal termination of Gaussian 09 at Thu Feb  9 15:57:03 2017.
