 Gaussian 09, Revision E.01,
 Gaussian 09:  ES64L-G09RevE.01 30-Nov-2015

 ----------------------------------------------------------------------
 #rhf/gen scf(symm,tight,novaracc,noincfock,fulldiag) stable(crhf) geom
 =nocrowd test
 ----------------------------------------------------------------------

 hf stability analysis of h10 triangular lattice, y= 0.3287068132830269
 8
 ----------------------------------------------------------------------
 Symbolic Z-matrix:
 Charge =  0 Multiplicity = 1

                         Standard orientation:
 ---------------------------------------------------------------------
 Center     Atomic      Atomic             Coordinates (Angstroms)
 Number     Number       Type             X           Y           Z
 ---------------------------------------------------------------------
      1          1           0        0.000000    0.328707    3.512859
      2          1           0       -0.000000    0.000000    5.269288
      3          1           0       -0.000000    0.000000    1.756429
      4          1           0       -0.000000   -0.328707    3.512859
      5          1           0       -0.000000    0.328707    0.000000
      6          1           0       -0.000000   -0.328707    0.000000
      7          1           0        0.000000   -0.000000   -1.756429
      8          1           0        0.000000    0.328707   -3.512859
      9          1           0       -0.000000   -0.328707   -3.512859
     10          1           0        0.000000   -0.000000   -5.269288
 ---------------------------------------------------------------------

 SCF Done:  E(RHF) =  -4.76671638577     A.U. after   10 cycles
 E2 =    -0.2544110800D+00 EUMP2 =    -0.50211274658153D+01

 The electronic state is 1-AG.
 Alpha  occ. eigenvalues --   -0.70345  -0.69597  -0.67878  -0.28634  -0.24423
 Alpha virt. eigenvalues --   -0.06472  -0.01707   0.42090   0.42871   0.44951

 Mulliken charges:
               1
     1  H    0.045529
     2  H   -0.084673
     3  H   -0.021360
     4  H    0.045529
     5  H    0.014975
     6  H    0.014975
     7  H   -0.021360
     8  H    0.045529
     9  H    0.045529
    10  H   -0.084673
 Sum of Mulliken charges =   0.00000

 Dipole moment (field-independent basis, Debye):
    X=             -0.0000    Y=              0.0000    Z=              0.0000  Tot=              0.0000
 Quadrupole moment (field-independent basis, Debye-Ang):
   XX=            -13.6111   YY=            -12.4364   ZZ=            -27.7286
   XY=              0.0000   XZ=              0.0000   YZ=             -0.0000

 Normal termination of Gaussian 09 at Thu Feb  9 16:03:41 2017.
