 Gaussian 09, Revision E.01,
 Gaussian 09:  ES64L-G09RevE.01 30-Nov-2015

 ----------------------------------------------------------------------
 #rhf/gen scf(symm,tight,novaracc,noincfock,fulldiag) stable(crhf) geom
 =nocrowd test
 ----------------------------------------------------------------------

 hf stability analysis of h10 triangular lattice, y= 0.7376092417792278
 2
 ----------------------------------------------------------------------
 Symbolic Z-matrix:
 Charge =  0 Multiplicity = 1

                         Standard orientation:
 ---------------------------------------------------------------------
 Center     Atomic      Atomic             Coordinates (Angstroms)
 Number     Number       Type             X           Y           Z
 ---------------------------------------------------------------------
      1          1           0        0.000000    0.737609    1.565464
      2          1           0        0.000000   -0.000000    2.348196
      3          1           0        0.000000   -0.000000    0.782732
      4          1           0       -0.000000   -0.737609    1.565464
      5          1           0       -0.000000    0.737609    0.000000
      6          1           0       -0.000000   -0.737609   -0.000000
      7          1           0        0.000000    0.000000   -0.782732
      8          1           0        0.000000    0.737609   -1.565464
      9          1           0       -0.000000   -0.737609   -1.565464
     10          1           0        0.000000    0.000000   -2.348196
 ---------------------------------------------------------------------

 SCF Done:  E(RHF) =  -4.82342108797     A.U. after    8 cycles
 E2 =    -0.9832991764D-01 EUMP2 =    -0.49217510056131D+01

 The electronic state is 1-AG.
 Alpha  occ. eigenvalues --   -0.90099  -0.74432  -0.52731  -0.44491  -0.26487
 Alpha virt. eigenvalues --   -0.03631   0.14638   0.31526   0.54871   0.55755

 Mulliken charges:
               1
     1  H   -0.222838
     2  H    0.250358
     3  H    0.170331
     4  H   -0.222838
     5  H    0.024987
     6  H    0.024987
     7  H    0.170331
     8  H   -0.222838
     9  H   -0.222838
    10  H    0.250358
 Sum of Mulliken charges =   0.00000

 Dipole moment (field-independent basis, Debye):
    X=              0.0000    Y=             -0.0000    Z=              0.0000  Tot=              0.0000
 Quadrupole moment (field-independent basis, Debye-Ang):
   XX=            -13.0164   YY=            -18.8301   ZZ=             -9.9595
   XY=             -0.0000   XZ=             -0.0000   YZ=              0.0000

 Normal termination of Gaussian 09 at Thu Feb  9 15:36:16 2017.
