 Gaussian 09, Revision E.01,
 Gaussian 09:  ES64L-G09RevE.01 30-Nov-2015

 ----------------------------------------------------------------------
 #rhf/gen scf(symm,tight,novaracc,noincfock,fulldiag) stable(crhf) geom
 =nocrowd test
 ----------------------------------------------------------------------

 hf stability analysis of h10 triangular lattice, y= 0.4515347389936239
 5
 ----------------------------------------------------------------------
 Symbolic Z-matrix:
 Charge =  0 Multiplicity = 1

                         Standard orientation:
 ---------------------------------------------------------------------
 Center     Atomic      Atomic             Coordinates (Angstroms)
 Number     Number       Type             X           Y           Z
 ---------------------------------------------------------------------
      1          1           0        0.000000    0.451535    2.557280
      2          1           0        0.000000    0.000000    3.835919
      3          1           0        0.000000    0.000000    1.278640
      4          1           0       -0.000000   -0.451535    2.557280
      5          1           0        0.000000    0.451535    0.000000
      6          1           0       -0.000000   -0.451535    0.000000
      7          1           0        0.000000    0.000000   -1.278640
      8          1           0        0.000000    0.451535   -2.557280
      9          1           0       -0.000000   -0.451535   -2.557280
     10          1           0        0.000000    0.000000   -3.835919
 ---------------------------------------------------------------------

 SCF Done:  E(RHF) =  -4.89408677559     A.U. after    9 cycles
 E2 =    -0.1078055222D+00 EUMP2 =    -0.50018922977767D+01

 The electronic state is 1-AG.
 Alpha  occ. eigenvalues --   -0.75541  -0.71140  -0.64407  -0.33781  -0.21471
 Alpha virt. eigenvalues --    0.11340   0.18273   0.22490   0.26959   0.27639

 Mulliken charges:
               1
     1  H    0.181718
     2  H   -0.306755
     3  H   -0.149163
     4  H    0.181718
     5  H    0.092483
     6  H    0.092483
     7  H   -0.149163
     8  H    0.181718
     9  H    0.181718
    10  H   -0.306755
 Sum of Mulliken charges =  -0.00000

 Dipole moment (field-independent basis, Debye):
    X=             -0.0000    Y=              0.0000    Z=              0.0000  Tot=              0.0000
 Quadrupole moment (field-independent basis, Debye-Ang):
   XX=            -13.3047   YY=            -10.8174   ZZ=            -40.3684
   XY=              0.0000   XZ=              0.0000   YZ=             -0.0000

 Normal termination of Gaussian 09 at Thu Feb  9 15:56:52 2017.
