 Gaussian 09, Revision E.01,
 Gaussian 09:  ES64L-G09RevE.01 30-Nov-2015

 ----------------------------------------------------------------------
 #rhf/gen scf(symm,tight,novaracc,noincfock,fulldiag) stable(crhf) geom
 =nocrowd test
 ----------------------------------------------------------------------

 hf stability analysis of h10 triangular lattice, y= 0.4464990303591031
 0
 ----------------------------------------------------------------------
 Symbolic Z-matrix:
 Charge =  0 Multiplicity = 1

                         Standard orientation:
 ---------------------------------------------------------------------
 Center     Atomic      Atomic             Coordinates (Angstroms)
 Number     Number       Type             X           Y           Z
 ---------------------------------------------------------------------
      1          1           0        0.000000    0.446499    2.586121
      2          1           0        0.000000   -0.000000    3.879182
      3          1           0        0.000000   -0.000000    1.293061
      4          1           0       -0.000000   -0.446499    2.586121
      5          1           0        0.000000    0.446499    0.000000
      6          1           0       -0.000000   -0.446499   -0.000000
      7          1           0        0.000000    0.000000   -1.293061
      8          1           0        0.000000    0.446499   -2.586121
      9          1           0       -0.000000   -0.446499   -2.586121
     10          1           0        0.000000    0.000000   -3.879182
 ---------------------------------------------------------------------

 SCF Done:  E(RHF) =  -4.89769202168     A.U. after    9 cycles
 E2 =    -0.1101495618D+00 EUMP2 =    -0.50078415834387D+01

 The electronic state is 1-AG.
 Alpha  occ. eigenvalues --   -0.75262  -0.71044  -0.64568  -0.33660  -0.21708
 Alpha virt. eigenvalues --    0.10441   0.19117   0.23138   0.25554   0.28149

 Mulliken charges:
               1
     1  H    0.176149
     2  H   -0.297645
     3  H   -0.143578
     4  H    0.176149
     5  H    0.088925
     6  H    0.088925
     7  H   -0.143578
     8  H    0.176149
     9  H    0.176149
    10  H   -0.297645
 Sum of Mulliken charges =  -0.00000

 Dipole moment (field-independent basis, Debye):
    X=             -0.0000    Y=              0.0000    Z=             -0.0000  Tot=              0.0000
 Quadrupole moment (field-independent basis, Debye-Ang):
   XX=            -13.3268   YY=            -10.9057   ZZ=            -40.0978
   XY=              0.0000   XZ=              0.0000   YZ=             -0.0000

 Normal termination of Gaussian 09 at Thu Feb  9 15:57:13 2017.
