 Gaussian 09, Revision E.01,
 Gaussian 09:  ES64L-G09RevE.01 30-Nov-2015

 ----------------------------------------------------------------------
 #rhf/gen scf(symm,tight,novaracc,noincfock,fulldiag) stable(crhf) geom
 =nocrowd test
 ----------------------------------------------------------------------

 hf stability analysis of h10 triangular lattice, y= 0.4502787908445872
 2
 ----------------------------------------------------------------------
 Symbolic Z-matrix:
 Charge =  0 Multiplicity = 1

                         Standard orientation:
 ---------------------------------------------------------------------
 Center     Atomic      Atomic             Coordinates (Angstroms)
 Number     Number       Type             X           Y           Z
 ---------------------------------------------------------------------
      1          1           0        0.000000    0.450279    2.564412
      2          1           0        0.000000   -0.000000    3.846619
      3          1           0        0.000000   -0.000000    1.282206
      4          1           0       -0.000000   -0.450279    2.564412
      5          1           0        0.000000    0.450279    0.000000
      6          1           0       -0.000000   -0.450279   -0.000000
      7          1           0        0.000000    0.000000   -1.282206
      8          1           0        0.000000    0.450279   -2.564412
      9          1           0       -0.000000   -0.450279   -2.564412
     10          1           0        0.000000    0.000000   -3.846619
 ---------------------------------------------------------------------

 SCF Done:  E(RHF) =  -4.89505072279     A.U. after    9 cycles
 E2 =    -0.1083738188D+00 EUMP2 =    -0.50034245415953D+01

 The electronic state is 1-AG.
 Alpha  occ. eigenvalues --   -0.75471  -0.71116  -0.64448  -0.33752  -0.21531
 Alpha virt. eigenvalues --    0.11114   0.18483   0.22650   0.26607   0.27765

 Mulliken charges:
               1
     1  H    0.180333
     2  H   -0.304490
     3  H   -0.147771
     4  H    0.180333
     5  H    0.091595
     6  H    0.091595
     7  H   -0.147771
     8  H    0.180333
     9  H    0.180333
    10  H   -0.304490
 Sum of Mulliken charges =  -0.00000

 Dipole moment (field-independent basis, Debye):
    X=             -0.0000    Y=             -0.0000    Z=              0.0000  Tot=              0.0000
 Quadrupole moment (field-independent basis, Debye-Ang):
   XX=            -13.3103   YY=            -10.8395   ZZ=            -40.3028
   XY=              0.0000   XZ=              0.0000   YZ=              0.0000

 Normal termination of Gaussian 09 at Thu Feb  9 15:56:58 2017.
