 Gaussian 09, Revision E.01,
 Gaussian 09:  ES64L-G09RevE.01 30-Nov-2015

 ----------------------------------------------------------------------
 #rhf/gen scf(symm,tight,novaracc,noincfock,fulldiag) stable(crhf) geom
 =nocrowd test
 ----------------------------------------------------------------------

 hf stability analysis of h10 triangular lattice, y= 0.3643641521244470
 0
 ----------------------------------------------------------------------
 Symbolic Z-matrix:
 Charge =  0 Multiplicity = 1

                         Standard orientation:
 ---------------------------------------------------------------------
 Center     Atomic      Atomic             Coordinates (Angstroms)
 Number     Number       Type             X           Y           Z
 ---------------------------------------------------------------------
      1          1           0       -0.000000    0.364364    3.169084
      2          1           0       -0.000000    0.000000    4.753626
      3          1           0       -0.000000    0.000000    1.584542
      4          1           0       -0.000000   -0.364364    3.169084
      5          1           0        0.000000    0.364364   -0.000000
      6          1           0       -0.000000   -0.364364    0.000000
      7          1           0        0.000000   -0.000000   -1.584542
      8          1           0        0.000000    0.364364   -3.169084
      9          1           0       -0.000000   -0.364364   -3.169084
     10          1           0        0.000000   -0.000000   -4.753626
 ---------------------------------------------------------------------

 SCF Done:  E(RHF) =  -4.85298279910     A.U. after    9 cycles
 E2 =    -0.1852020350D+00 EUMP2 =    -0.50381848340629D+01

 The electronic state is 1-AG.
 Alpha  occ. eigenvalues --   -0.71261  -0.69733  -0.66860  -0.30432  -0.24113
 Alpha virt. eigenvalues --   -0.02305   0.05097   0.34481   0.35926   0.38877

 Mulliken charges:
               1
     1  H    0.082477
     2  H   -0.144594
     3  H   -0.054080
     4  H    0.082477
     5  H    0.033720
     6  H    0.033720
     7  H   -0.054080
     8  H    0.082477
     9  H    0.082477
    10  H   -0.144594
 Sum of Mulliken charges =  -0.00000

 Dipole moment (field-independent basis, Debye):
    X=             -0.0000    Y=              0.0000    Z=              0.0000  Tot=              0.0000
 Quadrupole moment (field-independent basis, Debye-Ang):
   XX=            -13.5801   YY=            -12.0925   ZZ=            -32.6211
   XY=              0.0000   XZ=              0.0000   YZ=              0.0000

 Normal termination of Gaussian 09 at Thu Feb  9 16:02:04 2017.
