 Gaussian 09, Revision E.01,
 Gaussian 09:  ES64L-G09RevE.01 30-Nov-2015

 ----------------------------------------------------------------------
 #rhf/gen scf(symm,tight,novaracc,noincfock,fulldiag) stable(crhf) geom
 =nocrowd test
 ----------------------------------------------------------------------

 hf stability analysis of h10 triangular lattice, y= 0.2633550908234030
 3
 ----------------------------------------------------------------------
 Symbolic Z-matrix:
 Charge =  0 Multiplicity = 1

                         Standard orientation:
 ---------------------------------------------------------------------
 Center     Atomic      Atomic             Coordinates (Angstroms)
 Number     Number       Type             X           Y           Z
 ---------------------------------------------------------------------
      1          1           0       -0.000000    0.263355    4.384576
      2          1           0       -0.000000    0.000000    6.576865
      3          1           0       -0.000000    0.000000    2.192288
      4          1           0       -0.000000   -0.263355    4.384576
      5          1           0        0.000000    0.263355   -0.000000
      6          1           0       -0.000000   -0.263355    0.000000
      7          1           0        0.000000   -0.000000   -2.192288
      8          1           0        0.000000    0.263355   -4.384576
      9          1           0       -0.000000   -0.263355   -4.384576
     10          1           0        0.000000   -0.000000   -6.576865
 ---------------------------------------------------------------------

 SCF Done:  E(RHF) =  -4.46127788658     A.U. after   12 cycles
 E2 =    -0.4722898939D+00 EUMP2 =    -0.49335677804825D+01

 The electronic state is 1-AG.
 Alpha  occ. eigenvalues --   -0.71174  -0.71047  -0.70687  -0.25628  -0.24198
 Alpha virt. eigenvalues --   -0.11603  -0.10081   0.57004   0.57184   0.57792

 Mulliken charges:
               1
     1  H    0.004195
     2  H   -0.015213
     3  H    0.007832
     4  H    0.004195
     5  H   -0.001009
     6  H   -0.001009
     7  H    0.007832
     8  H    0.004195
     9  H    0.004195
    10  H   -0.015213
 Sum of Mulliken charges =  -0.00000

 Dipole moment (field-independent basis, Debye):
    X=             -0.0000    Y=              0.0000    Z=              0.0000  Tot=              0.0000
 Quadrupole moment (field-independent basis, Debye-Ang):
   XX=            -13.5870   YY=            -12.8454   ZZ=            -19.0064
   XY=              0.0000   XZ=              0.0000   YZ=              0.0000

 Normal termination of Gaussian 09 at Thu Feb  9 16:06:11 2017.
