 Gaussian 09, Revision E.01,
 Gaussian 09:  ES64L-G09RevE.01 30-Nov-2015

 ----------------------------------------------------------------------
 #rhf/gen scf(symm,tight,novaracc,noincfock,fulldiag) stable(crhf) geom
 =nocrowd test
 ----------------------------------------------------------------------

 hf stability analysis of h10 triangular lattice, y= 0.3157937786663429
 5
 ----------------------------------------------------------------------
 Symbolic Z-matrix:
 Charge =  0 Multiplicity = 1

                         Standard orientation:
 ---------------------------------------------------------------------
 Center     Atomic      Atomic             Coordinates (Angstroms)
 Number     Number       Type             X           Y           Z
 ---------------------------------------------------------------------
      1          1           0        0.000000    0.315794    3.656502
      2          1           0        0.000000    0.000000    5.484753
      3          1           0        0.000000    0.000000    1.828251
      4          1           0       -0.000000   -0.315794    3.656502
      5          1           0        0.000000    0.315794   -0.000000
      6          1           0       -0.000000   -0.315794    0.000000
      7          1           0        0.000000   -0.000000   -1.828251
      8          1           0        0.000000    0.315794   -3.656502
      9          1           0       -0.000000   -0.315794   -3.656502
     10          1           0        0.000000   -0.000000   -5.484753
 ---------------------------------------------------------------------

 SCF Done:  E(RHF) =  -4.72362578608     A.U. after   10 cycles
 E2 =    -0.2878155142D+00 EUMP2 =    -0.50114413002707D+01

 The electronic state is 1-AG.
 Alpha  occ. eigenvalues --   -0.70224  -0.69675  -0.68308  -0.27990  -0.24451
 Alpha virt. eigenvalues --   -0.07745  -0.03790   0.44964   0.45570   0.47332

 Mulliken charges:
               1
     1  H    0.034079
     2  H   -0.066035
     3  H   -0.011903
     4  H    0.034079
     5  H    0.009780
     6  H    0.009780
     7  H   -0.011903
     8  H    0.034079
     9  H    0.034079
    10  H   -0.066035
 Sum of Mulliken charges =   0.00000

 Dipole moment (field-independent basis, Debye):
    X=             -0.0000    Y=              0.0000    Z=             -0.0000  Tot=              0.0000
 Quadrupole moment (field-independent basis, Debye-Ang):
   XX=            -13.6113   YY=            -12.5358   ZZ=            -25.8544
   XY=              0.0000   XZ=              0.0000   YZ=              0.0000

 Normal termination of Gaussian 09 at Thu Feb  9 16:04:13 2017.
