 Gaussian 09, Revision E.01,
 Gaussian 09:  ES64L-G09RevE.01 30-Nov-2015

 ----------------------------------------------------------------------
 #rhf/gen scf(symm,tight,novaracc,noincfock,fulldiag) stable(crhf) geom
 =nocrowd test
 ----------------------------------------------------------------------

 hf stability analysis of h10 triangular lattice, y= 0.3987841068513602
 3
 ----------------------------------------------------------------------
 Symbolic Z-matrix:
 Charge =  0 Multiplicity = 1

                         Standard orientation:
 ---------------------------------------------------------------------
 Center     Atomic      Atomic             Coordinates (Angstroms)
 Number     Number       Type             X           Y           Z
 ---------------------------------------------------------------------
      1          1           0        0.000000    0.398784    2.895553
      2          1           0        0.000000   -0.000000    4.343330
      3          1           0        0.000000   -0.000000    1.447777
      4          1           0       -0.000000   -0.398784    2.895553
      5          1           0        0.000000    0.398784    0.000000
      6          1           0       -0.000000   -0.398784   -0.000000
      7          1           0        0.000000    0.000000   -1.447777
      8          1           0        0.000000    0.398784   -2.895553
      9          1           0       -0.000000   -0.398784   -2.895553
     10          1           0        0.000000    0.000000   -4.343330
 ---------------------------------------------------------------------

 SCF Done:  E(RHF) =  -4.89627847130     A.U. after    9 cycles
 E2 =    -0.1432443120D+00 EUMP2 =    -0.50395227833413D+01

 The electronic state is 1-AG.
 Alpha  occ. eigenvalues --   -0.72734  -0.70183  -0.65951  -0.32026  -0.23424
 Alpha virt. eigenvalues --    0.02552   0.12981   0.27667   0.30028   0.33812

 Mulliken charges:
               1
     1  H    0.121756
     2  H   -0.208603
     3  H   -0.090693
     4  H    0.121756
     5  H    0.055784
     6  H    0.055784
     7  H   -0.090693
     8  H    0.121756
     9  H    0.121756
    10  H   -0.208603
 Sum of Mulliken charges =  -0.00000

 Dipole moment (field-independent basis, Debye):
    X=             -0.0000    Y=             -0.0000    Z=             -0.0000  Tot=              0.0000
 Quadrupole moment (field-independent basis, Debye-Ang):
   XX=            -13.5023   YY=            -11.6584   ZZ=            -36.4824
   XY=              0.0000   XZ=              0.0000   YZ=             -0.0000

 Normal termination of Gaussian 09 at Thu Feb  9 16:00:17 2017.
