 Gaussian 09, Revision E.01,
 Gaussian 09:  ES64L-G09RevE.01 30-Nov-2015

 ----------------------------------------------------------------------
 #rhf/gen scf(symm,tight,novaracc,noincfock,fulldiag) stable(crhf) geom
 =nocrowd test
 ----------------------------------------------------------------------

 hf stability analysis of h10 triangular lattice, y= 0.5878239699753107
 2
 ----------------------------------------------------------------------
 Symbolic Z-matrix:
 Charge =  0 Multiplicity = 1

                         Standard orientation:
 ---------------------------------------------------------------------
 Center     Atomic      Atomic             Coordinates (Angstroms)
 Number     Number       Type             X           Y           Z
 ---------------------------------------------------------------------
      1          1           0        0.000000    0.587824    1.964365
      2          1           0        0.000000    0.000000    2.946547
      3          1           0        0.000000    0.000000    0.982182
      4          1           0       -0.000000   -0.587824    1.964365
      5          1           0       -0.000000    0.587824    0.000000
      6          1           0       -0.000000   -0.587824    0.000000
      7          1           0        0.000000    0.000000   -0.982182
      8          1           0        0.000000    0.587824   -1.964365
      9          1           0       -0.000000   -0.587824   -1.964365
     10          1           0        0.000000    0.000000   -2.946547
 ---------------------------------------------------------------------

 SCF Done:  E(RHF) =  -4.77494692343     A.U. after    9 cycles
 E2 =    -0.1454194542D+00 EUMP2 =    -0.49203663776047D+01

 The electronic state is 1-AG.
 Alpha  occ. eigenvalues --   -0.79456  -0.72540  -0.56799  -0.31278  -0.22095
 Alpha virt. eigenvalues --    0.03970   0.09467   0.21190   0.39255   0.66594

 Mulliken charges:
               1
     1  H    0.140486
     2  H   -0.087474
     3  H   -0.195685
     4  H    0.140486
     5  H    0.002186
     6  H    0.002186
     7  H   -0.195685
     8  H    0.140486
     9  H    0.140486
    10  H   -0.087474
 Sum of Mulliken charges =   0.00000

 Dipole moment (field-independent basis, Debye):
    X=             -0.0000    Y=             -0.0000    Z=              0.0000  Tot=              0.0000
 Quadrupole moment (field-independent basis, Debye-Ang):
   XX=            -13.1431   YY=            -13.8560   ZZ=            -13.4304
   XY=             -0.0000   XZ=              0.0000   YZ=              0.0000

 Normal termination of Gaussian 09 at Thu Feb  9 15:47:00 2017.
