 Gaussian 09, Revision E.01,
 Gaussian 09:  ES64L-G09RevE.01 30-Nov-2015

 ----------------------------------------------------------------------
 #rhf/gen scf(symm,tight,novaracc,noincfock,fulldiag) stable(crhf) geom
 =nocrowd test
 ----------------------------------------------------------------------

 hf stability analysis of h10 triangular lattice, y= 0.6170027338961933
 1
 ----------------------------------------------------------------------
 Symbolic Z-matrix:
 Charge =  0 Multiplicity = 1

                         Standard orientation:
 ---------------------------------------------------------------------
 Center     Atomic      Atomic             Coordinates (Angstroms)
 Number     Number       Type             X           Y           Z
 ---------------------------------------------------------------------
      1          1           0        0.000000    0.617003    1.871467
      2          1           0        0.000000    0.000000    2.807201
      3          1           0        0.000000    0.000000    0.935734
      4          1           0       -0.000000   -0.617003    1.871467
      5          1           0       -0.000000    0.617003    0.000000
      6          1           0       -0.000000   -0.617003    0.000000
      7          1           0        0.000000    0.000000   -0.935734
      8          1           0        0.000000    0.617003   -1.871467
      9          1           0       -0.000000   -0.617003   -1.871467
     10          1           0        0.000000    0.000000   -2.807201
 ---------------------------------------------------------------------

 SCF Done:  E(RHF) =  -4.80239815868     A.U. after    9 cycles
 E2 =    -0.1322759646D+00 EUMP2 =    -0.49346741232554D+01

 The electronic state is 1-AG.
 Alpha  occ. eigenvalues --   -0.80961  -0.72984  -0.56199  -0.30564  -0.25900
 Alpha virt. eigenvalues --    0.01903   0.13583   0.20503   0.44322   0.69452

 Mulliken charges:
               1
     1  H    0.172019
     2  H   -0.134661
     3  H   -0.226832
     4  H    0.172019
     5  H    0.017455
     6  H    0.017455
     7  H   -0.226832
     8  H    0.172019
     9  H    0.172019
    10  H   -0.134661
 Sum of Mulliken charges =   0.00000

 Dipole moment (field-independent basis, Debye):
    X=             -0.0000    Y=              0.0000    Z=              0.0000  Tot=              0.0000
 Quadrupole moment (field-independent basis, Debye-Ang):
   XX=            -13.0776   YY=            -13.3100   ZZ=            -15.6367
   XY=              0.0000   XZ=              0.0000   YZ=              0.0000

 Normal termination of Gaussian 09 at Thu Feb  9 15:44:48 2017.
