 Gaussian 09, Revision E.01,
 Gaussian 09:  ES64L-G09RevE.01 30-Nov-2015

 ----------------------------------------------------------------------
 #rhf/gen scf(symm,tight,novaracc,noincfock,fulldiag) stable(crhf) geom
 =nocrowd test
 ----------------------------------------------------------------------

 hf stability analysis of h10 triangular lattice, y= 0.6435097221535421
 9
 ----------------------------------------------------------------------
 Symbolic Z-matrix:
 Charge =  0 Multiplicity = 1

                         Standard orientation:
 ---------------------------------------------------------------------
 Center     Atomic      Atomic             Coordinates (Angstroms)
 Number     Number       Type             X           Y           Z
 ---------------------------------------------------------------------
      1          1           0        0.000000    0.643510    1.794379
      2          1           0        0.000000    0.000000    2.691569
      3          1           0        0.000000    0.000000    0.897190
      4          1           0       -0.000000   -0.643510    1.794379
      5          1           0       -0.000000    0.643510   -0.000000
      6          1           0       -0.000000   -0.643510    0.000000
      7          1           0        0.000000   -0.000000   -0.897190
      8          1           0        0.000000    0.643510   -1.794379
      9          1           0       -0.000000   -0.643510   -1.794379
     10          1           0        0.000000   -0.000000   -2.691569
 ---------------------------------------------------------------------

 SCF Done:  E(RHF) =  -4.81620935344     A.U. after    9 cycles
 E2 =    -0.1226413511D+00 EUMP2 =    -0.49388507045231D+01

 The electronic state is 1-AG.
 Alpha  occ. eigenvalues --   -0.82183  -0.73213  -0.55480  -0.29586  -0.29096
 Alpha virt. eigenvalues --    0.00259   0.17471   0.20146   0.48414   0.70163

 Mulliken charges:
               1
     1  H    0.198476
     2  H   -0.175622
     3  H   -0.249447
     4  H    0.198476
     5  H    0.028116
     6  H    0.028116
     7  H   -0.249447
     8  H    0.198476
     9  H    0.198476
    10  H   -0.175622
 Sum of Mulliken charges =  -0.00000

 Dipole moment (field-independent basis, Debye):
    X=             -0.0000    Y=             -0.0000    Z=             -0.0000  Tot=              0.0000
 Quadrupole moment (field-independent basis, Debye-Ang):
   XX=            -13.0168   YY=            -12.7822   ZZ=            -17.3087
   XY=              0.0000   XZ=              0.0000   YZ=              0.0000

 Normal termination of Gaussian 09 at Thu Feb  9 15:42:51 2017.
