 Gaussian 09, Revision E.01,
 Gaussian 09:  ES64L-G09RevE.01 30-Nov-2015

 ----------------------------------------------------------------------
 #rhf/gen scf(symm,tight,novaracc,noincfock,fulldiag) stable(crhf) geom
 =nocrowd test
 ----------------------------------------------------------------------

 hf stability analysis of h10 triangular lattice, y= 0.5400376060789253
 7
 ----------------------------------------------------------------------
 Symbolic Z-matrix:
 Charge =  0 Multiplicity = 1

                         Standard orientation:
 ---------------------------------------------------------------------
 Center     Atomic      Atomic             Coordinates (Angstroms)
 Number     Number       Type             X           Y           Z
 ---------------------------------------------------------------------
      1          1           0        0.000000    0.540038    2.138185
      2          1           0        0.000000    0.000000    3.207278
      3          1           0        0.000000    0.000000    1.069093
      4          1           0       -0.000000   -0.540038    2.138185
      5          1           0        0.000000    0.540038    0.000000
      6          1           0       -0.000000   -0.540038   -0.000000
      7          1           0        0.000000   -0.000000   -1.069093
      8          1           0        0.000000    0.540038   -2.138185
      9          1           0       -0.000000   -0.540038   -2.138185
     10          1           0        0.000000   -0.000000   -3.207278
 ---------------------------------------------------------------------

 SCF Done:  E(RHF) =  -4.72645797261     A.U. after    8 cycles
 E2 =    -0.8781481865D-01 EUMP2 =    -0.48142727912605D+01

 The electronic state is 1-AG.
 Alpha  occ. eigenvalues --   -0.80190  -0.72579  -0.60984  -0.34047  -0.15407
 Alpha virt. eigenvalues --    0.05194   0.13107   0.21037   0.28407   0.51320

 Mulliken charges:
               1
     1  H    0.270997
     2  H   -0.451571
     3  H   -0.244928
     4  H    0.270997
     5  H    0.154506
     6  H    0.154506
     7  H   -0.244928
     8  H    0.270997
     9  H    0.270997
    10  H   -0.451571
 Sum of Mulliken charges =   0.00000

 Dipole moment (field-independent basis, Debye):
    X=             -0.0000    Y=             -0.0000    Z=              0.0000  Tot=              0.0000
 Quadrupole moment (field-independent basis, Debye-Ang):
   XX=            -12.8543   YY=             -9.0561   ZZ=            -42.5786
   XY=              0.0000   XZ=              0.0000   YZ=             -0.0000

 Normal termination of Gaussian 09 at Thu Feb  9 15:50:33 2017.
