 Gaussian 09, Revision E.01,
 Gaussian 09:  ES64L-G09RevE.01 30-Nov-2015

 ----------------------------------------------------------------------
 #rhf/gen scf(symm,tight,novaracc,noincfock,fulldiag) stable(crhf) geom
 =nocrowd test
 ----------------------------------------------------------------------

 hf stability analysis of h10 triangular lattice, y= 0.4817606534693605
 9
 ----------------------------------------------------------------------
 Symbolic Z-matrix:
 Charge =  0 Multiplicity = 1

                         Standard orientation:
 ---------------------------------------------------------------------
 Center     Atomic      Atomic             Coordinates (Angstroms)
 Number     Number       Type             X           Y           Z
 ---------------------------------------------------------------------
      1          1           0        0.000000    0.481761    2.396834
      2          1           0        0.000000    0.000000    3.595252
      3          1           0        0.000000    0.000000    1.198417
      4          1           0       -0.000000   -0.481761    2.396834
      5          1           0       -0.000000    0.481761   -0.000000
      6          1           0       -0.000000   -0.481761    0.000000
      7          1           0        0.000000   -0.000000   -1.198417
      8          1           0        0.000000    0.481761   -2.396834
      9          1           0       -0.000000   -0.481761   -2.396834
     10          1           0        0.000000   -0.000000   -3.595252
 ---------------------------------------------------------------------

 SCF Done:  E(RHF) =  -4.85826622481     A.U. after    9 cycles
 E2 =    -0.9699113191D-01 EUMP2 =    -0.49552573567144D+01

 The electronic state is 1-AG.
 Alpha  occ. eigenvalues --   -0.77214  -0.71706  -0.63368  -0.34274  -0.19805
 Alpha virt. eigenvalues --    0.13442   0.16948   0.18883   0.24906   0.35527

 Mulliken charges:
               1
     1  H    0.214133
     2  H   -0.359646
     3  H   -0.182498
     4  H    0.214133
     5  H    0.113878
     6  H    0.113878
     7  H   -0.182498
     8  H    0.214133
     9  H    0.214133
    10  H   -0.359646
 Sum of Mulliken charges =   0.00000

 Dipole moment (field-independent basis, Debye):
    X=             -0.0000    Y=             -0.0000    Z=             -0.0000  Tot=              0.0000
 Quadrupole moment (field-independent basis, Debye-Ang):
   XX=            -13.1618   YY=            -10.2569   ZZ=            -41.6140
   XY=              0.0000   XZ=              0.0000   YZ=             -0.0000

 Normal termination of Gaussian 09 at Thu Feb  9 15:54:47 2017.
