 Gaussian 09, Revision E.01,
 Gaussian 09:  ES64L-G09RevE.01 30-Nov-2015

 ----------------------------------------------------------------------
 #rhf/gen scf(symm,tight,novaracc,noincfock,fulldiag) stable(crhf) geom
 =nocrowd test
 ----------------------------------------------------------------------

 hf stability analysis of h10 triangular lattice, y= 0.3116621908519156
 5
 ----------------------------------------------------------------------
 Symbolic Z-matrix:
 Charge =  0 Multiplicity = 1

                         Standard orientation:
 ---------------------------------------------------------------------
 Center     Atomic      Atomic             Coordinates (Angstroms)
 Number     Number       Type             X           Y           Z
 ---------------------------------------------------------------------
      1          1           0        0.000000    0.311662    3.704975
      2          1           0       -0.000000    0.000000    5.557462
      3          1           0       -0.000000    0.000000    1.852487
      4          1           0       -0.000000   -0.311662    3.704975
      5          1           0        0.000000    0.311662   -0.000000
      6          1           0       -0.000000   -0.311662    0.000000
      7          1           0        0.000000   -0.000000   -1.852487
      8          1           0        0.000000    0.311662   -3.704975
      9          1           0       -0.000000   -0.311662   -3.704975
     10          1           0        0.000000   -0.000000   -5.557462
 ---------------------------------------------------------------------

 SCF Done:  E(RHF) =  -4.70833305877     A.U. after   10 cycles
 E2 =    -0.2995344635D+00 EUMP2 =    -0.50078675222548D+01

 The electronic state is 1-AG.
 Alpha  occ. eigenvalues --   -0.70212  -0.69718  -0.68456  -0.27787  -0.24452
 Alpha virt. eigenvalues --   -0.08125  -0.04412   0.45893   0.46451   0.48111

 Mulliken charges:
               1
     1  H    0.030710
     2  H   -0.060522
     3  H   -0.009228
     4  H    0.030710
     5  H    0.008329
     6  H    0.008329
     7  H   -0.009228
     8  H    0.030710
     9  H    0.030710
    10  H   -0.060522
 Sum of Mulliken charges =  -0.00000

 Dipole moment (field-independent basis, Debye):
    X=             -0.0000    Y=              0.0000    Z=              0.0000  Tot=              0.0000
 Quadrupole moment (field-independent basis, Debye-Ang):
   XX=            -13.6105   YY=            -12.5651   ZZ=            -25.2564
   XY=              0.0000   XZ=              0.0000   YZ=              0.0000

 Normal termination of Gaussian 09 at Thu Feb  9 16:04:23 2017.
