 Gaussian 09, Revision E.01,
 Gaussian 09:  ES64L-G09RevE.01 30-Nov-2015

 ----------------------------------------------------------------------
 #rhf/gen scf(symm,tight,novaracc,noincfock,fulldiag) stable(crhf) geom
 =nocrowd test
 ----------------------------------------------------------------------

 hf stability analysis of h10 triangular lattice, y= 0.5064083691873014
 8
 ----------------------------------------------------------------------
 Symbolic Z-matrix:
 Charge =  0 Multiplicity = 1

                         Standard orientation:
 ---------------------------------------------------------------------
 Center     Atomic      Atomic             Coordinates (Angstroms)
 Number     Number       Type             X           Y           Z
 ---------------------------------------------------------------------
      1          1           0       -0.000000    0.506408    2.280177
      2          1           0       -0.000000    0.000000    3.420265
      3          1           0       -0.000000    0.000000    1.140088
      4          1           0       -0.000000   -0.506408    2.280177
      5          1           0        0.000000    0.506408    0.000000
      6          1           0       -0.000000   -0.506408    0.000000
      7          1           0        0.000000   -0.000000   -1.140088
      8          1           0        0.000000    0.506408   -2.280177
      9          1           0       -0.000000   -0.506408   -2.280177
     10          1           0        0.000000   -0.000000   -3.420265
 ---------------------------------------------------------------------

 SCF Done:  E(RHF) =  -4.81200926653     A.U. after    9 cycles
 E2 =    -0.9151773009D-01 EUMP2 =    -0.49035269966146D+01

 The electronic state is 1-AG.
 Alpha  occ. eigenvalues --   -0.78530  -0.72124  -0.62422  -0.34368  -0.18136
 Alpha virt. eigenvalues --    0.09786   0.16268   0.21731   0.23060   0.42471

 Mulliken charges:
               1
     1  H    0.239139
     2  H   -0.400218
     3  H   -0.209303
     4  H    0.239139
     5  H    0.131244
     6  H    0.131244
     7  H   -0.209303
     8  H    0.239139
     9  H    0.239139
    10  H   -0.400218
 Sum of Mulliken charges =  -0.00000

 Dipole moment (field-independent basis, Debye):
    X=             -0.0000    Y=              0.0000    Z=              0.0000  Tot=              0.0000
 Quadrupole moment (field-independent basis, Debye-Ang):
   XX=            -13.0353   YY=             -9.7659   ZZ=            -42.2174
   XY=              0.0000   XZ=              0.0000   YZ=             -0.0000

 Normal termination of Gaussian 09 at Thu Feb  9 15:53:01 2017.
