 Gaussian 09, Revision E.01,
 Gaussian 09:  ES64L-G09RevE.01 30-Nov-2015

 ----------------------------------------------------------------------
 #rhf/gen scf(symm,tight,novaracc,noincfock,fulldiag) stable(crhf) geom
 =nocrowd test
 ----------------------------------------------------------------------

 hf stability analysis of h10 triangular lattice, y= 0.4181653180781827
 5
 ----------------------------------------------------------------------
 Symbolic Z-matrix:
 Charge =  0 Multiplicity = 1

                         Standard orientation:
 ---------------------------------------------------------------------
 Center     Atomic      Atomic             Coordinates (Angstroms)
 Number     Number       Type             X           Y           Z
 ---------------------------------------------------------------------
      1          1           0        0.000000    0.418165    2.761349
      2          1           0        0.000000    0.000000    4.142024
      3          1           0        0.000000    0.000000    1.380675
      4          1           0       -0.000000   -0.418165    2.761349
      5          1           0       -0.000000    0.418165    0.000000
      6          1           0       -0.000000   -0.418165   -0.000000
      7          1           0        0.000000    0.000000   -1.380675
      8          1           0        0.000000    0.418165   -2.761349
      9          1           0       -0.000000   -0.418165   -2.761349
     10          1           0        0.000000    0.000000   -4.142024
 ---------------------------------------------------------------------

 SCF Done:  E(RHF) =  -4.90478221163     A.U. after    8 cycles
 E2 =    -0.1270710172D+00 EUMP2 =    -0.50318532288132D+01

 The electronic state is 1-AG.
 Alpha  occ. eigenvalues --   -0.73720  -0.70514  -0.65416  -0.32788  -0.22840
 Alpha virt. eigenvalues --    0.05609   0.17896   0.24070   0.27058   0.31324

 Mulliken charges:
               1
     1  H    0.144109
     2  H   -0.245179
     3  H   -0.112097
     4  H    0.144109
     5  H    0.069057
     6  H    0.069057
     7  H   -0.112097
     8  H    0.144109
     9  H    0.144109
    10  H   -0.245179
 Sum of Mulliken charges =  -0.00000

 Dipole moment (field-independent basis, Debye):
    X=             -0.0000    Y=             -0.0000    Z=             -0.0000  Tot=              0.0000
 Quadrupole moment (field-independent basis, Debye-Ang):
   XX=            -13.4393   YY=            -11.3722   ZZ=            -38.1911
   XY=              0.0000   XZ=              0.0000   YZ=              0.0000

 Normal termination of Gaussian 09 at Thu Feb  9 15:59:05 2017.
