 Gaussian 09, Revision E.01,
 Gaussian 09:  ES64L-G09RevE.01 30-Nov-2015

 ----------------------------------------------------------------------
 #rhf/gen scf(symm,tight,novaracc,noincfock,fulldiag) stable(crhf) geom
 =nocrowd test
 ----------------------------------------------------------------------

 hf stability analysis of h10 triangular lattice, y= 0.4439689852400727
 8
 ----------------------------------------------------------------------
 Symbolic Z-matrix:
 Charge =  0 Multiplicity = 1

                         Standard orientation:
 ---------------------------------------------------------------------
 Center     Atomic      Atomic             Coordinates (Angstroms)
 Number     Number       Type             X           Y           Z
 ---------------------------------------------------------------------
      1          1           0        0.000000    0.443969    2.600859
      2          1           0        0.000000    0.000000    3.901288
      3          1           0        0.000000    0.000000    1.300429
      4          1           0       -0.000000   -0.443969    2.600859
      5          1           0        0.000000    0.443969   -0.000000
      6          1           0       -0.000000   -0.443969    0.000000
      7          1           0        0.000000   -0.000000   -1.300429
      8          1           0        0.000000    0.443969   -2.600859
      9          1           0       -0.000000   -0.443969   -2.600859
     10          1           0        0.000000   -0.000000   -3.901288
 ---------------------------------------------------------------------

 SCF Done:  E(RHF) =  -4.89924099128     A.U. after    9 cycles
 E2 =    -0.1113948069D+00 EUMP2 =    -0.50106357981653D+01

 The electronic state is 1-AG.
 Alpha  occ. eigenvalues --   -0.75121  -0.70995  -0.64648  -0.33596  -0.21823
 Alpha virt. eigenvalues --    0.09993   0.19544   0.23468   0.24852   0.28411

 Mulliken charges:
               1
     1  H    0.173335
     2  H   -0.293040
     3  H   -0.140769
     4  H    0.173335
     5  H    0.087139
     6  H    0.087139
     7  H   -0.140769
     8  H    0.173335
     9  H    0.173335
    10  H   -0.293040
 Sum of Mulliken charges =  -0.00000

 Dipole moment (field-independent basis, Debye):
    X=             -0.0000    Y=             -0.0000    Z=              0.0000  Tot=              0.0000
 Quadrupole moment (field-independent basis, Debye-Ang):
   XX=            -13.3377   YY=            -10.9495   ZZ=            -39.9544
   XY=              0.0000   XZ=              0.0000   YZ=             -0.0000

 Normal termination of Gaussian 09 at Thu Feb  9 15:57:24 2017.
