 Gaussian 09, Revision E.01,
 Gaussian 09:  ES64L-G09RevE.01 30-Nov-2015

 ----------------------------------------------------------------------
 #rhf/gen scf(symm,tight,novaracc,noincfock,fulldiag) stable(crhf) geom
 =nocrowd test
 ----------------------------------------------------------------------

 hf stability analysis of h10 triangular lattice, y= 0.7479915495235127
 7
 ----------------------------------------------------------------------
 Symbolic Z-matrix:
 Charge =  0 Multiplicity = 1

                         Standard orientation:
 ---------------------------------------------------------------------
 Center     Atomic      Atomic             Coordinates (Angstroms)
 Number     Number       Type             X           Y           Z
 ---------------------------------------------------------------------
      1          1           0        0.000000    0.747992    1.543735
      2          1           0        0.000000    0.000000    2.315602
      3          1           0        0.000000    0.000000    0.771867
      4          1           0       -0.000000   -0.747992    1.543735
      5          1           0       -0.000000    0.747992    0.000000
      6          1           0       -0.000000   -0.747992   -0.000000
      7          1           0        0.000000    0.000000   -0.771867
      8          1           0        0.000000    0.747992   -1.543735
      9          1           0       -0.000000   -0.747992   -1.543735
     10          1           0        0.000000    0.000000   -2.315602
 ---------------------------------------------------------------------

 SCF Done:  E(RHF) =  -4.83976352653     A.U. after    8 cycles
 E2 =    -0.9789726358D-01 EUMP2 =    -0.49376607901067D+01

 The electronic state is 1-AG.
 Alpha  occ. eigenvalues --   -0.90551  -0.74564  -0.52342  -0.45368  -0.27039
 Alpha virt. eigenvalues --   -0.02853   0.14865   0.33006   0.53967   0.55078

 Mulliken charges:
               1
     1  H   -0.216287
     2  H    0.239861
     3  H    0.161262
     4  H   -0.216287
     5  H    0.031451
     6  H    0.031451
     7  H    0.161262
     8  H   -0.216287
     9  H   -0.216287
    10  H    0.239861
 Sum of Mulliken charges =   0.00000

 Dipole moment (field-independent basis, Debye):
    X=              0.0000    Y=              0.0000    Z=             -0.0000  Tot=              0.0000
 Quadrupole moment (field-independent basis, Debye-Ang):
   XX=            -13.0101   YY=            -18.7084   ZZ=            -10.4922
   XY=             -0.0000   XZ=             -0.0000   YZ=              0.0000

 Normal termination of Gaussian 09 at Thu Feb  9 15:35:34 2017.
