 Gaussian 09, Revision E.01,
 Gaussian 09:  ES64L-G09RevE.01 30-Nov-2015

 ----------------------------------------------------------------------
 #rhf/gen scf(symm,tight,novaracc,noincfock,fulldiag) stable(crhf) geom
 =nocrowd test
 ----------------------------------------------------------------------

 hf stability analysis of h10 triangular lattice, y= 0.6619914824661707
 9
 ----------------------------------------------------------------------
 Symbolic Z-matrix:
 Charge =  0 Multiplicity = 1

                         Standard orientation:
 ---------------------------------------------------------------------
 Center     Atomic      Atomic             Coordinates (Angstroms)
 Number     Number       Type             X           Y           Z
 ---------------------------------------------------------------------
      1          1           0       -0.000000    0.661991    1.744283
      2          1           0       -0.000000    0.000000    2.616425
      3          1           0       -0.000000    0.000000    0.872142
      4          1           0       -0.000000   -0.661991    1.744283
      5          1           0       -0.000000    0.661991   -0.000000
      6          1           0       -0.000000   -0.661991    0.000000
      7          1           0        0.000000   -0.000000   -0.872142
      8          1           0        0.000000    0.661991   -1.744283
      9          1           0       -0.000000   -0.661991   -1.744283
     10          1           0        0.000000   -0.000000   -2.616425
 ---------------------------------------------------------------------

 SCF Done:  E(RHF) =  -4.82009906487     A.U. after    9 cycles
 E2 =    -0.1170074025D+00 EUMP2 =    -0.49371064674099D+01

 The electronic state is 1-AG.
 Alpha  occ. eigenvalues --   -0.82950  -0.73276  -0.54885  -0.31194  -0.28726
 Alpha virt. eigenvalues --   -0.00768   0.20035   0.20242   0.50893   0.69625

 Mulliken charges:
               1
     1  H    0.215571
     2  H   -0.202929
     3  H   -0.261852
     4  H    0.215571
     5  H    0.033640
     6  H    0.033640
     7  H   -0.261852
     8  H    0.215571
     9  H    0.215571
    10  H   -0.202929
 Sum of Mulliken charges =  -0.00000

 Dipole moment (field-independent basis, Debye):
    X=             -0.0000    Y=              0.0000    Z=              0.0000  Tot=              0.0000
 Quadrupole moment (field-independent basis, Debye-Ang):
   XX=            -12.9744   YY=            -12.4002   ZZ=            -18.3128
   XY=              0.0000   XZ=              0.0000   YZ=              0.0000

 Normal termination of Gaussian 09 at Thu Feb  9 15:41:30 2017.
