 Gaussian 09, Revision E.01,
 Gaussian 09:  ES64L-G09RevE.01 30-Nov-2015

 ----------------------------------------------------------------------
 #rhf/gen scf(symm,tight,novaracc,noincfock,fulldiag) stable(crhf) geom
 =nocrowd test
 ----------------------------------------------------------------------

 hf stability analysis of h10 triangular lattice, y= 0.5628012212403139
 5
 ----------------------------------------------------------------------
 Symbolic Z-matrix:
 Charge =  0 Multiplicity = 1

                         Standard orientation:
 ---------------------------------------------------------------------
 Center     Atomic      Atomic             Coordinates (Angstroms)
 Number     Number       Type             X           Y           Z
 ---------------------------------------------------------------------
      1          1           0        0.000000    0.562801    2.051702
      2          1           0        0.000000   -0.000000    3.077553
      3          1           0        0.000000   -0.000000    1.025851
      4          1           0       -0.000000   -0.562801    2.051702
      5          1           0        0.000000    0.562801    0.000000
      6          1           0       -0.000000   -0.562801   -0.000000
      7          1           0        0.000000    0.000000   -1.025851
      8          1           0        0.000000    0.562801   -2.051702
      9          1           0       -0.000000   -0.562801   -2.051702
     10          1           0        0.000000    0.000000   -3.077553
 ---------------------------------------------------------------------

 SCF Done:  E(RHF) =  -4.74004057913     A.U. after    9 cycles
 E2 =    -0.1593090866D+00 EUMP2 =    -0.48993496657160D+01

 The electronic state is 1-AG.
 Alpha  occ. eigenvalues --   -0.78040  -0.72001  -0.57151  -0.31584  -0.18568
 Alpha virt. eigenvalues --    0.05984   0.06106   0.22049   0.34601   0.62556

 Mulliken charges:
               1
     1  H    0.111670
     2  H   -0.045654
     3  H   -0.164070
     4  H    0.111670
     5  H   -0.013615
     6  H   -0.013615
     7  H   -0.164070
     8  H    0.111670
     9  H    0.111670
    10  H   -0.045654
 Sum of Mulliken charges =   0.00000

 Dipole moment (field-independent basis, Debye):
    X=             -0.0000    Y=              0.0000    Z=              0.0000  Tot=              0.0000
 Quadrupole moment (field-independent basis, Debye-Ang):
   XX=            -13.1970   YY=            -14.2892   ZZ=            -11.1847
   XY=             -0.0000   XZ=              0.0000   YZ=              0.0000

 Normal termination of Gaussian 09 at Thu Feb  9 15:48:53 2017.
