 Gaussian 09, Revision E.01,
 Gaussian 09:  ES64L-G09RevE.01 30-Nov-2015

 ----------------------------------------------------------------------
 #rhf/gen scf(symm,tight,novaracc,noincfock,fulldiag) stable(crhf) geom
 =nocrowd test
 ----------------------------------------------------------------------

 hf stability analysis of h10 triangular lattice, y= 0.3592395840958503
 3
 ----------------------------------------------------------------------
 Symbolic Z-matrix:
 Charge =  0 Multiplicity = 1

                         Standard orientation:
 ---------------------------------------------------------------------
 Center     Atomic      Atomic             Coordinates (Angstroms)
 Number     Number       Type             X           Y           Z
 ---------------------------------------------------------------------
      1          1           0       -0.000000    0.359240    3.214291
      2          1           0       -0.000000    0.000000    4.821436
      3          1           0       -0.000000    0.000000    1.607145
      4          1           0       -0.000000   -0.359240    3.214291
      5          1           0       -0.000000    0.359240   -0.000000
      6          1           0       -0.000000   -0.359240    0.000000
      7          1           0        0.000000   -0.000000   -1.607145
      8          1           0        0.000000    0.359240   -3.214291
      9          1           0       -0.000000   -0.359240   -3.214291
     10          1           0        0.000000   -0.000000   -4.821436
 ---------------------------------------------------------------------

 SCF Done:  E(RHF) =  -4.84330474774     A.U. after    9 cycles
 E2 =    -0.1933005702D+00 EUMP2 =    -0.50366053179178D+01

 The electronic state is 1-AG.
 Alpha  occ. eigenvalues --   -0.71085  -0.69688  -0.66997  -0.30177  -0.24181
 Alpha virt. eigenvalues --   -0.02961   0.04029   0.35541   0.36873   0.39700

 Mulliken charges:
               1
     1  H    0.076826
     2  H   -0.135419
     3  H   -0.048934
     4  H    0.076826
     5  H    0.030701
     6  H    0.030701
     7  H   -0.048934
     8  H    0.076826
     9  H    0.076826
    10  H   -0.135419
 Sum of Mulliken charges =  -0.00000

 Dipole moment (field-independent basis, Debye):
    X=             -0.0000    Y=              0.0000    Z=              0.0000  Tot=              0.0000
 Quadrupole moment (field-independent basis, Debye-Ang):
   XX=            -13.5876   YY=            -12.1486   ZZ=            -31.9632
   XY=              0.0000   XZ=              0.0000   YZ=             -0.0000

 Normal termination of Gaussian 09 at Thu Feb  9 16:02:18 2017.
