 Gaussian 09, Revision E.01,
 Gaussian 09:  ES64L-G09RevE.01 30-Nov-2015

 ----------------------------------------------------------------------
 #rhf/gen scf(symm,tight,novaracc,noincfock,fulldiag) stable(crhf) geom
 =nocrowd test
 ----------------------------------------------------------------------

 hf stability analysis of h10 triangular lattice, y= 0.4621345648426362
 6
 ----------------------------------------------------------------------
 Symbolic Z-matrix:
 Charge =  0 Multiplicity = 1

                         Standard orientation:
 ---------------------------------------------------------------------
 Center     Atomic      Atomic             Coordinates (Angstroms)
 Number     Number       Type             X           Y           Z
 ---------------------------------------------------------------------
      1          1           0        0.000000    0.462135    2.498624
      2          1           0        0.000000   -0.000000    3.747936
      3          1           0        0.000000   -0.000000    1.249312
      4          1           0       -0.000000   -0.462135    2.498624
      5          1           0       -0.000000    0.462135    0.000000
      6          1           0       -0.000000   -0.462135   -0.000000
      7          1           0        0.000000    0.000000   -1.249312
      8          1           0        0.000000    0.462135   -2.498624
      9          1           0       -0.000000   -0.462135   -2.498624
     10          1           0        0.000000    0.000000   -3.747936
 ---------------------------------------------------------------------

 SCF Done:  E(RHF) =  -4.88425723489     A.U. after    9 cycles
 E2 =    -0.1034155039D+00 EUMP2 =    -0.49876727388261D+01

 The electronic state is 1-AG.
 Alpha  occ. eigenvalues --   -0.76131  -0.71342  -0.64058  -0.34000  -0.20934
 Alpha virt. eigenvalues --    0.13267   0.16534   0.21171   0.26619   0.29944

 Mulliken charges:
               1
     1  H    0.193290
     2  H   -0.325668
     3  H   -0.160897
     4  H    0.193290
     5  H    0.099985
     6  H    0.099985
     7  H   -0.160897
     8  H    0.193290
     9  H    0.193290
    10  H   -0.325668
 Sum of Mulliken charges =   0.00000

 Dipole moment (field-independent basis, Debye):
    X=             -0.0000    Y=              0.0000    Z=              0.0000  Tot=              0.0000
 Quadrupole moment (field-independent basis, Debye-Ang):
   XX=            -13.2565   YY=            -10.6265   ZZ=            -40.8764
   XY=              0.0000   XZ=              0.0000   YZ=             -0.0000

 Normal termination of Gaussian 09 at Thu Feb  9 15:56:09 2017.
