 Gaussian 09, Revision E.01,
 Gaussian 09:  ES64L-G09RevE.01 30-Nov-2015

 ----------------------------------------------------------------------
 #rhf/gen scf(symm,tight,novaracc,noincfock,fulldiag) stable(crhf) geom
 =nocrowd test
 ----------------------------------------------------------------------

 hf stability analysis of h10 triangular lattice, y= 0.3940059340805884
 8
 ----------------------------------------------------------------------
 Symbolic Z-matrix:
 Charge =  0 Multiplicity = 1

                         Standard orientation:
 ---------------------------------------------------------------------
 Center     Atomic      Atomic             Coordinates (Angstroms)
 Number     Number       Type             X           Y           Z
 ---------------------------------------------------------------------
      1          1           0        0.000000    0.394006    2.930668
      2          1           0       -0.000000    0.000000    4.396002
      3          1           0       -0.000000    0.000000    1.465334
      4          1           0       -0.000000   -0.394006    2.930668
      5          1           0        0.000000    0.394006    0.000000
      6          1           0       -0.000000   -0.394006    0.000000
      7          1           0        0.000000    0.000000   -1.465334
      8          1           0        0.000000    0.394006   -2.930668
      9          1           0       -0.000000   -0.394006   -2.930668
     10          1           0        0.000000    0.000000   -4.396002
 ---------------------------------------------------------------------

 SCF Done:  E(RHF) =  -4.89246044258     A.U. after    9 cycles
 E2 =    -0.1479506047D+00 EUMP2 =    -0.50404110473264D+01

 The electronic state is 1-AG.
 Alpha  occ. eigenvalues --   -0.72505  -0.70108  -0.66079  -0.31821  -0.23545
 Alpha virt. eigenvalues --    0.01832   0.11818   0.28580   0.30799   0.34465

 Mulliken charges:
               1
     1  H    0.116235
     2  H   -0.199581
     3  H   -0.085468
     4  H    0.116235
     5  H    0.052580
     6  H    0.052580
     7  H   -0.085468
     8  H    0.116235
     9  H    0.116235
    10  H   -0.199581
 Sum of Mulliken charges =  -0.00000

 Dipole moment (field-independent basis, Debye):
    X=             -0.0000    Y=              0.0000    Z=             -0.0000  Tot=              0.0000
 Quadrupole moment (field-independent basis, Debye-Ang):
   XX=            -13.5158   YY=            -11.7245   ZZ=            -36.0087
   XY=              0.0000   XZ=              0.0000   YZ=              0.0000

 Normal termination of Gaussian 09 at Thu Feb  9 16:00:34 2017.
