 Gaussian 09, Revision E.01,
 Gaussian 09:  ES64L-G09RevE.01 30-Nov-2015

 ----------------------------------------------------------------------
 #rhf/gen scf(symm,tight,novaracc,noincfock,fulldiag) stable(crhf) geom
 =nocrowd test
 ----------------------------------------------------------------------

 hf stability analysis of h10 triangular lattice, y= 0.4318322144434649
 8
 ----------------------------------------------------------------------
 Symbolic Z-matrix:
 Charge =  0 Multiplicity = 1

                         Standard orientation:
 ---------------------------------------------------------------------
 Center     Atomic      Atomic             Coordinates (Angstroms)
 Number     Number       Type             X           Y           Z
 ---------------------------------------------------------------------
      1          1           0        0.000000    0.431832    2.673956
      2          1           0        0.000000    0.000000    4.010935
      3          1           0        0.000000    0.000000    1.336978
      4          1           0       -0.000000   -0.431832    2.673956
      5          1           0        0.000000    0.431832    0.000000
      6          1           0       -0.000000   -0.431832   -0.000000
      7          1           0        0.000000    0.000000   -1.336978
      8          1           0        0.000000    0.431832   -2.673956
      9          1           0       -0.000000   -0.431832   -2.673956
     10          1           0        0.000000    0.000000   -4.010935
 ---------------------------------------------------------------------

 SCF Done:  E(RHF) =  -4.90419705102     A.U. after    8 cycles
 E2 =    -0.1180502978D+00 EUMP2 =    -0.50222473488457D+01

 The electronic state is 1-AG.
 Alpha  occ. eigenvalues --   -0.74454  -0.70765  -0.65019  -0.33248  -0.22337
 Alpha virt. eigenvalues --    0.07889   0.21530   0.21636   0.25107   0.29726

 Mulliken charges:
               1
     1  H    0.159697
     2  H   -0.270709
     3  H   -0.127282
     4  H    0.159697
     5  H    0.078597
     6  H    0.078597
     7  H   -0.127282
     8  H    0.159697
     9  H    0.159697
    10  H   -0.270709
 Sum of Mulliken charges =   0.00000

 Dipole moment (field-independent basis, Debye):
    X=             -0.0000    Y=             -0.0000    Z=              0.0000  Tot=              0.0000
 Quadrupole moment (field-independent basis, Debye-Ang):
   XX=            -13.3877   YY=            -11.1539   ZZ=            -39.1950
   XY=              0.0000   XZ=              0.0000   YZ=             -0.0000

 Normal termination of Gaussian 09 at Thu Feb  9 15:58:12 2017.
