 Gaussian 09, Revision E.01,
 Gaussian 09:  ES64L-G09RevE.01 30-Nov-2015

 ----------------------------------------------------------------------
 #rhf/gen scf(symm,tight,novaracc,noincfock,fulldiag) stable(crhf) geom
 =nocrowd test
 ----------------------------------------------------------------------

 hf stability analysis of h10 triangular lattice, y= 0.6506387228320011
 9
 ----------------------------------------------------------------------
 Symbolic Z-matrix:
 Charge =  0 Multiplicity = 1

                         Standard orientation:
 ---------------------------------------------------------------------
 Center     Atomic      Atomic             Coordinates (Angstroms)
 Number     Number       Type             X           Y           Z
 ---------------------------------------------------------------------
      1          1           0        0.000000    0.650639    1.774718
      2          1           0        0.000000    0.000000    2.662078
      3          1           0        0.000000    0.000000    0.887359
      4          1           0       -0.000000   -0.650639    1.774718
      5          1           0       -0.000000    0.650639    0.000000
      6          1           0       -0.000000   -0.650639    0.000000
      7          1           0        0.000000   -0.000000   -0.887359
      8          1           0        0.000000    0.650639   -1.774718
      9          1           0       -0.000000   -0.650639   -1.774718
     10          1           0        0.000000   -0.000000   -2.662078
 ---------------------------------------------------------------------

 SCF Done:  E(RHF) =  -4.81824830385     A.U. after    9 cycles
 E2 =    -0.1203706684D+00 EUMP2 =    -0.49386189722486D+01

 The electronic state is 1-AG.
 Alpha  occ. eigenvalues --   -0.82487  -0.73247  -0.55259  -0.29917  -0.29272
 Alpha virt. eigenvalues --   -0.00148   0.18535   0.20090   0.49410   0.70052

 Mulliken charges:
               1
     1  H    0.205207
     2  H   -0.186284
     3  H   -0.254565
     4  H    0.205207
     5  H    0.030435
     6  H    0.030435
     7  H   -0.254565
     8  H    0.205207
     9  H    0.205207
    10  H   -0.186284
 Sum of Mulliken charges =  -0.00000

 Dipole moment (field-independent basis, Debye):
    X=             -0.0000    Y=             -0.0000    Z=              0.0000  Tot=              0.0000
 Quadrupole moment (field-independent basis, Debye-Ang):
   XX=            -13.0005   YY=            -12.6361   ZZ=            -17.7107
   XY=              0.0000   XZ=              0.0000   YZ=             -0.0000

 Normal termination of Gaussian 09 at Thu Feb  9 15:42:19 2017.
