 Gaussian 09, Revision E.01,
 Gaussian 09:  ES64L-G09RevE.01 30-Nov-2015

 ----------------------------------------------------------------------
 #rhf/gen scf(symm,tight,novaracc,noincfock,fulldiag) stable(crhf) geom
 =nocrowd test
 ----------------------------------------------------------------------

 hf stability analysis of h10 triangular lattice, y= 0.4369672201147746
 2
 ----------------------------------------------------------------------
 Symbolic Z-matrix:
 Charge =  0 Multiplicity = 1

                         Standard orientation:
 ---------------------------------------------------------------------
 Center     Atomic      Atomic             Coordinates (Angstroms)
 Number     Number       Type             X           Y           Z
 ---------------------------------------------------------------------
      1          1           0        0.000000    0.436967    2.642534
      2          1           0       -0.000000    0.000000    3.963800
      3          1           0       -0.000000    0.000000    1.321267
      4          1           0       -0.000000   -0.436967    2.642534
      5          1           0        0.000000    0.436967   -0.000000
      6          1           0       -0.000000   -0.436967    0.000000
      7          1           0        0.000000   -0.000000   -1.321267
      8          1           0        0.000000    0.436967   -2.642534
      9          1           0       -0.000000   -0.436967   -2.642534
     10          1           0        0.000000   -0.000000   -3.963800
 ---------------------------------------------------------------------

 SCF Done:  E(RHF) =  -4.90260324446     A.U. after    9 cycles
 E2 =    -0.1150910795D+00 EUMP2 =    -0.50176943240009D+01

 The electronic state is 1-AG.
 Alpha  occ. eigenvalues --   -0.74735  -0.70862  -0.64864  -0.33402  -0.22127
 Alpha virt. eigenvalues --    0.08771   0.20743   0.22926   0.24403   0.29158

 Mulliken charges:
               1
     1  H    0.165494
     2  H   -0.280202
     3  H   -0.132990
     4  H    0.165494
     5  H    0.082205
     6  H    0.082205
     7  H   -0.132990
     8  H    0.165494
     9  H    0.165494
    10  H   -0.280202
 Sum of Mulliken charges =   0.00000

 Dipole moment (field-independent basis, Debye):
    X=             -0.0000    Y=              0.0000    Z=              0.0000  Tot=              0.0000
 Quadrupole moment (field-independent basis, Debye-Ang):
   XX=            -13.3670   YY=            -11.0686   ZZ=            -39.5311
   XY=              0.0000   XZ=              0.0000   YZ=             -0.0000

 Normal termination of Gaussian 09 at Thu Feb  9 15:57:52 2017.
