 Gaussian 09, Revision E.01,
 Gaussian 09:  ES64L-G09RevE.01 30-Nov-2015

 ----------------------------------------------------------------------
 #rhf/gen scf(symm,tight,novaracc,noincfock,fulldiag) stable(crhf) geom
 =nocrowd test
 ----------------------------------------------------------------------

 hf stability analysis of h10 triangular lattice, y= 0.3388836262365067
 0
 ----------------------------------------------------------------------
 Symbolic Z-matrix:
 Charge =  0 Multiplicity = 1

                         Standard orientation:
 ---------------------------------------------------------------------
 Center     Atomic      Atomic             Coordinates (Angstroms)
 Number     Number       Type             X           Y           Z
 ---------------------------------------------------------------------
      1          1           0        0.000000    0.338884    3.407366
      2          1           0        0.000000    0.000000    5.111049
      3          1           0        0.000000    0.000000    1.703683
      4          1           0       -0.000000   -0.338884    3.407366
      5          1           0       -0.000000    0.338884    0.000000
      6          1           0       -0.000000   -0.338884    0.000000
      7          1           0        0.000000    0.000000   -1.703683
      8          1           0        0.000000    0.338884   -3.407366
      9          1           0       -0.000000   -0.338884   -3.407366
     10          1           0        0.000000    0.000000   -5.111049
 ---------------------------------------------------------------------

 SCF Done:  E(RHF) =  -4.79600039944     A.U. after    9 cycles
 E2 =    -0.2313987817D+00 EUMP2 =    -0.50273991811510D+01

 The electronic state is 1-AG.
 Alpha  occ. eigenvalues --   -0.70526  -0.69589  -0.67568  -0.29149  -0.24371
 Alpha virt. eigenvalues --   -0.05378   0.00081   0.39866   0.40808   0.43139

 Mulliken charges:
               1
     1  H    0.055402
     2  H   -0.100686
     3  H   -0.029846
     4  H    0.055402
     5  H    0.019728
     6  H    0.019728
     7  H   -0.029846
     8  H    0.055402
     9  H    0.055402
    10  H   -0.100686
 Sum of Mulliken charges =   0.00000

 Dipole moment (field-independent basis, Debye):
    X=             -0.0000    Y=             -0.0000    Z=              0.0000  Tot=              0.0000
 Quadrupole moment (field-independent basis, Debye-Ang):
   XX=            -13.6071   YY=            -12.3490   ZZ=            -29.1864
   XY=              0.0000   XZ=              0.0000   YZ=             -0.0000

 Normal termination of Gaussian 09 at Thu Feb  9 16:03:14 2017.
