 Gaussian 09, Revision E.01,
 Gaussian 09:  ES64L-G09RevE.01 30-Nov-2015

 ----------------------------------------------------------------------
 #rhf/gen scf(symm,tight,novaracc,noincfock,fulldiag) stable(crhf) geom
 =nocrowd test
 ----------------------------------------------------------------------

 hf stability analysis of h10 triangular lattice, y= 0.5732777423758017
 6
 ----------------------------------------------------------------------
 Symbolic Z-matrix:
 Charge =  0 Multiplicity = 1

                         Standard orientation:
 ---------------------------------------------------------------------
 Center     Atomic      Atomic             Coordinates (Angstroms)
 Number     Number       Type             X           Y           Z
 ---------------------------------------------------------------------
      1          1           0       -0.000000    0.573278    2.014208
      2          1           0       -0.000000    0.000000    3.021312
      3          1           0       -0.000000    0.000000    1.007104
      4          1           0       -0.000000   -0.573278    2.014208
      5          1           0       -0.000000    0.573278    0.000000
      6          1           0       -0.000000   -0.573278    0.000000
      7          1           0        0.000000   -0.000000   -1.007104
      8          1           0        0.000000    0.573278   -2.014208
      9          1           0       -0.000000   -0.573278   -2.014208
     10          1           0        0.000000   -0.000000   -3.021312
 ---------------------------------------------------------------------

 SCF Done:  E(RHF) =  -4.75601045749     A.U. after    9 cycles
 E2 =    -0.1531627125D+00 EUMP2 =    -0.49091731699763D+01

 The electronic state is 1-AG.
 Alpha  occ. eigenvalues --   -0.78646  -0.72244  -0.57022  -0.31490  -0.20076
 Alpha virt. eigenvalues --    0.05112   0.07493   0.21657   0.36574   0.64408

 Mulliken charges:
               1
     1  H    0.123920
     2  H   -0.063288
     3  H   -0.177841
     4  H    0.123920
     5  H   -0.006711
     6  H   -0.006711
     7  H   -0.177841
     8  H    0.123920
     9  H    0.123920
    10  H   -0.063288
 Sum of Mulliken charges =  -0.00000

 Dipole moment (field-independent basis, Debye):
    X=             -0.0000    Y=             -0.0000    Z=             -0.0000  Tot=              0.0000
 Quadrupole moment (field-independent basis, Debye-Ang):
   XX=            -13.1748   YY=            -14.1121   ZZ=            -12.1677
   XY=             -0.0000   XZ=              0.0000   YZ=             -0.0000

 Normal termination of Gaussian 09 at Thu Feb  9 15:48:06 2017.
