 Gaussian 09, Revision E.01,
 Gaussian 09:  ES64L-G09RevE.01 30-Nov-2015

 ----------------------------------------------------------------------
 #rhf/gen scf(symm,tight,novaracc,noincfock,fulldiag) stable(crhf) geom
 =nocrowd test
 ----------------------------------------------------------------------

 hf stability analysis of h10 triangular lattice, y= 0.7453835268566910
 7
 ----------------------------------------------------------------------
 Symbolic Z-matrix:
 Charge =  0 Multiplicity = 1

                         Standard orientation:
 ---------------------------------------------------------------------
 Center     Atomic      Atomic             Coordinates (Angstroms)
 Number     Number       Type             X           Y           Z
 ---------------------------------------------------------------------
      1          1           0        0.000000    0.745384    1.549136
      2          1           0        0.000000   -0.000000    2.323704
      3          1           0        0.000000   -0.000000    0.774568
      4          1           0       -0.000000   -0.745384    1.549136
      5          1           0       -0.000000    0.745384    0.000000
      6          1           0       -0.000000   -0.745384   -0.000000
      7          1           0        0.000000    0.000000   -0.774568
      8          1           0        0.000000    0.745384   -1.549136
      9          1           0       -0.000000   -0.745384   -1.549136
     10          1           0        0.000000    0.000000   -2.323704
 ---------------------------------------------------------------------

 SCF Done:  E(RHF) =  -4.83575311898     A.U. after    8 cycles
 E2 =    -0.9800080670D-01 EUMP2 =    -0.49337539256769D+01

 The electronic state is 1-AG.
 Alpha  occ. eigenvalues --   -0.90439  -0.74533  -0.52441  -0.45150  -0.26903
 Alpha virt. eigenvalues --   -0.03051   0.14805   0.32635   0.54422   0.55037

 Mulliken charges:
               1
     1  H   -0.217917
     2  H    0.242493
     3  H    0.163469
     4  H   -0.217917
     5  H    0.029872
     6  H    0.029872
     7  H    0.163469
     8  H   -0.217917
     9  H   -0.217917
    10  H    0.242493
 Sum of Mulliken charges =  -0.00000

 Dipole moment (field-independent basis, Debye):
    X=              0.0000    Y=             -0.0000    Z=             -0.0000  Tot=              0.0000
 Quadrupole moment (field-independent basis, Debye-Ang):
   XX=            -13.0117   YY=            -18.7392   ZZ=            -10.3604
   XY=             -0.0000   XZ=             -0.0000   YZ=              0.0000

 Normal termination of Gaussian 09 at Thu Feb  9 15:35:45 2017.
