 Gaussian 09, Revision E.01,
 Gaussian 09:  ES64L-G09RevE.01 30-Nov-2015

 ----------------------------------------------------------------------
 #rhf/gen scf(symm,tight,novaracc,noincfock,fulldiag) stable(crhf) geom
 =nocrowd test
 ----------------------------------------------------------------------

 hf stability analysis of h10 triangular lattice, y= 0.5075991050976927
 9
 ----------------------------------------------------------------------
 Symbolic Z-matrix:
 Charge =  0 Multiplicity = 1

                         Standard orientation:
 ---------------------------------------------------------------------
 Center     Atomic      Atomic             Coordinates (Angstroms)
 Number     Number       Type             X           Y           Z
 ---------------------------------------------------------------------
      1          1           0        0.000000    0.507599    2.274828
      2          1           0        0.000000    0.000000    3.412242
      3          1           0        0.000000    0.000000    1.137414
      4          1           0       -0.000000   -0.507599    2.274828
      5          1           0        0.000000    0.507599    0.000000
      6          1           0       -0.000000   -0.507599   -0.000000
      7          1           0        0.000000   -0.000000   -1.137414
      8          1           0        0.000000    0.507599   -2.274828
      9          1           0       -0.000000   -0.507599   -2.274828
     10          1           0        0.000000   -0.000000   -3.412242
 ---------------------------------------------------------------------

 SCF Done:  E(RHF) =  -4.80940862907     A.U. after    9 cycles
 E2 =    -0.9131680828D-01 EUMP2 =    -0.49007254373527D+01

 The electronic state is 1-AG.
 Alpha  occ. eigenvalues --   -0.78592  -0.72143  -0.62374  -0.34366  -0.18048
 Alpha virt. eigenvalues --    0.09615   0.16148   0.21965   0.22979   0.42800

 Mulliken charges:
               1
     1  H    0.240312
     2  H   -0.402116
     3  H   -0.210586
     4  H    0.240312
     5  H    0.132078
     6  H    0.132078
     7  H   -0.210586
     8  H    0.240312
     9  H    0.240312
    10  H   -0.402116
 Sum of Mulliken charges =  -0.00000

 Dipole moment (field-independent basis, Debye):
    X=             -0.0000    Y=              0.0000    Z=             -0.0000  Tot=              0.0000
 Quadrupole moment (field-independent basis, Debye-Ang):
   XX=            -13.0290   YY=             -9.7415   ZZ=            -42.2386
   XY=              0.0000   XZ=              0.0000   YZ=             -0.0000

 Normal termination of Gaussian 09 at Thu Feb  9 15:52:56 2017.
