 Gaussian 09, Revision E.01,
 Gaussian 09:  ES64L-G09RevE.01 30-Nov-2015

 ----------------------------------------------------------------------
 #rhf/gen scf(symm,tight,novaracc,noincfock,fulldiag) stable(crhf) geom
 =nocrowd test
 ----------------------------------------------------------------------

 hf stability analysis of h10 triangular lattice, y= 0.5703684497010743
 6
 ----------------------------------------------------------------------
 Symbolic Z-matrix:
 Charge =  0 Multiplicity = 1

                         Standard orientation:
 ---------------------------------------------------------------------
 Center     Atomic      Atomic             Coordinates (Angstroms)
 Number     Number       Type             X           Y           Z
 ---------------------------------------------------------------------
      1          1           0        0.000000    0.570368    2.024482
      2          1           0        0.000000   -0.000000    3.036723
      3          1           0        0.000000   -0.000000    1.012241
      4          1           0       -0.000000   -0.570368    2.024482
      5          1           0       -0.000000    0.570368    0.000000
      6          1           0       -0.000000   -0.570368   -0.000000
      7          1           0        0.000000    0.000000   -1.012241
      8          1           0        0.000000    0.570368   -2.024482
      9          1           0       -0.000000   -0.570368   -2.024482
     10          1           0        0.000000    0.000000   -3.036723
 ---------------------------------------------------------------------

 SCF Done:  E(RHF) =  -4.75177630586     A.U. after    9 cycles
 E2 =    -0.1548192772D+00 EUMP2 =    -0.49065955830921D+01

 The electronic state is 1-AG.
 Alpha  occ. eigenvalues --   -0.78480  -0.72179  -0.57061  -0.31521  -0.19662
 Alpha virt. eigenvalues --    0.05350   0.07105   0.21762   0.36030   0.63916

 Mulliken charges:
               1
     1  H    0.120544
     2  H   -0.058408
     3  H   -0.174093
     4  H    0.120544
     5  H   -0.008587
     6  H   -0.008587
     7  H   -0.174093
     8  H    0.120544
     9  H    0.120544
    10  H   -0.058408
 Sum of Mulliken charges =  -0.00000

 Dipole moment (field-independent basis, Debye):
    X=             -0.0000    Y=              0.0000    Z=             -0.0000  Tot=              0.0000
 Quadrupole moment (field-independent basis, Debye-Ang):
   XX=            -13.1810   YY=            -14.1619   ZZ=            -11.9011
   XY=             -0.0000   XZ=              0.0000   YZ=             -0.0000

 Normal termination of Gaussian 09 at Thu Feb  9 15:48:19 2017.
