 Gaussian 09, Revision E.01,
 Gaussian 09:  ES64L-G09RevE.01 30-Nov-2015

 ----------------------------------------------------------------------
 #rhf/gen scf(symm,tight,novaracc,noincfock,fulldiag) stable(crhf) geom
 =nocrowd test
 ----------------------------------------------------------------------

 hf stability analysis of h10 triangular lattice, y= 0.6093965744756328
 9
 ----------------------------------------------------------------------
 Symbolic Z-matrix:
 Charge =  0 Multiplicity = 1

                         Standard orientation:
 ---------------------------------------------------------------------
 Center     Atomic      Atomic             Coordinates (Angstroms)
 Number     Number       Type             X           Y           Z
 ---------------------------------------------------------------------
      1          1           0       -0.000000    0.609397    1.894826
      2          1           0       -0.000000   -0.000000    2.842239
      3          1           0       -0.000000   -0.000000    0.947413
      4          1           0       -0.000000   -0.609397    1.894826
      5          1           0       -0.000000    0.609397    0.000000
      6          1           0       -0.000000   -0.609397   -0.000000
      7          1           0        0.000000    0.000000   -0.947413
      8          1           0        0.000000    0.609397   -1.894826
      9          1           0       -0.000000   -0.609397   -1.894826
     10          1           0        0.000000    0.000000   -2.842239
 ---------------------------------------------------------------------

 SCF Done:  E(RHF) =  -4.79653259063     A.U. after    9 cycles
 E2 =    -0.1354235260D+00 EUMP2 =    -0.49319561166271D+01

 The electronic state is 1-AG.
 Alpha  occ. eigenvalues --   -0.80585  -0.72888  -0.56375  -0.30787  -0.24938
 Alpha virt. eigenvalues --    0.02414   0.12491   0.20651   0.43050   0.68913

 Mulliken charges:
               1
     1  H    0.164031
     2  H   -0.122554
     3  H   -0.219328
     4  H    0.164031
     5  H    0.013820
     6  H    0.013820
     7  H   -0.219328
     8  H    0.164031
     9  H    0.164031
    10  H   -0.122554
 Sum of Mulliken charges =   0.00000

 Dipole moment (field-independent basis, Debye):
    X=             -0.0000    Y=             -0.0000    Z=             -0.0000  Tot=              0.0000
 Quadrupole moment (field-independent basis, Debye-Ang):
   XX=            -13.0948   YY=            -13.4561   ZZ=            -15.1009
   XY=              0.0000   XZ=              0.0000   YZ=              0.0000

 Normal termination of Gaussian 09 at Thu Feb  9 15:45:22 2017.
