 Gaussian 09, Revision E.01,
 Gaussian 09:  ES64L-G09RevE.01 30-Nov-2015

 ----------------------------------------------------------------------
 #rhf/gen scf(symm,tight,novaracc,noincfock,fulldiag) stable(crhf) geom
 =nocrowd test
 ----------------------------------------------------------------------

 hf stability analysis of h10 triangular lattice, y= 0.4726097551311873
 6
 ----------------------------------------------------------------------
 Symbolic Z-matrix:
 Charge =  0 Multiplicity = 1

                         Standard orientation:
 ---------------------------------------------------------------------
 Center     Atomic      Atomic             Coordinates (Angstroms)
 Number     Number       Type             X           Y           Z
 ---------------------------------------------------------------------
      1          1           0       -0.000000    0.472610    2.443243
      2          1           0       -0.000000    0.000000    3.664865
      3          1           0       -0.000000    0.000000    1.221622
      4          1           0       -0.000000   -0.472610    2.443243
      5          1           0       -0.000000    0.472610   -0.000000
      6          1           0       -0.000000   -0.472610    0.000000
      7          1           0        0.000000   -0.000000   -1.221622
      8          1           0        0.000000    0.472610   -2.443243
      9          1           0       -0.000000   -0.472610   -2.443243
     10          1           0        0.000000   -0.000000   -3.664865
 ---------------------------------------------------------------------

 SCF Done:  E(RHF) =  -4.87162075564     A.U. after    9 cycles
 E2 =    -0.9973222474D-01 EUMP2 =    -0.49713529803844D+01

 The electronic state is 1-AG.
 Alpha  occ. eigenvalues --   -0.76712  -0.71539  -0.63697  -0.34168  -0.20353
 Alpha virt. eigenvalues --    0.14863   0.15215   0.19926   0.25677   0.32920

 Mulliken charges:
               1
     1  H    0.204513
     2  H   -0.343979
     3  H   -0.172449
     4  H    0.204513
     5  H    0.107402
     6  H    0.107402
     7  H   -0.172449
     8  H    0.204513
     9  H    0.204513
    10  H   -0.343979
 Sum of Mulliken charges =  -0.00000

 Dipole moment (field-independent basis, Debye):
    X=             -0.0000    Y=             -0.0000    Z=              0.0000  Tot=              0.0000
 Quadrupole moment (field-independent basis, Debye-Ang):
   XX=            -13.2067   YY=            -10.4317   ZZ=            -41.3012
   XY=              0.0000   XZ=              0.0000   YZ=             -0.0000

 Normal termination of Gaussian 09 at Thu Feb  9 15:55:25 2017.
