 Gaussian 09, Revision E.01,
 Gaussian 09:  ES64L-G09RevE.01 30-Nov-2015

 ----------------------------------------------------------------------
 #rhf/gen scf(symm,tight,novaracc,noincfock,fulldiag) stable(crhf) geom
 =nocrowd test
 ----------------------------------------------------------------------

 hf stability analysis of h10 triangular lattice, y= 0.4590305857464793
 7
 ----------------------------------------------------------------------
 Symbolic Z-matrix:
 Charge =  0 Multiplicity = 1

                         Standard orientation:
 ---------------------------------------------------------------------
 Center     Atomic      Atomic             Coordinates (Angstroms)
 Number     Number       Type             X           Y           Z
 ---------------------------------------------------------------------
      1          1           0       -0.000000    0.459031    2.515520
      2          1           0       -0.000000   -0.000000    3.773280
      3          1           0       -0.000000   -0.000000    1.257760
      4          1           0       -0.000000   -0.459031    2.515520
      5          1           0       -0.000000    0.459031    0.000000
      6          1           0       -0.000000   -0.459031   -0.000000
      7          1           0        0.000000    0.000000   -1.257760
      8          1           0        0.000000    0.459031   -2.515520
      9          1           0       -0.000000   -0.459031   -2.515520
     10          1           0        0.000000    0.000000   -3.773280
 ---------------------------------------------------------------------

 SCF Done:  E(RHF) =  -4.88744714121     A.U. after    9 cycles
 E2 =    -0.1046283890D+00 EUMP2 =    -0.49920755301859D+01

 The electronic state is 1-AG.
 Alpha  occ. eigenvalues --   -0.75958  -0.71283  -0.64162  -0.33941  -0.21096
 Alpha virt. eigenvalues --    0.12698   0.17039   0.21551   0.26910   0.29067

 Mulliken charges:
               1
     1  H    0.189923
     2  H   -0.320169
     3  H   -0.157465
     4  H    0.189923
     5  H    0.097787
     6  H    0.097787
     7  H   -0.157465
     8  H    0.189923
     9  H    0.189923
    10  H   -0.320169
 Sum of Mulliken charges =  -0.00000

 Dipole moment (field-independent basis, Debye):
    X=             -0.0000    Y=             -0.0000    Z=              0.0000  Tot=              0.0000
 Quadrupole moment (field-independent basis, Debye-Ang):
   XX=            -13.2708   YY=            -10.6831   ZZ=            -40.7361
   XY=              0.0000   XZ=              0.0000   YZ=              0.0000

 Normal termination of Gaussian 09 at Thu Feb  9 15:56:21 2017.
