 Gaussian 09, Revision E.01,
 Gaussian 09:  ES64L-G09RevE.01 30-Nov-2015

 ----------------------------------------------------------------------
 #rhf/gen scf(symm,tight,novaracc,noincfock,fulldiag) stable(crhf) geom
 =nocrowd test
 ----------------------------------------------------------------------

 hf stability analysis of h10 triangular lattice, y= 0.5046204687822182
 2
 ----------------------------------------------------------------------
 Symbolic Z-matrix:
 Charge =  0 Multiplicity = 1

                         Standard orientation:
 ---------------------------------------------------------------------
 Center     Atomic      Atomic             Coordinates (Angstroms)
 Number     Number       Type             X           Y           Z
 ---------------------------------------------------------------------
      1          1           0       -0.000000    0.504620    2.288255
      2          1           0       -0.000000    0.000000    3.432383
      3          1           0       -0.000000    0.000000    1.144128
      4          1           0       -0.000000   -0.504620    2.288255
      5          1           0        0.000000    0.504620    0.000000
      6          1           0       -0.000000   -0.504620    0.000000
      7          1           0        0.000000    0.000000   -1.144128
      8          1           0        0.000000    0.504620   -2.288255
      9          1           0       -0.000000   -0.504620   -2.288255
     10          1           0        0.000000    0.000000   -3.432383
 ---------------------------------------------------------------------

 SCF Done:  E(RHF) =  -4.81585243136     A.U. after    9 cycles
 E2 =    -0.9182974011D-01 EUMP2 =    -0.49076821714728D+01

 The electronic state is 1-AG.
 Alpha  occ. eigenvalues --   -0.78437  -0.72096  -0.62494  -0.34371  -0.18266
 Alpha virt. eigenvalues --    0.10042   0.16449   0.21379   0.23184   0.41975

 Mulliken charges:
               1
     1  H    0.237371
     2  H   -0.397357
     3  H   -0.207374
     4  H    0.237371
     5  H    0.129990
     6  H    0.129990
     7  H   -0.207374
     8  H    0.237371
     9  H    0.237371
    10  H   -0.397357
 Sum of Mulliken charges =  -0.00000

 Dipole moment (field-independent basis, Debye):
    X=             -0.0000    Y=              0.0000    Z=              0.0000  Tot=              0.0000
 Quadrupole moment (field-independent basis, Debye-Ang):
   XX=            -13.0447   YY=             -9.8024   ZZ=            -42.1843
   XY=              0.0000   XZ=              0.0000   YZ=              0.0000

 Normal termination of Gaussian 09 at Thu Feb  9 15:53:09 2017.
