 Gaussian 09, Revision E.01,
 Gaussian 09:  ES64L-G09RevE.01 30-Nov-2015

 ----------------------------------------------------------------------
 #rhf/gen scf(symm,tight,novaracc,noincfock,fulldiag) stable(crhf) geom
 =nocrowd test
 ----------------------------------------------------------------------

 hf stability analysis of h10 triangular lattice, y= 0.4088881785656025
 6
 ----------------------------------------------------------------------
 Symbolic Z-matrix:
 Charge =  0 Multiplicity = 1

                         Standard orientation:
 ---------------------------------------------------------------------
 Center     Atomic      Atomic             Coordinates (Angstroms)
 Number     Number       Type             X           Y           Z
 ---------------------------------------------------------------------
      1          1           0        0.000000    0.408888    2.824001
      2          1           0       -0.000000    0.000000    4.236001
      3          1           0       -0.000000    0.000000    1.412000
      4          1           0       -0.000000   -0.408888    2.824001
      5          1           0       -0.000000    0.408888   -0.000000
      6          1           0       -0.000000   -0.408888    0.000000
      7          1           0        0.000000   -0.000000   -1.412000
      8          1           0        0.000000    0.408888   -2.824001
      9          1           0       -0.000000   -0.408888   -2.824001
     10          1           0        0.000000   -0.000000   -4.236001
 ---------------------------------------------------------------------

 SCF Done:  E(RHF) =  -4.90209683802     A.U. after    8 cycles
 E2 =    -0.1342665896D+00 EUMP2 =    -0.50363634276587D+01

 The electronic state is 1-AG.
 Alpha  occ. eigenvalues --   -0.73238  -0.70351  -0.65676  -0.32439  -0.23138
 Alpha virt. eigenvalues --    0.04119   0.15505   0.25770   0.28449   0.32482

 Mulliken charges:
               1
     1  H    0.133431
     2  H   -0.227697
     3  H   -0.101820
     4  H    0.133431
     5  H    0.062656
     6  H    0.062656
     7  H   -0.101820
     8  H    0.133431
     9  H    0.133431
    10  H   -0.227697
 Sum of Mulliken charges =  -0.00000

 Dipole moment (field-independent basis, Debye):
    X=             -0.0000    Y=             -0.0000    Z=              0.0000  Tot=              0.0000
 Quadrupole moment (field-independent basis, Debye-Ang):
   XX=            -13.4710   YY=            -11.5127   ZZ=            -37.4157
   XY=              0.0000   XZ=              0.0000   YZ=             -0.0000

 Normal termination of Gaussian 09 at Thu Feb  9 15:59:41 2017.
