 Gaussian 09, Revision E.01,
 Gaussian 09:  ES64L-G09RevE.01 30-Nov-2015

 ----------------------------------------------------------------------
 #rhf/gen scf(symm,tight,novaracc,noincfock,fulldiag) stable(crhf) geom
 =nocrowd test
 ----------------------------------------------------------------------

 hf stability analysis of h10 triangular lattice, y= 0.2980984873290020
 2
 ----------------------------------------------------------------------
 Symbolic Z-matrix:
 Charge =  0 Multiplicity = 1

                         Standard orientation:
 ---------------------------------------------------------------------
 Center     Atomic      Atomic             Coordinates (Angstroms)
 Number     Number       Type             X           Y           Z
 ---------------------------------------------------------------------
      1          1           0        0.000000    0.298098    3.873554
      2          1           0        0.000000   -0.000000    5.810331
      3          1           0        0.000000   -0.000000    1.936777
      4          1           0       -0.000000   -0.298098    3.873554
      5          1           0        0.000000    0.298098    0.000000
      6          1           0       -0.000000   -0.298098   -0.000000
      7          1           0        0.000000    0.000000   -1.936777
      8          1           0        0.000000    0.298098   -3.873554
      9          1           0       -0.000000   -0.298098   -3.873554
     10          1           0        0.000000    0.000000   -5.810331
 ---------------------------------------------------------------------

 SCF Done:  E(RHF) =  -4.65248724799     A.U. after    9 cycles
 E2 =    -0.3415619826D+00 EUMP2 =    -0.49940492305498D+01

 The electronic state is 1-AG.
 Alpha  occ. eigenvalues --   -0.70274  -0.69931  -0.68983  -0.27139  -0.24427
 Alpha virt. eigenvalues --   -0.09280  -0.06300   0.48975   0.49393   0.50726

 Mulliken charges:
               1
     1  H    0.020790
     2  H   -0.044137
     3  H   -0.001759
     4  H    0.020790
     5  H    0.004317
     6  H    0.004317
     7  H   -0.001759
     8  H    0.020790
     9  H    0.020790
    10  H   -0.044137
 Sum of Mulliken charges =  -0.00000

 Dipole moment (field-independent basis, Debye):
    X=             -0.0000    Y=              0.0000    Z=              0.0000  Tot=              0.0000
 Quadrupole moment (field-independent basis, Debye-Ang):
   XX=            -13.6053   YY=            -12.6540   ZZ=            -23.3295
   XY=              0.0000   XZ=              0.0000   YZ=             -0.0000

 Normal termination of Gaussian 09 at Thu Feb  9 16:04:55 2017.
