 Gaussian 09, Revision E.01,
 Gaussian 09:  ES64L-G09RevE.01 30-Nov-2015

 ----------------------------------------------------------------------
 #rhf/gen scf(symm,tight,novaracc,noincfock,fulldiag) stable(crhf) geom
 =nocrowd test
 ----------------------------------------------------------------------

 hf stability analysis of h10 triangular lattice, y= 0.6387729204659229
 3
 ----------------------------------------------------------------------
 Symbolic Z-matrix:
 Charge =  0 Multiplicity = 1

                         Standard orientation:
 ---------------------------------------------------------------------
 Center     Atomic      Atomic             Coordinates (Angstroms)
 Number     Number       Type             X           Y           Z
 ---------------------------------------------------------------------
      1          1           0        0.000000    0.638773    1.807685
      2          1           0        0.000000    0.000000    2.711528
      3          1           0        0.000000    0.000000    0.903843
      4          1           0       -0.000000   -0.638773    1.807685
      5          1           0       -0.000000    0.638773    0.000000
      6          1           0       -0.000000   -0.638773   -0.000000
      7          1           0        0.000000   -0.000000   -0.903843
      8          1           0        0.000000    0.638773   -1.807685
      9          1           0       -0.000000   -0.638773   -1.807685
     10          1           0        0.000000   -0.000000   -2.711528
 ---------------------------------------------------------------------

 SCF Done:  E(RHF) =  -4.81447141191     A.U. after    9 cycles
 E2 =    -0.1242214031D+00 EUMP2 =    -0.49386928150162D+01

 The electronic state is 1-AG.
 Alpha  occ. eigenvalues --   -0.81975  -0.73185  -0.55620  -0.29783  -0.28542
 Alpha virt. eigenvalues --    0.00538   0.16768   0.20193   0.47726   0.70168

 Mulliken charges:
               1
     1  H    0.193912
     2  H   -0.168452
     3  H   -0.245817
     4  H    0.193912
     5  H    0.026445
     6  H    0.026445
     7  H   -0.245817
     8  H    0.193912
     9  H    0.193912
    10  H   -0.168452
 Sum of Mulliken charges =   0.00000

 Dipole moment (field-independent basis, Debye):
    X=             -0.0000    Y=              0.0000    Z=             -0.0000  Tot=              0.0000
 Quadrupole moment (field-independent basis, Debye-Ang):
   XX=            -13.0277   YY=            -12.8784   ZZ=            -17.0309
   XY=              0.0000   XZ=              0.0000   YZ=             -0.0000

 Normal termination of Gaussian 09 at Thu Feb  9 15:43:12 2017.
