 Gaussian 09, Revision E.01,
 Gaussian 09:  ES64L-G09RevE.01 30-Nov-2015

 ----------------------------------------------------------------------
 #rhf/gen scf(symm,tight,novaracc,noincfock,fulldiag) stable(crhf) geom
 =nocrowd test
 ----------------------------------------------------------------------

 hf stability analysis of h10 triangular lattice, y= 0.5977250200806807
 4
 ----------------------------------------------------------------------
 Symbolic Z-matrix:
 Charge =  0 Multiplicity = 1

                         Standard orientation:
 ---------------------------------------------------------------------
 Center     Atomic      Atomic             Coordinates (Angstroms)
 Number     Number       Type             X           Y           Z
 ---------------------------------------------------------------------
      1          1           0       -0.000000    0.597725    1.931826
      2          1           0       -0.000000    0.000000    2.897739
      3          1           0       -0.000000    0.000000    0.965913
      4          1           0       -0.000000   -0.597725    1.931826
      5          1           0       -0.000000    0.597725   -0.000000
      6          1           0       -0.000000   -0.597725    0.000000
      7          1           0        0.000000   -0.000000   -0.965913
      8          1           0        0.000000    0.597725   -1.931826
      9          1           0       -0.000000   -0.597725   -1.931826
     10          1           0        0.000000   -0.000000   -2.897739
 ---------------------------------------------------------------------

 SCF Done:  E(RHF) =  -4.78578588540     A.U. after    9 cycles
 E2 =    -0.1406254346D+00 EUMP2 =    -0.49264113200352D+01

 The electronic state is 1-AG.
 Alpha  occ. eigenvalues --   -0.79985  -0.72713  -0.56618  -0.31078  -0.23422
 Alpha virt. eigenvalues --    0.03236   0.10841   0.20920   0.41027   0.67801

 Mulliken charges:
               1
     1  H    0.151450
     2  H   -0.103702
     3  H   -0.206962
     4  H    0.151450
     5  H    0.007764
     6  H    0.007764
     7  H   -0.206962
     8  H    0.151450
     9  H    0.151450
    10  H   -0.103702
 Sum of Mulliken charges =  -0.00000

 Dipole moment (field-independent basis, Debye):
    X=             -0.0000    Y=             -0.0000    Z=             -0.0000  Tot=              0.0000
 Quadrupole moment (field-independent basis, Debye-Ang):
   XX=            -13.1211   YY=            -13.6753   ZZ=            -14.2258
   XY=              0.0000   XZ=              0.0000   YZ=             -0.0000

 Normal termination of Gaussian 09 at Thu Feb  9 15:46:15 2017.
