 Gaussian 09, Revision E.01,
 Gaussian 09:  ES64L-G09RevE.01 30-Nov-2015

 ----------------------------------------------------------------------
 #rhf/gen scf(symm,tight,novaracc,noincfock,fulldiag) stable(crhf) geom
 =nocrowd test
 ----------------------------------------------------------------------

 hf stability analysis of h10 triangular lattice, y= 0.4713833666682978
 9
 ----------------------------------------------------------------------
 Symbolic Z-matrix:
 Charge =  0 Multiplicity = 1

                         Standard orientation:
 ---------------------------------------------------------------------
 Center     Atomic      Atomic             Coordinates (Angstroms)
 Number     Number       Type             X           Y           Z
 ---------------------------------------------------------------------
      1          1           0        0.000000    0.471383    2.449600
      2          1           0        0.000000    0.000000    3.674400
      3          1           0        0.000000    0.000000    1.224800
      4          1           0       -0.000000   -0.471383    2.449600
      5          1           0        0.000000    0.471383    0.000000
      6          1           0       -0.000000   -0.471383    0.000000
      7          1           0        0.000000   -0.000000   -1.224800
      8          1           0        0.000000    0.471383   -2.449600
      9          1           0       -0.000000   -0.471383   -2.449600
     10          1           0        0.000000   -0.000000   -3.674400
 ---------------------------------------------------------------------

 SCF Done:  E(RHF) =  -4.87324780458     A.U. after    9 cycles
 E2 =    -0.1001322306D+00 EUMP2 =    -0.49733800352082D+01

 The electronic state is 1-AG.
 Alpha  occ. eigenvalues --   -0.76644  -0.71516  -0.63740  -0.34151  -0.20424
 Alpha virt. eigenvalues --    0.14985   0.15057   0.20069   0.25784   0.32571

 Mulliken charges:
               1
     1  H    0.203211
     2  H   -0.341856
     3  H   -0.171099
     4  H    0.203211
     5  H    0.106534
     6  H    0.106534
     7  H   -0.171099
     8  H    0.203211
     9  H    0.203211
    10  H   -0.341856
 Sum of Mulliken charges =  -0.00000

 Dipole moment (field-independent basis, Debye):
    X=             -0.0000    Y=             -0.0000    Z=             -0.0000  Tot=              0.0000
 Quadrupole moment (field-independent basis, Debye-Ang):
   XX=            -13.2126   YY=            -10.4549   ZZ=            -41.2552
   XY=              0.0000   XZ=              0.0000   YZ=             -0.0000

 Normal termination of Gaussian 09 at Thu Feb  9 15:55:31 2017.
