 Gaussian 09, Revision E.01,
 Gaussian 09:  ES64L-G09RevE.01 30-Nov-2015

 ----------------------------------------------------------------------
 #rhf/gen scf(symm,tight,novaracc,noincfock,fulldiag) stable(crhf) geom
 =nocrowd test
 ----------------------------------------------------------------------

 hf stability analysis of h10 triangular lattice, y= 0.5229999010270653
 9
 ----------------------------------------------------------------------
 Symbolic Z-matrix:
 Charge =  0 Multiplicity = 1

                         Standard orientation:
 ---------------------------------------------------------------------
 Center     Atomic      Atomic             Coordinates (Angstroms)
 Number     Number       Type             X           Y           Z
 ---------------------------------------------------------------------
      1          1           0        0.000000    0.523000    2.207841
      2          1           0        0.000000   -0.000000    3.311761
      3          1           0        0.000000   -0.000000    1.103920
      4          1           0       -0.000000   -0.523000    2.207841
      5          1           0       -0.000000    0.523000    0.000000
      6          1           0       -0.000000   -0.523000   -0.000000
      7          1           0        0.000000    0.000000   -1.103920
      8          1           0        0.000000    0.523000   -2.207841
      9          1           0       -0.000000   -0.523000   -2.207841
     10          1           0        0.000000    0.000000   -3.311761
 ---------------------------------------------------------------------

 SCF Done:  E(RHF) =  -4.77287610703     A.U. after    8 cycles
 E2 =    -0.8919366670D-01 EUMP2 =    -0.48620697737278D+01

 The electronic state is 1-AG.
 Alpha  occ. eigenvalues --   -0.79372  -0.72368  -0.61734  -0.34274  -0.16854
 Alpha virt. eigenvalues --    0.07464   0.14654   0.21995   0.25015   0.46970

 Mulliken charges:
               1
     1  H    0.255192
     2  H   -0.426141
     3  H   -0.227053
     4  H    0.255192
     5  H    0.142810
     6  H    0.142810
     7  H   -0.227053
     8  H    0.255192
     9  H    0.255192
    10  H   -0.426141
 Sum of Mulliken charges =  -0.00000

 Dipole moment (field-independent basis, Debye):
    X=             -0.0000    Y=              0.0000    Z=              0.0000  Tot=              0.0000
 Quadrupole moment (field-independent basis, Debye-Ang):
   XX=            -12.9469   YY=             -9.4208   ZZ=            -42.4541
   XY=              0.0000   XZ=              0.0000   YZ=              0.0000

 Normal termination of Gaussian 09 at Thu Feb  9 15:51:49 2017.
