 Gaussian 09, Revision E.01,
 Gaussian 09:  ES64L-G09RevE.01 30-Nov-2015

 ----------------------------------------------------------------------
 #rhf/gen scf(symm,tight,novaracc,noincfock,fulldiag) stable(crhf) geom
 =nocrowd test
 ----------------------------------------------------------------------

 hf stability analysis of h10 triangular lattice, y= 0.7421352897726161
 1
 ----------------------------------------------------------------------
 Symbolic Z-matrix:
 Charge =  0 Multiplicity = 1

                         Standard orientation:
 ---------------------------------------------------------------------
 Center     Atomic      Atomic             Coordinates (Angstroms)
 Number     Number       Type             X           Y           Z
 ---------------------------------------------------------------------
      1          1           0        0.000000    0.742135    1.555917
      2          1           0        0.000000    0.000000    2.333875
      3          1           0        0.000000    0.000000    0.777958
      4          1           0       -0.000000   -0.742135    1.555917
      5          1           0       -0.000000    0.742135   -0.000000
      6          1           0       -0.000000   -0.742135    0.000000
      7          1           0        0.000000   -0.000000   -0.777958
      8          1           0        0.000000    0.742135   -1.555917
      9          1           0       -0.000000   -0.742135   -1.555917
     10          1           0        0.000000   -0.000000   -2.333875
 ---------------------------------------------------------------------

 SCF Done:  E(RHF) =  -4.83066949844     A.U. after    8 cycles
 E2 =    -0.9813456107D-01 EUMP2 =    -0.49288040595075D+01

 The electronic state is 1-AG.
 Alpha  occ. eigenvalues --   -0.90298  -0.74492  -0.52563  -0.44876  -0.26731
 Alpha virt. eigenvalues --   -0.03296   0.14733   0.32173   0.54976   0.54984

 Mulliken charges:
               1
     1  H   -0.219962
     2  H    0.245776
     3  H    0.166285
     4  H   -0.219962
     5  H    0.027863
     6  H    0.027863
     7  H    0.166285
     8  H   -0.219962
     9  H   -0.219962
    10  H    0.245776
 Sum of Mulliken charges =   0.00000

 Dipole moment (field-independent basis, Debye):
    X=              0.0000    Y=              0.0000    Z=              0.0000  Tot=              0.0000
 Quadrupole moment (field-independent basis, Debye-Ang):
   XX=            -13.0137   YY=            -18.7773   ZZ=            -10.1943
   XY=             -0.0000   XZ=             -0.0000   YZ=              0.0000

 Normal termination of Gaussian 09 at Thu Feb  9 15:35:58 2017.
