 Gaussian 09, Revision E.01,
 Gaussian 09:  ES64L-G09RevE.01 30-Nov-2015

 ----------------------------------------------------------------------
 #rhf/gen scf(symm,tight,novaracc,noincfock,fulldiag) stable(crhf) geom
 =nocrowd test
 ----------------------------------------------------------------------

 hf stability analysis of h10 triangular lattice, y= 0.4670786803369440
 5
 ----------------------------------------------------------------------
 Symbolic Z-matrix:
 Charge =  0 Multiplicity = 1

                         Standard orientation:
 ---------------------------------------------------------------------
 Center     Atomic      Atomic             Coordinates (Angstroms)
 Number     Number       Type             X           Y           Z
 ---------------------------------------------------------------------
      1          1           0        0.000000    0.467079    2.472176
      2          1           0        0.000000   -0.000000    3.708263
      3          1           0        0.000000   -0.000000    1.236088
      4          1           0       -0.000000   -0.467079    2.472176
      5          1           0       -0.000000    0.467079    0.000000
      6          1           0       -0.000000   -0.467079   -0.000000
      7          1           0        0.000000    0.000000   -1.236088
      8          1           0        0.000000    0.467079   -2.472176
      9          1           0       -0.000000   -0.467079   -2.472176
     10          1           0        0.000000    0.000000   -3.708263
 ---------------------------------------------------------------------

 SCF Done:  E(RHF) =  -4.87865029808     A.U. after    9 cycles
 E2 =    -0.1016006047D+00 EUMP2 =    -0.49802509027839D+01

 The electronic state is 1-AG.
 Alpha  occ. eigenvalues --   -0.76406  -0.71436  -0.63889  -0.34086  -0.20666
 Alpha virt. eigenvalues --    0.14181   0.15740   0.20577   0.26166   0.31347

 Mulliken charges:
               1
     1  H    0.198615
     2  H   -0.334360
     3  H   -0.166355
     4  H    0.198615
     5  H    0.103486
     6  H    0.103486
     7  H   -0.166355
     8  H    0.198615
     9  H    0.198615
    10  H   -0.334360
 Sum of Mulliken charges =  -0.00000

 Dipole moment (field-independent basis, Debye):
    X=             -0.0000    Y=              0.0000    Z=              0.0000  Tot=              0.0000
 Quadrupole moment (field-independent basis, Debye-Ang):
   XX=            -13.2332   YY=            -10.5353   ZZ=            -41.0861
   XY=              0.0000   XZ=              0.0000   YZ=              0.0000

 Normal termination of Gaussian 09 at Thu Feb  9 15:55:48 2017.
