 Gaussian 09, Revision E.01,
 Gaussian 09:  ES64L-G09RevE.01 30-Nov-2015

 ----------------------------------------------------------------------
 #rhf/gen scf(symm,tight,novaracc,noincfock,fulldiag) stable(crhf) geom
 =nocrowd test
 ----------------------------------------------------------------------

 hf stability analysis of h10 triangular lattice, y= 0.5983079020588448
 8
 ----------------------------------------------------------------------
 Symbolic Z-matrix:
 Charge =  0 Multiplicity = 1

                         Standard orientation:
 ---------------------------------------------------------------------
 Center     Atomic      Atomic             Coordinates (Angstroms)
 Number     Number       Type             X           Y           Z
 ---------------------------------------------------------------------
      1          1           0        0.000000    0.598308    1.929944
      2          1           0        0.000000    0.000000    2.894915
      3          1           0        0.000000    0.000000    0.964972
      4          1           0       -0.000000   -0.598308    1.929944
      5          1           0       -0.000000    0.598308    0.000000
      6          1           0       -0.000000   -0.598308   -0.000000
      7          1           0        0.000000   -0.000000   -0.964972
      8          1           0        0.000000    0.598308   -1.929944
      9          1           0       -0.000000   -0.598308   -1.929944
     10          1           0        0.000000   -0.000000   -2.894915
 ---------------------------------------------------------------------

 SCF Done:  E(RHF) =  -4.78637397241     A.U. after    9 cycles
 E2 =    -0.1403544346D+00 EUMP2 =    -0.49267284070170D+01

 The electronic state is 1-AG.
 Alpha  occ. eigenvalues --   -0.80015  -0.72723  -0.56607  -0.31065  -0.23499
 Alpha virt. eigenvalues --    0.03194   0.10923   0.20906   0.41130   0.67864

 Mulliken charges:
               1
     1  H    0.152088
     2  H   -0.104651
     3  H   -0.207604
     4  H    0.152088
     5  H    0.008080
     6  H    0.008080
     7  H   -0.207604
     8  H    0.152088
     9  H    0.152088
    10  H   -0.104651
 Sum of Mulliken charges =  -0.00000

 Dipole moment (field-independent basis, Debye):
    X=             -0.0000    Y=             -0.0000    Z=              0.0000  Tot=              0.0000
 Quadrupole moment (field-independent basis, Debye-Ang):
   XX=            -13.1198   YY=            -13.6645   ZZ=            -14.2710
   XY=              0.0000   XZ=              0.0000   YZ=             -0.0000

 Normal termination of Gaussian 09 at Thu Feb  9 15:46:12 2017.
