 Gaussian 09, Revision E.01,
 Gaussian 09:  ES64L-G09RevE.01 30-Nov-2015

 ----------------------------------------------------------------------
 #rhf/gen scf(symm,tight,novaracc,noincfock,fulldiag) stable(crhf) geom
 =nocrowd test
 ----------------------------------------------------------------------

 hf stability analysis of h10 triangular lattice, y= 0.2812243791484811
 4
 ----------------------------------------------------------------------
 Symbolic Z-matrix:
 Charge =  0 Multiplicity = 1

                         Standard orientation:
 ---------------------------------------------------------------------
 Center     Atomic      Atomic             Coordinates (Angstroms)
 Number     Number       Type             X           Y           Z
 ---------------------------------------------------------------------
      1          1           0       -0.000000    0.281224    4.105976
      2          1           0        0.000000    0.000000    6.158964
      3          1           0        0.000000    0.000000    2.052988
      4          1           0       -0.000000   -0.281224    4.105976
      5          1           0       -0.000000    0.281224    0.000000
      6          1           0       -0.000000   -0.281224    0.000000
      7          1           0        0.000000    0.000000   -2.052988
      8          1           0        0.000000    0.281224   -4.105976
      9          1           0       -0.000000   -0.281224   -4.105976
     10          1           0        0.000000    0.000000   -6.158964
 ---------------------------------------------------------------------

 SCF Done:  E(RHF) =  -4.56934383614     A.U. after   10 cycles
 E2 =    -0.4012084769D+00 EUMP2 =    -0.49705523130540D+01

 The electronic state is 1-AG.
 Alpha  occ. eigenvalues --   -0.70577  -0.70364  -0.69743  -0.26376  -0.24345
 Alpha virt. eigenvalues --   -0.10519  -0.08321   0.52855   0.53139   0.54092

 Mulliken charges:
               1
     1  H    0.011114
     2  H   -0.027710
     3  H    0.004574
     4  H    0.011114
     5  H    0.000909
     6  H    0.000909
     7  H    0.004574
     8  H    0.011114
     9  H    0.011114
    10  H   -0.027710
 Sum of Mulliken charges =  -0.00000

 Dipole moment (field-independent basis, Debye):
    X=             -0.0000    Y=             -0.0000    Z=              0.0000  Tot=              0.0000
 Quadrupole moment (field-independent basis, Debye-Ang):
   XX=            -13.5962   YY=            -12.7519   ZZ=            -21.0855
   XY=              0.0000   XZ=              0.0000   YZ=             -0.0000

 Normal termination of Gaussian 09 at Thu Feb  9 16:05:32 2017.
