 Gaussian 09, Revision E.01,
 Gaussian 09:  ES64L-G09RevE.01 30-Nov-2015

 ----------------------------------------------------------------------
 #rhf/gen scf(symm,tight,novaracc,noincfock,fulldiag) stable(crhf) geom
 =nocrowd test
 ----------------------------------------------------------------------

 hf stability analysis of h10 triangular lattice, y= 0.6874268966184004
 0
 ----------------------------------------------------------------------
 Symbolic Z-matrix:
 Charge =  0 Multiplicity = 1

                         Standard orientation:
 ---------------------------------------------------------------------
 Center     Atomic      Atomic             Coordinates (Angstroms)
 Number     Number       Type             X           Y           Z
 ---------------------------------------------------------------------
      1          1           0        0.000000    0.687427    1.679743
      2          1           0        0.000000    0.000000    2.519615
      3          1           0        0.000000    0.000000    0.839872
      4          1           0       -0.000000   -0.687427    1.679743
      5          1           0       -0.000000    0.687427   -0.000000
      6          1           0       -0.000000   -0.687427    0.000000
      7          1           0        0.000000   -0.000000   -0.839872
      8          1           0        0.000000    0.687427   -1.679743
      9          1           0       -0.000000   -0.687427   -1.679743
     10          1           0        0.000000   -0.000000   -2.519615
 ---------------------------------------------------------------------

 SCF Done:  E(RHF) =  -4.81827506136     A.U. after    9 cycles
 E2 =    -0.1104987444D+00 EUMP2 =    -0.49287738057207D+01

 The electronic state is 1-AG.
 Alpha  occ. eigenvalues --   -0.83891  -0.73235  -0.53951  -0.33922  -0.27315
 Alpha virt. eigenvalues --   -0.02041   0.20048   0.24100   0.53718   0.67657

 Mulliken charges:
               1
     1  H    0.237168
     2  H   -0.238673
     3  H   -0.274293
     4  H    0.237168
     5  H    0.038630
     6  H    0.038630
     7  H   -0.274293
     8  H    0.237168
     9  H    0.237168
    10  H   -0.238673
 Sum of Mulliken charges =  -0.00000

 Dipole moment (field-independent basis, Debye):
    X=             -0.0000    Y=             -0.0000    Z=              0.0000  Tot=              0.0000
 Quadrupole moment (field-independent basis, Debye-Ang):
   XX=            -12.9164   YY=            -11.8608   ZZ=            -19.5073
   XY=              0.0000   XZ=              0.0000   YZ=              0.0000

 Normal termination of Gaussian 09 at Thu Feb  9 15:39:40 2017.
