 Gaussian 09, Revision E.01,
 Gaussian 09:  ES64L-G09RevE.01 30-Nov-2015

 ----------------------------------------------------------------------
 #rhf/gen scf(symm,tight,novaracc,noincfock,fulldiag) stable(crhf) geom
 =nocrowd test
 ----------------------------------------------------------------------

 hf stability analysis of h10 triangular lattice, y= 0.3357804129248861
 4
 ----------------------------------------------------------------------
 Symbolic Z-matrix:
 Charge =  0 Multiplicity = 1

                         Standard orientation:
 ---------------------------------------------------------------------
 Center     Atomic      Atomic             Coordinates (Angstroms)
 Number     Number       Type             X           Y           Z
 ---------------------------------------------------------------------
      1          1           0        0.000000    0.335780    3.438856
      2          1           0       -0.000000    0.000000    5.158284
      3          1           0       -0.000000    0.000000    1.719428
      4          1           0       -0.000000   -0.335780    3.438856
      5          1           0        0.000000    0.335780    0.000000
      6          1           0       -0.000000   -0.335780    0.000000
      7          1           0        0.000000    0.000000   -1.719428
      8          1           0        0.000000    0.335780   -3.438856
      9          1           0       -0.000000   -0.335780   -3.438856
     10          1           0        0.000000    0.000000   -5.158284
 ---------------------------------------------------------------------

 SCF Done:  E(RHF) =  -4.78748710694     A.U. after    9 cycles
 E2 =    -0.2381179869D+00 EUMP2 =    -0.50256050938287D+01

 The electronic state is 1-AG.
 Alpha  occ. eigenvalues --   -0.70463  -0.69587  -0.67660  -0.28991  -0.24390
 Alpha virt. eigenvalues --   -0.05720  -0.00478   0.40540   0.41430   0.43685

 Mulliken charges:
               1
     1  H    0.052321
     2  H   -0.095692
     3  H   -0.027172
     4  H    0.052321
     5  H    0.018221
     6  H    0.018221
     7  H   -0.027172
     8  H    0.052321
     9  H    0.052321
    10  H   -0.095692
 Sum of Mulliken charges =  -0.00000

 Dipole moment (field-independent basis, Debye):
    X=             -0.0000    Y=             -0.0000    Z=             -0.0000  Tot=              0.0000
 Quadrupole moment (field-independent basis, Debye-Ang):
   XX=            -13.6087   YY=            -12.3766   ZZ=            -28.7452
   XY=              0.0000   XZ=              0.0000   YZ=             -0.0000

 Normal termination of Gaussian 09 at Thu Feb  9 16:03:22 2017.
