 Gaussian 09, Revision E.01,
 Gaussian 09:  ES64L-G09RevE.01 30-Nov-2015

 ----------------------------------------------------------------------
 #rhf/gen scf(symm,tight,novaracc,noincfock,fulldiag) stable(crhf) geom
 =nocrowd test
 ----------------------------------------------------------------------

 hf stability analysis of h10 triangular lattice, y= 0.7121900205952109
 7
 ----------------------------------------------------------------------
 Symbolic Z-matrix:
 Charge =  0 Multiplicity = 1

                         Standard orientation:
 ---------------------------------------------------------------------
 Center     Atomic      Atomic             Coordinates (Angstroms)
 Number     Number       Type             X           Y           Z
 ---------------------------------------------------------------------
      1          1           0        0.000000    0.712190    1.621338
      2          1           0        0.000000    0.000000    2.432007
      3          1           0        0.000000    0.000000    0.810669
      4          1           0       -0.000000   -0.712190    1.621338
      5          1           0       -0.000000    0.712190   -0.000000
      6          1           0       -0.000000   -0.712190    0.000000
      7          1           0        0.000000   -0.000000   -0.810669
      8          1           0        0.000000    0.712190   -1.621338
      9          1           0       -0.000000   -0.712190   -1.621338
     10          1           0        0.000000   -0.000000   -2.432007
 ---------------------------------------------------------------------

 SCF Done:  E(RHF) =  -4.80896834950     A.U. after    9 cycles
 E2 =    -0.1053685355D+00 EUMP2 =    -0.49143368850376D+01

 The electronic state is 1-AG.
 Alpha  occ. eigenvalues --   -0.84685  -0.73059  -0.52922  -0.36421  -0.25703
 Alpha virt. eigenvalues --   -0.03138   0.20231   0.27858   0.55754   0.64648

 Mulliken charges:
               1
     1  H    0.255993
     2  H   -0.271356
     3  H   -0.281266
     4  H    0.255993
     5  H    0.040635
     6  H    0.040635
     7  H   -0.281266
     8  H    0.255993
     9  H    0.255993
    10  H   -0.271356
 Sum of Mulliken charges =  -0.00000

 Dipole moment (field-independent basis, Debye):
    X=             -0.0000    Y=              0.0000    Z=             -0.0000  Tot=              0.0000
 Quadrupole moment (field-independent basis, Debye-Ang):
   XX=            -12.8608   YY=            -11.3255   ZZ=            -20.4915
   XY=              0.0000   XZ=              0.0000   YZ=             -0.0000

 Normal termination of Gaussian 09 at Thu Feb  9 15:37:59 2017.
