 Gaussian 09, Revision E.01,
 Gaussian 09:  ES64L-G09RevE.01 30-Nov-2015

 ----------------------------------------------------------------------
 #rhf/gen scf(symm,tight,novaracc,noincfock,fulldiag) stable(crhf) geom
 =nocrowd test
 ----------------------------------------------------------------------

 hf stability analysis of h10 triangular lattice, y= 0.6704140055664132
 8
 ----------------------------------------------------------------------
 Symbolic Z-matrix:
 Charge =  0 Multiplicity = 1

                         Standard orientation:
 ---------------------------------------------------------------------
 Center     Atomic      Atomic             Coordinates (Angstroms)
 Number     Number       Type             X           Y           Z
 ---------------------------------------------------------------------
      1          1           0        0.000000    0.670414    1.722369
      2          1           0        0.000000    0.000000    2.583554
      3          1           0        0.000000    0.000000    0.861185
      4          1           0       -0.000000   -0.670414    1.722369
      5          1           0       -0.000000    0.670414    0.000000
      6          1           0       -0.000000   -0.670414    0.000000
      7          1           0        0.000000   -0.000000   -0.861185
      8          1           0        0.000000    0.670414   -1.722369
      9          1           0       -0.000000   -0.670414   -1.722369
     10          1           0        0.000000   -0.000000   -2.583554
 ---------------------------------------------------------------------

 SCF Done:  E(RHF) =  -4.82039289768     A.U. after    8 cycles
 E2 =    -0.1147014187D+00 EUMP2 =    -0.49350943163676D+01

 The electronic state is 1-AG.
 Alpha  occ. eigenvalues --   -0.83276  -0.73278  -0.54590  -0.32116  -0.28287
 Alpha virt. eigenvalues --   -0.01207   0.20018   0.21516   0.51908   0.69120

 Mulliken charges:
               1
     1  H    0.222974
     2  H   -0.215006
     3  H   -0.266568
     4  H    0.222974
     5  H    0.035627
     6  H    0.035627
     7  H   -0.266568
     8  H    0.222974
     9  H    0.222974
    10  H   -0.215006
 Sum of Mulliken charges =  -0.00000

 Dipole moment (field-independent basis, Debye):
    X=             -0.0000    Y=              0.0000    Z=              0.0000  Tot=              0.0000
 Quadrupole moment (field-independent basis, Debye-Ang):
   XX=            -12.9551   YY=            -12.2231   ZZ=            -18.7310
   XY=              0.0000   XZ=              0.0000   YZ=             -0.0000

 Normal termination of Gaussian 09 at Thu Feb  9 15:40:53 2017.
