 Gaussian 09, Revision E.01,
 Gaussian 09:  ES64L-G09RevE.01 30-Nov-2015

 ----------------------------------------------------------------------
 #rhf/gen scf(symm,tight,novaracc,noincfock,fulldiag) stable(crhf) geom
 =nocrowd test
 ----------------------------------------------------------------------

 hf stability analysis of h10 triangular lattice, y= 0.4627540555934612
 2
 ----------------------------------------------------------------------
 Symbolic Z-matrix:
 Charge =  0 Multiplicity = 1

                         Standard orientation:
 ---------------------------------------------------------------------
 Center     Atomic      Atomic             Coordinates (Angstroms)
 Number     Number       Type             X           Y           Z
 ---------------------------------------------------------------------
      1          1           0        0.000000    0.462754    2.495279
      2          1           0        0.000000    0.000000    3.742919
      3          1           0        0.000000    0.000000    1.247640
      4          1           0       -0.000000   -0.462754    2.495279
      5          1           0        0.000000    0.462754    0.000000
      6          1           0       -0.000000   -0.462754    0.000000
      7          1           0        0.000000   -0.000000   -1.247640
      8          1           0        0.000000    0.462754   -2.495279
      9          1           0       -0.000000   -0.462754   -2.495279
     10          1           0        0.000000   -0.000000   -3.742919
 ---------------------------------------------------------------------

 SCF Done:  E(RHF) =  -4.88358999454     A.U. after    9 cycles
 E2 =    -0.1031803318D+00 EUMP2 =    -0.49867703263900D+01

 The electronic state is 1-AG.
 Alpha  occ. eigenvalues --   -0.76166  -0.71354  -0.64037  -0.34012  -0.20901
 Alpha virt. eigenvalues --    0.13381   0.16434   0.21096   0.26561   0.30120

 Mulliken charges:
               1
     1  H    0.193960
     2  H   -0.326762
     3  H   -0.161581
     4  H    0.193960
     5  H    0.100423
     6  H    0.100423
     7  H   -0.161581
     8  H    0.193960
     9  H    0.193960
    10  H   -0.326762
 Sum of Mulliken charges =  -0.00000

 Dipole moment (field-independent basis, Debye):
    X=             -0.0000    Y=              0.0000    Z=             -0.0000  Tot=              0.0000
 Quadrupole moment (field-independent basis, Debye-Ang):
   XX=            -13.2536   YY=            -10.6152   ZZ=            -40.9036
   XY=              0.0000   XZ=              0.0000   YZ=             -0.0000

 Normal termination of Gaussian 09 at Thu Feb  9 15:56:06 2017.
