 Gaussian 09, Revision E.01,
 Gaussian 09:  ES64L-G09RevE.01 30-Nov-2015

 ----------------------------------------------------------------------
 #rhf/gen scf(symm,tight,novaracc,noincfock,fulldiag) stable(crhf) geom
 =nocrowd test
 ----------------------------------------------------------------------

 hf stability analysis of h10 triangular lattice, y= 0.7254447399355308
 2
 ----------------------------------------------------------------------
 Symbolic Z-matrix:
 Charge =  0 Multiplicity = 1

                         Standard orientation:
 ---------------------------------------------------------------------
 Center     Atomic      Atomic             Coordinates (Angstroms)
 Number     Number       Type             X           Y           Z
 ---------------------------------------------------------------------
      1          1           0        0.000000    0.725445    1.591714
      2          1           0        0.000000    0.000000    2.387571
      3          1           0        0.000000    0.000000    0.795857
      4          1           0       -0.000000   -0.725445    1.591714
      5          1           0       -0.000000    0.725445   -0.000000
      6          1           0       -0.000000   -0.725445    0.000000
      7          1           0        0.000000   -0.000000   -0.795857
      8          1           0        0.000000    0.725445   -1.591714
      9          1           0       -0.000000   -0.725445   -1.591714
     10          1           0        0.000000   -0.000000   -2.387571
 ---------------------------------------------------------------------

 SCF Done:  E(RHF) =  -4.80107175202     A.U. after    8 cycles
 E2 =    -0.1030572388D+00 EUMP2 =    -0.49041289908143D+01

 The electronic state is 1-AG.
 Alpha  occ. eigenvalues --   -0.85063  -0.72914  -0.52327  -0.37702  -0.24751
 Alpha virt. eigenvalues --   -0.03675   0.20392   0.29851   0.56545   0.62706

 Mulliken charges:
               1
     1  H    0.265180
     2  H   -0.287997
     3  H   -0.282967
     4  H    0.265180
     5  H    0.040604
     6  H    0.040604
     7  H   -0.282967
     8  H    0.265180
     9  H    0.265180
    10  H   -0.287997
 Sum of Mulliken charges =   0.00000

 Dipole moment (field-independent basis, Debye):
    X=             -0.0000    Y=             -0.0000    Z=              0.0000  Tot=              0.0000
 Quadrupole moment (field-independent basis, Debye-Ang):
   XX=            -12.8315   YY=            -11.0368   ZZ=            -20.9563
   XY=              0.0000   XZ=              0.0000   YZ=             -0.0000

 Normal termination of Gaussian 09 at Thu Feb  9 15:37:05 2017.
