 Gaussian 09, Revision E.01,
 Gaussian 09:  ES64L-G09RevE.01 30-Nov-2015

 ----------------------------------------------------------------------
 #rhf/gen scf(symm,tight,novaracc,noincfock,fulldiag) stable(crhf) geom
 =nocrowd test
 ----------------------------------------------------------------------

 hf stability analysis of h10 triangular lattice, y= 0.5441333675469526
 3
 ----------------------------------------------------------------------
 Symbolic Z-matrix:
 Charge =  0 Multiplicity = 1

                         Standard orientation:
 ---------------------------------------------------------------------
 Center     Atomic      Atomic             Coordinates (Angstroms)
 Number     Number       Type             X           Y           Z
 ---------------------------------------------------------------------
      1          1           0        0.000000    0.544133    2.122091
      2          1           0        0.000000   -0.000000    3.183137
      3          1           0        0.000000   -0.000000    1.061046
      4          1           0       -0.000000   -0.544133    2.122091
      5          1           0        0.000000    0.544133    0.000000
      6          1           0       -0.000000   -0.544133   -0.000000
      7          1           0        0.000000    0.000000   -1.061046
      8          1           0        0.000000    0.544133   -2.122091
      9          1           0       -0.000000   -0.544133   -2.122091
     10          1           0        0.000000    0.000000   -3.183137
 ---------------------------------------------------------------------

 SCF Done:  E(RHF) =  -4.70643636788     A.U. after    9 cycles
 E2 =    -0.1716082897D+00 EUMP2 =    -0.48780446575398D+01

 The electronic state is 1-AG.
 Alpha  occ. eigenvalues --   -0.76917  -0.71505  -0.57315  -0.31630  -0.15765
 Alpha virt. eigenvalues --    0.03714   0.07647   0.22866   0.31028   0.58753

 Mulliken charges:
               1
     1  H    0.089223
     2  H   -0.013892
     3  H   -0.137659
     4  H    0.089223
     5  H   -0.026895
     6  H   -0.026895
     7  H   -0.137659
     8  H    0.089223
     9  H    0.089223
    10  H   -0.013892
 Sum of Mulliken charges =  -0.00000

 Dipole moment (field-independent basis, Debye):
    X=             -0.0000    Y=              0.0000    Z=              0.0000  Tot=              0.0000
 Quadrupole moment (field-independent basis, Debye-Ang):
   XX=            -13.2351   YY=            -14.5886   ZZ=             -9.2688
   XY=             -0.0000   XZ=             -0.0000   YZ=             -0.0000

 Normal termination of Gaussian 09 at Thu Feb  9 15:50:16 2017.
