 Gaussian 09, Revision E.01,
 Gaussian 09:  ES64L-G09RevE.01 30-Nov-2015

 ----------------------------------------------------------------------
 #rhf/gen scf(symm,tight,novaracc,noincfock,fulldiag) stable(crhf) geom
 =nocrowd test
 ----------------------------------------------------------------------

 hf stability analysis of h10 triangular lattice, y= 0.7178473640090998
 8
 ----------------------------------------------------------------------
 Symbolic Z-matrix:
 Charge =  0 Multiplicity = 1

                         Standard orientation:
 ---------------------------------------------------------------------
 Center     Atomic      Atomic             Coordinates (Angstroms)
 Number     Number       Type             X           Y           Z
 ---------------------------------------------------------------------
      1          1           0        0.000000    0.717847    1.608560
      2          1           0        0.000000    0.000000    2.412840
      3          1           0        0.000000    0.000000    0.804280
      4          1           0       -0.000000   -0.717847    1.608560
      5          1           0       -0.000000    0.717847   -0.000000
      6          1           0       -0.000000   -0.717847    0.000000
      7          1           0        0.000000   -0.000000   -0.804280
      8          1           0        0.000000    0.717847   -1.608560
      9          1           0       -0.000000   -0.717847   -1.608560
     10          1           0        0.000000   -0.000000   -2.412840
 ---------------------------------------------------------------------

 SCF Done:  E(RHF) =  -4.80584172901     A.U. after    8 cycles
 E2 =    -0.1043468763D+00 EUMP2 =    -0.49101886052924D+01

 The electronic state is 1-AG.
 Alpha  occ. eigenvalues --   -0.84850  -0.73001  -0.52672  -0.36972  -0.25304
 Alpha virt. eigenvalues --   -0.03371   0.20295   0.28711   0.56117   0.63842

 Mulliken charges:
               1
     1  H    0.259990
     2  H   -0.278530
     3  H   -0.282162
     4  H    0.259990
     5  H    0.040713
     6  H    0.040713
     7  H   -0.282162
     8  H    0.259990
     9  H    0.259990
    10  H   -0.278530
 Sum of Mulliken charges =  -0.00000

 Dipole moment (field-independent basis, Debye):
    X=             -0.0000    Y=             -0.0000    Z=              0.0000  Tot=              0.0000
 Quadrupole moment (field-independent basis, Debye-Ang):
   XX=            -12.8483   YY=            -11.2024   ZZ=            -20.6948
   XY=              0.0000   XZ=              0.0000   YZ=             -0.0000

 Normal termination of Gaussian 09 at Thu Feb  9 15:37:35 2017.
