 Gaussian 09, Revision E.01,
 Gaussian 09:  ES64L-G09RevE.01 30-Nov-2015

 ----------------------------------------------------------------------
 #rhf/gen scf(symm,tight,novaracc,noincfock,fulldiag) stable(crhf) geom
 =nocrowd test
 ----------------------------------------------------------------------

 hf stability analysis of h10 triangular lattice, y= 0.6984975479441348
 8
 ----------------------------------------------------------------------
 Symbolic Z-matrix:
 Charge =  0 Multiplicity = 1

                         Standard orientation:
 ---------------------------------------------------------------------
 Center     Atomic      Atomic             Coordinates (Angstroms)
 Number     Number       Type             X           Y           Z
 ---------------------------------------------------------------------
      1          1           0        0.000000    0.698498    1.653120
      2          1           0        0.000000   -0.000000    2.479681
      3          1           0        0.000000   -0.000000    0.826560
      4          1           0       -0.000000   -0.698498    1.653120
      5          1           0       -0.000000    0.698498    0.000000
      6          1           0       -0.000000   -0.698498   -0.000000
      7          1           0        0.000000    0.000000   -0.826560
      8          1           0        0.000000    0.698498   -1.653120
      9          1           0       -0.000000   -0.698498   -1.653120
     10          1           0        0.000000    0.000000   -2.479681
 ---------------------------------------------------------------------

 SCF Done:  E(RHF) =  -4.81500721697     A.U. after    9 cycles
 E2 =    -0.1080681583D+00 EUMP2 =    -0.49230753752844D+01

 The electronic state is 1-AG.
 Alpha  occ. eigenvalues --   -0.84260  -0.73172  -0.53505  -0.35057  -0.26622
 Alpha virt. eigenvalues --   -0.02548   0.20111   0.25783   0.54717   0.66426

 Mulliken charges:
               1
     1  H    0.245854
     2  H   -0.253543
     3  H   -0.278031
     4  H    0.245854
     5  H    0.039867
     6  H    0.039867
     7  H   -0.278031
     8  H    0.245854
     9  H    0.245854
    10  H   -0.253543
 Sum of Mulliken charges =   0.00000

 Dipole moment (field-independent basis, Debye):
    X=             -0.0000    Y=             -0.0000    Z=              0.0000  Tot=              0.0000
 Quadrupole moment (field-independent basis, Debye-Ang):
   XX=            -12.8914   YY=            -11.6224   ZZ=            -19.9672
   XY=              0.0000   XZ=              0.0000   YZ=             -0.0000

 Normal termination of Gaussian 09 at Thu Feb  9 15:38:56 2017.
