 Gaussian 09, Revision E.01,
 Gaussian 09:  ES64L-G09RevE.01 30-Nov-2015

 ----------------------------------------------------------------------
 #rhf/gen scf(symm,tight,novaracc,noincfock,fulldiag) stable(crhf) geom
 =nocrowd test
 ----------------------------------------------------------------------

 hf stability analysis of h10 triangular lattice, y= 0.7525762555518267
 2
 ----------------------------------------------------------------------
 Symbolic Z-matrix:
 Charge =  0 Multiplicity = 1

                         Standard orientation:
 ---------------------------------------------------------------------
 Center     Atomic      Atomic             Coordinates (Angstroms)
 Number     Number       Type             X           Y           Z
 ---------------------------------------------------------------------
      1          1           0        0.000000    0.752576    1.534330
      2          1           0        0.000000   -0.000000    2.301495
      3          1           0        0.000000   -0.000000    0.767165
      4          1           0       -0.000000   -0.752576    1.534330
      5          1           0       -0.000000    0.752576    0.000000
      6          1           0       -0.000000   -0.752576   -0.000000
      7          1           0        0.000000    0.000000   -0.767165
      8          1           0        0.000000    0.752576   -1.534330
      9          1           0       -0.000000   -0.752576   -1.534330
     10          1           0        0.000000    0.000000   -2.301495
 ---------------------------------------------------------------------

 SCF Done:  E(RHF) =  -4.84666038994     A.U. after    8 cycles
 E2 =    -0.9772344721D-01 EUMP2 =    -0.49443838371473D+01

 The electronic state is 1-AG.
 Alpha  occ. eigenvalues --   -0.90744  -0.74615  -0.52166  -0.45747  -0.27274
 Alpha virt. eigenvalues --   -0.02501   0.14974   0.33654   0.53158   0.55131

 Mulliken charges:
               1
     1  H   -0.213446
     2  H    0.235239
     3  H    0.157496
     4  H   -0.213446
     5  H    0.034158
     6  H    0.034158
     7  H    0.157496
     8  H   -0.213446
     9  H   -0.213446
    10  H    0.235239
 Sum of Mulliken charges =  -0.00000

 Dipole moment (field-independent basis, Debye):
    X=              0.0000    Y=              0.0000    Z=              0.0000  Tot=              0.0000
 Quadrupole moment (field-independent basis, Debye-Ang):
   XX=            -13.0073   YY=            -18.6540   ZZ=            -10.7208
   XY=             -0.0000   XZ=             -0.0000   YZ=              0.0000

 Normal termination of Gaussian 09 at Thu Feb  9 15:35:15 2017.
