 Gaussian 09, Revision E.01,
 Gaussian 09:  ES64L-G09RevE.01 30-Nov-2015

 ----------------------------------------------------------------------
 #rhf/gen scf(symm,tight,novaracc,noincfock,fulldiag) stable(crhf) geom
 =nocrowd test
 ----------------------------------------------------------------------

 hf stability analysis of h10 triangular lattice, y= 0.6258040883479978
 3
 ----------------------------------------------------------------------
 Symbolic Z-matrix:
 Charge =  0 Multiplicity = 1

                         Standard orientation:
 ---------------------------------------------------------------------
 Center     Atomic      Atomic             Coordinates (Angstroms)
 Number     Number       Type             X           Y           Z
 ---------------------------------------------------------------------
      1          1           0        0.000000    0.625804    1.845147
      2          1           0        0.000000    0.000000    2.767721
      3          1           0        0.000000    0.000000    0.922574
      4          1           0       -0.000000   -0.625804    1.845147
      5          1           0       -0.000000    0.625804   -0.000000
      6          1           0       -0.000000   -0.625804   -0.000000
      7          1           0        0.000000    0.000000   -0.922574
      8          1           0        0.000000    0.625804   -1.845147
      9          1           0       -0.000000   -0.625804   -1.845147
     10          1           0        0.000000    0.000000   -2.767721
 ---------------------------------------------------------------------

 SCF Done:  E(RHF) =  -4.80810405678     A.U. after    9 cycles
 E2 =    -0.1288561144D+00 EUMP2 =    -0.49369601711892D+01

 The electronic state is 1-AG.
 Alpha  occ. eigenvalues --   -0.81383  -0.73079  -0.55978  -0.30273  -0.26987
 Alpha virt. eigenvalues --    0.01334   0.14860   0.20358   0.45743   0.69888

 Mulliken charges:
               1
     1  H    0.181047
     2  H   -0.148482
     3  H   -0.234958
     4  H    0.181047
     5  H    0.021346
     6  H    0.021346
     7  H   -0.234958
     8  H    0.181047
     9  H    0.181047
    10  H   -0.148482
 Sum of Mulliken charges =  -0.00000

 Dipole moment (field-independent basis, Debye):
    X=             -0.0000    Y=             -0.0000    Z=             -0.0000  Tot=              0.0000
 Quadrupole moment (field-independent basis, Debye-Ang):
   XX=            -13.0575   YY=            -13.1377   ZZ=            -16.2244
   XY=              0.0000   XZ=              0.0000   YZ=             -0.0000

 Normal termination of Gaussian 09 at Thu Feb  9 15:44:09 2017.
