 Gaussian 09, Revision E.01,
 Gaussian 09:  ES64L-G09RevE.01 30-Nov-2015

 ----------------------------------------------------------------------
 #rhf/gen scf(symm,tight,novaracc,noincfock,fulldiag) stable(crhf) geom
 =nocrowd test
 ----------------------------------------------------------------------

 hf stability analysis of h10 triangular lattice, y= 0.5785138341321103
 3
 ----------------------------------------------------------------------
 Symbolic Z-matrix:
 Charge =  0 Multiplicity = 1

                         Standard orientation:
 ---------------------------------------------------------------------
 Center     Atomic      Atomic             Coordinates (Angstroms)
 Number     Number       Type             X           Y           Z
 ---------------------------------------------------------------------
      1          1           0        0.000000    0.578514    1.995977
      2          1           0       -0.000000    0.000000    2.993966
      3          1           0       -0.000000    0.000000    0.997989
      4          1           0       -0.000000   -0.578514    1.995977
      5          1           0        0.000000    0.578514    0.000000
      6          1           0       -0.000000   -0.578514    0.000000
      7          1           0        0.000000    0.000000   -0.997989
      8          1           0        0.000000    0.578514   -1.995977
      9          1           0       -0.000000   -0.578514   -1.995977
     10          1           0        0.000000    0.000000   -2.993966
 ---------------------------------------------------------------------

 SCF Done:  E(RHF) =  -4.76325087601     A.U. after    9 cycles
 E2 =    -0.1502742599D+00 EUMP2 =    -0.49135251358718D+01

 The electronic state is 1-AG.
 Alpha  occ. eigenvalues --   -0.78942  -0.72356  -0.56948  -0.31424  -0.20812
 Alpha virt. eigenvalues --    0.04692   0.08197   0.21479   0.37548   0.65249

 Mulliken charges:
               1
     1  H    0.129944
     2  H   -0.072037
     3  H   -0.184437
     4  H    0.129944
     5  H   -0.003414
     6  H   -0.003414
     7  H   -0.184437
     8  H    0.129944
     9  H    0.129944
    10  H   -0.072037
 Sum of Mulliken charges =  -0.00000

 Dipole moment (field-independent basis, Debye):
    X=             -0.0000    Y=             -0.0000    Z=             -0.0000  Tot=              0.0000
 Quadrupole moment (field-independent basis, Debye-Ang):
   XX=            -13.1635   YY=            -14.0212   ZZ=            -12.6356
   XY=             -0.0000   XZ=              0.0000   YZ=             -0.0000

 Normal termination of Gaussian 09 at Thu Feb  9 15:47:43 2017.
