 Gaussian 09, Revision E.01,
 Gaussian 09:  ES64L-G09RevE.01 30-Nov-2015

 ----------------------------------------------------------------------
 #rhf/gen scf(symm,tight,novaracc,noincfock,fulldiag) stable(crhf) geom
 =nocrowd test
 ----------------------------------------------------------------------

 hf stability analysis of h10 triangular lattice, y= 0.2803104089832951
 2
 ----------------------------------------------------------------------
 Symbolic Z-matrix:
 Charge =  0 Multiplicity = 1

                         Standard orientation:
 ---------------------------------------------------------------------
 Center     Atomic      Atomic             Coordinates (Angstroms)
 Number     Number       Type             X           Y           Z
 ---------------------------------------------------------------------
      1          1           0        0.000000    0.280310    4.119364
      2          1           0       -0.000000    0.000000    6.179046
      3          1           0       -0.000000    0.000000    2.059682
      4          1           0       -0.000000   -0.280310    4.119364
      5          1           0        0.000000    0.280310   -0.000000
      6          1           0       -0.000000   -0.280310    0.000000
      7          1           0        0.000000   -0.000000   -2.059682
      8          1           0        0.000000    0.280310   -4.119364
      9          1           0       -0.000000   -0.280310   -4.119364
     10          1           0        0.000000   -0.000000   -6.179046
 ---------------------------------------------------------------------

 SCF Done:  E(RHF) =  -4.56435310994     A.U. after   10 cycles
 E2 =    -0.4046579370D+00 EUMP2 =    -0.49690110469251D+01

 The electronic state is 1-AG.
 Alpha  occ. eigenvalues --   -0.70600  -0.70393  -0.69788  -0.26337  -0.24339
 Alpha virt. eigenvalues --   -0.10580  -0.08420   0.53066   0.53344   0.54277

 Mulliken charges:
               1
     1  H    0.010678
     2  H   -0.026950
     3  H    0.004823
     4  H    0.010678
     5  H    0.000771
     6  H    0.000771
     7  H    0.004823
     8  H    0.010678
     9  H    0.010678
    10  H   -0.026950
 Sum of Mulliken charges =  -0.00000

 Dipole moment (field-independent basis, Debye):
    X=             -0.0000    Y=              0.0000    Z=              0.0000  Tot=              0.0000
 Quadrupole moment (field-independent basis, Debye-Ang):
   XX=            -13.5957   YY=            -12.7569   ZZ=            -20.9708
   XY=              0.0000   XZ=              0.0000   YZ=             -0.0000

 Normal termination of Gaussian 09 at Thu Feb  9 16:05:34 2017.
