 Gaussian 09, Revision E.01,
 Gaussian 09:  ES64L-G09RevE.01 30-Nov-2015

 ----------------------------------------------------------------------
 #rhf/gen scf(symm,tight,novaracc,noincfock,fulldiag) stable(crhf) geom
 =nocrowd test
 ----------------------------------------------------------------------

 hf stability analysis of h10 triangular lattice, y= 0.4068814698559844
 5
 ----------------------------------------------------------------------
 Symbolic Z-matrix:
 Charge =  0 Multiplicity = 1

                         Standard orientation:
 ---------------------------------------------------------------------
 Center     Atomic      Atomic             Coordinates (Angstroms)
 Number     Number       Type             X           Y           Z
 ---------------------------------------------------------------------
      1          1           0        0.000000    0.406881    2.837929
      2          1           0        0.000000   -0.000000    4.256893
      3          1           0        0.000000   -0.000000    1.418964
      4          1           0       -0.000000   -0.406881    2.837929
      5          1           0        0.000000    0.406881    0.000000
      6          1           0       -0.000000   -0.406881   -0.000000
      7          1           0        0.000000    0.000000   -1.418964
      8          1           0        0.000000    0.406881   -2.837929
      9          1           0       -0.000000   -0.406881   -2.837929
     10          1           0        0.000000    0.000000   -4.256893
 ---------------------------------------------------------------------

 SCF Done:  E(RHF) =  -4.90118304151     A.U. after    8 cycles
 E2 =    -0.1359501880D+00 EUMP2 =    -0.50371332295564D+01

 The electronic state is 1-AG.
 Alpha  occ. eigenvalues --   -0.73136  -0.70316  -0.65731  -0.32359  -0.23198
 Alpha virt. eigenvalues --    0.03803   0.14997   0.26143   0.28757   0.32741

 Mulliken charges:
               1
     1  H    0.131114
     2  H   -0.223907
     3  H   -0.099604
     4  H    0.131114
     5  H    0.061282
     6  H    0.061282
     7  H   -0.099604
     8  H    0.131114
     9  H    0.131114
    10  H   -0.223907
 Sum of Mulliken charges =   0.00000

 Dipole moment (field-independent basis, Debye):
    X=             -0.0000    Y=              0.0000    Z=             -0.0000  Tot=              0.0000
 Quadrupole moment (field-independent basis, Debye-Ang):
   XX=            -13.4775   YY=            -11.5423   ZZ=            -37.2377
   XY=              0.0000   XZ=              0.0000   YZ=              0.0000

 Normal termination of Gaussian 09 at Thu Feb  9 15:59:48 2017.
