 Gaussian 09, Revision E.01,
 Gaussian 09:  ES64L-G09RevE.01 30-Nov-2015

 ----------------------------------------------------------------------
 #rhf/gen scf(symm,tight,novaracc,noincfock,fulldiag) stable(crhf) geom
 =nocrowd test
 ----------------------------------------------------------------------

 hf stability analysis of h10 triangular lattice, y= 0.5458870802901449
 9
 ----------------------------------------------------------------------
 Symbolic Z-matrix:
 Charge =  0 Multiplicity = 1

                         Standard orientation:
 ---------------------------------------------------------------------
 Center     Atomic      Atomic             Coordinates (Angstroms)
 Number     Number       Type             X           Y           Z
 ---------------------------------------------------------------------
      1          1           0        0.000000    0.545887    2.115274
      2          1           0        0.000000    0.000000    3.172910
      3          1           0        0.000000    0.000000    1.057637
      4          1           0       -0.000000   -0.545887    2.115274
      5          1           0       -0.000000    0.545887    0.000000
      6          1           0       -0.000000   -0.545887    0.000000
      7          1           0        0.000000    0.000000   -1.057637
      8          1           0        0.000000    0.545887   -2.115274
      9          1           0       -0.000000   -0.545887   -2.115274
     10          1           0        0.000000    0.000000   -3.172910
 ---------------------------------------------------------------------

 SCF Done:  E(RHF) =  -4.70988501143     A.U. after    9 cycles
 E2 =    -0.1703728547D+00 EUMP2 =    -0.48802578661231D+01

 The electronic state is 1-AG.
 Alpha  occ. eigenvalues --   -0.77025  -0.71554  -0.57303  -0.31632  -0.16035
 Alpha virt. eigenvalues --    0.03935   0.07485   0.22783   0.31366   0.59135

 Mulliken charges:
               1
     1  H    0.091364
     2  H   -0.016891
     3  H   -0.140241
     4  H    0.091364
     5  H   -0.025596
     6  H   -0.025596
     7  H   -0.140241
     8  H    0.091364
     9  H    0.091364
    10  H   -0.016891
 Sum of Mulliken charges =  -0.00000

 Dipole moment (field-independent basis, Debye):
    X=             -0.0000    Y=             -0.0000    Z=             -0.0000  Tot=              0.0000
 Quadrupole moment (field-independent basis, Debye-Ang):
   XX=            -13.2316   YY=            -14.5614   ZZ=             -9.4582
   XY=             -0.0000   XZ=             -0.0000   YZ=             -0.0000

 Normal termination of Gaussian 09 at Thu Feb  9 15:50:08 2017.
