 Gaussian 09, Revision E.01,
 Gaussian 09:  ES64L-G09RevE.01 30-Nov-2015

 ----------------------------------------------------------------------
 #rhf/gen scf(symm,tight,novaracc,noincfock,fulldiag) stable(crhf) geom
 =nocrowd test
 ----------------------------------------------------------------------

 hf stability analysis of h10 triangular lattice, y= 0.6692075847495178
 0
 ----------------------------------------------------------------------
 Symbolic Z-matrix:
 Charge =  0 Multiplicity = 1

                         Standard orientation:
 ---------------------------------------------------------------------
 Center     Atomic      Atomic             Coordinates (Angstroms)
 Number     Number       Type             X           Y           Z
 ---------------------------------------------------------------------
      1          1           0        0.000000    0.669208    1.725474
      2          1           0        0.000000    0.000000    2.588212
      3          1           0        0.000000    0.000000    0.862737
      4          1           0       -0.000000   -0.669208    1.725474
      5          1           0       -0.000000    0.669208    0.000000
      6          1           0       -0.000000   -0.669208    0.000000
      7          1           0        0.000000   -0.000000   -0.862737
      8          1           0        0.000000    0.669208   -1.725474
      9          1           0       -0.000000   -0.669208   -1.725474
     10          1           0        0.000000   -0.000000   -2.588212
 ---------------------------------------------------------------------

 SCF Done:  E(RHF) =  -4.82040623532     A.U. after    8 cycles
 E2 =    -0.1150222189D+00 EUMP2 =    -0.49354284541711D+01

 The electronic state is 1-AG.
 Alpha  occ. eigenvalues --   -0.83230  -0.73279  -0.54634  -0.31985  -0.28352
 Alpha virt. eigenvalues --   -0.01145   0.20019   0.21333   0.51767   0.69201

 Mulliken charges:
               1
     1  H    0.221928
     2  H   -0.213290
     3  H   -0.265929
     4  H    0.221928
     5  H    0.035362
     6  H    0.035362
     7  H   -0.265929
     8  H    0.221928
     9  H    0.221928
    10  H   -0.213290
 Sum of Mulliken charges =  -0.00000

 Dipole moment (field-independent basis, Debye):
    X=             -0.0000    Y=              0.0000    Z=             -0.0000  Tot=              0.0000
 Quadrupole moment (field-independent basis, Debye-Ang):
   XX=            -12.9579   YY=            -12.2486   ZZ=            -18.6725
   XY=              0.0000   XZ=              0.0000   YZ=              0.0000

 Normal termination of Gaussian 09 at Thu Feb  9 15:40:59 2017.
