 Gaussian 09, Revision E.01,
 Gaussian 09:  ES64L-G09RevE.01 30-Nov-2015

 ----------------------------------------------------------------------
 #rhf/gen scf(symm,tight,novaracc,noincfock,fulldiag) stable(crhf) geom
 =nocrowd test
 ----------------------------------------------------------------------

 hf stability analysis of h10 triangular lattice, y= 0.6613918164089346
 3
 ----------------------------------------------------------------------
 Symbolic Z-matrix:
 Charge =  0 Multiplicity = 1

                         Standard orientation:
 ---------------------------------------------------------------------
 Center     Atomic      Atomic             Coordinates (Angstroms)
 Number     Number       Type             X           Y           Z
 ---------------------------------------------------------------------
      1          1           0        0.000000    0.661392    1.745865
      2          1           0        0.000000    0.000000    2.618797
      3          1           0        0.000000    0.000000    0.872932
      4          1           0       -0.000000   -0.661392    1.745865
      5          1           0       -0.000000    0.661392   -0.000000
      6          1           0       -0.000000   -0.661392    0.000000
      7          1           0        0.000000   -0.000000   -0.872932
      8          1           0        0.000000    0.661392   -1.745865
      9          1           0       -0.000000   -0.661392   -1.745865
     10          1           0        0.000000   -0.000000   -2.618797
 ---------------------------------------------------------------------

 SCF Done:  E(RHF) =  -4.82004344901     A.U. after    9 cycles
 E2 =    -0.1171775878D+00 EUMP2 =    -0.49372210368245D+01

 The electronic state is 1-AG.
 Alpha  occ. eigenvalues --   -0.82926  -0.73275  -0.54906  -0.31127  -0.28756
 Alpha virt. eigenvalues --   -0.00736   0.20036   0.20152   0.50818   0.69655

 Mulliken charges:
               1
     1  H    0.215034
     2  H   -0.202060
     3  H   -0.261494
     4  H    0.215034
     5  H    0.033485
     6  H    0.033485
     7  H   -0.261494
     8  H    0.215034
     9  H    0.215034
    10  H   -0.202060
 Sum of Mulliken charges =   0.00000

 Dipole moment (field-independent basis, Debye):
    X=             -0.0000    Y=             -0.0000    Z=             -0.0000  Tot=              0.0000
 Quadrupole moment (field-independent basis, Debye-Ang):
   XX=            -12.9758   YY=            -12.4128   ZZ=            -18.2822
   XY=              0.0000   XZ=              0.0000   YZ=             -0.0000

 Normal termination of Gaussian 09 at Thu Feb  9 15:41:33 2017.
