 Gaussian 09, Revision E.01,
 Gaussian 09:  ES64L-G09RevE.01 30-Nov-2015

 ----------------------------------------------------------------------
 #rhf/gen scf(symm,tight,novaracc,noincfock,fulldiag) stable(crhf) geom
 =nocrowd test
 ----------------------------------------------------------------------

 hf stability analysis of h10 triangular lattice, y= 0.2728963831954491
 8
 ----------------------------------------------------------------------
 Symbolic Z-matrix:
 Charge =  0 Multiplicity = 1

                         Standard orientation:
 ---------------------------------------------------------------------
 Center     Atomic      Atomic             Coordinates (Angstroms)
 Number     Number       Type             X           Y           Z
 ---------------------------------------------------------------------
      1          1           0        0.000000    0.272896    4.231278
      2          1           0        0.000000   -0.000000    6.346917
      3          1           0        0.000000   -0.000000    2.115639
      4          1           0       -0.000000   -0.272896    4.231278
      5          1           0       -0.000000    0.272896    0.000000
      6          1           0       -0.000000   -0.272896   -0.000000
      7          1           0        0.000000    0.000000   -2.115639
      8          1           0        0.000000    0.272896   -4.231278
      9          1           0       -0.000000   -0.272896   -4.231278
     10          1           0        0.000000    0.000000   -6.346917
 ---------------------------------------------------------------------

 SCF Done:  E(RHF) =  -4.52181857957     A.U. after   11 cycles
 E2 =    -0.4334078755D+00 EUMP2 =    -0.49552264550629D+01

 The electronic state is 1-AG.
 Alpha  occ. eigenvalues --   -0.70820  -0.70653  -0.70165  -0.26020  -0.24284
 Alpha virt. eigenvalues --   -0.11052  -0.09188   0.54784   0.55015   0.55798

 Mulliken charges:
               1
     1  H    0.007472
     2  H   -0.021272
     3  H    0.006506
     4  H    0.007472
     5  H   -0.000179
     6  H   -0.000179
     7  H    0.006506
     8  H    0.007472
     9  H    0.007472
    10  H   -0.021272
 Sum of Mulliken charges =  -0.00000

 Dipole moment (field-independent basis, Debye):
    X=             -0.0000    Y=              0.0000    Z=              0.0000  Tot=              0.0000
 Quadrupole moment (field-independent basis, Debye-Ang):
   XX=            -13.5916   YY=            -12.7965   ZZ=            -20.0723
   XY=              0.0000   XZ=              0.0000   YZ=              0.0000

 Normal termination of Gaussian 09 at Thu Feb  9 16:05:50 2017.
