 Gaussian 09, Revision E.01,
 Gaussian 09:  ES64L-G09RevE.01 30-Nov-2015

 ----------------------------------------------------------------------
 #rhf/gen scf(symm,tight,novaracc,noincfock,fulldiag) stable(crhf) geom
 =nocrowd test
 ----------------------------------------------------------------------

 hf stability analysis of h10 triangular lattice, y= 0.6411398096518258
 2
 ----------------------------------------------------------------------
 Symbolic Z-matrix:
 Charge =  0 Multiplicity = 1

                         Standard orientation:
 ---------------------------------------------------------------------
 Center     Atomic      Atomic             Coordinates (Angstroms)
 Number     Number       Type             X           Y           Z
 ---------------------------------------------------------------------
      1          1           0       -0.000000    0.641140    1.801012
      2          1           0       -0.000000    0.000000    2.701518
      3          1           0       -0.000000    0.000000    0.900506
      4          1           0       -0.000000   -0.641140    1.801012
      5          1           0       -0.000000    0.641140    0.000000
      6          1           0       -0.000000   -0.641140    0.000000
      7          1           0        0.000000   -0.000000   -0.900506
      8          1           0        0.000000    0.641140   -1.801012
      9          1           0       -0.000000   -0.641140   -1.801012
     10          1           0        0.000000   -0.000000   -2.701518
 ---------------------------------------------------------------------

 SCF Done:  E(RHF) =  -4.81537846226     A.U. after    9 cycles
 E2 =    -0.1234246083D+00 EUMP2 =    -0.49388030705736D+01

 The electronic state is 1-AG.
 Alpha  occ. eigenvalues --   -0.82079  -0.73200  -0.55550  -0.29686  -0.28820
 Alpha virt. eigenvalues --    0.00398   0.17119   0.20168   0.48072   0.70173

 Mulliken charges:
               1
     1  H    0.196202
     2  H   -0.172043
     3  H   -0.247654
     4  H    0.196202
     5  H    0.027293
     6  H    0.027293
     7  H   -0.247654
     8  H    0.196202
     9  H    0.196202
    10  H   -0.172043
 Sum of Mulliken charges =  -0.00000

 Dipole moment (field-independent basis, Debye):
    X=             -0.0000    Y=              0.0000    Z=             -0.0000  Tot=              0.0000
 Quadrupole moment (field-independent basis, Debye-Ang):
   XX=            -13.0223   YY=            -12.8305   ZZ=            -17.1708
   XY=              0.0000   XZ=              0.0000   YZ=              0.0000

 Normal termination of Gaussian 09 at Thu Feb  9 15:43:01 2017.
