 Gaussian 09, Revision E.01,
 Gaussian 09:  ES64L-G09RevE.01 30-Nov-2015

 ----------------------------------------------------------------------
 #rhf/gen scf(symm,tight,novaracc,noincfock,fulldiag) stable(crhf) geom
 =nocrowd test
 ----------------------------------------------------------------------

 hf stability analysis of h10 triangular lattice, y= 0.6393643654473939
 5
 ----------------------------------------------------------------------
 Symbolic Z-matrix:
 Charge =  0 Multiplicity = 1

                         Standard orientation:
 ---------------------------------------------------------------------
 Center     Atomic      Atomic             Coordinates (Angstroms)
 Number     Number       Type             X           Y           Z
 ---------------------------------------------------------------------
      1          1           0       -0.000000    0.639364    1.806013
      2          1           0        0.000000   -0.000000    2.709020
      3          1           0        0.000000   -0.000000    0.903007
      4          1           0       -0.000000   -0.639364    1.806013
      5          1           0       -0.000000    0.639364    0.000000
      6          1           0       -0.000000   -0.639364   -0.000000
      7          1           0        0.000000    0.000000   -0.903007
      8          1           0        0.000000    0.639364   -1.806013
      9          1           0       -0.000000   -0.639364   -1.806013
     10          1           0        0.000000    0.000000   -2.709020
 ---------------------------------------------------------------------

 SCF Done:  E(RHF) =  -4.81470533363     A.U. after    9 cycles
 E2 =    -0.1240209231D+00 EUMP2 =    -0.49387262567691D+01

 The electronic state is 1-AG.
 Alpha  occ. eigenvalues --   -0.82001  -0.73188  -0.55603  -0.29759  -0.28612
 Alpha virt. eigenvalues --    0.00503   0.16855   0.20186   0.47813   0.70170

 Mulliken charges:
               1
     1  H    0.194486
     2  H   -0.169351
     3  H   -0.246281
     4  H    0.194486
     5  H    0.026659
     6  H    0.026659
     7  H   -0.246281
     8  H    0.194486
     9  H    0.194486
    10  H   -0.169351
 Sum of Mulliken charges =   0.00000

 Dipole moment (field-independent basis, Debye):
    X=             -0.0000    Y=             -0.0000    Z=             -0.0000  Tot=              0.0000
 Quadrupole moment (field-independent basis, Debye-Ang):
   XX=            -13.0264   YY=            -12.8665   ZZ=            -17.0661
   XY=              0.0000   XZ=              0.0000   YZ=             -0.0000

 Normal termination of Gaussian 09 at Thu Feb  9 15:43:09 2017.
