 Gaussian 09, Revision E.01,
 Gaussian 09:  ES64L-G09RevE.01 30-Nov-2015

 ----------------------------------------------------------------------
 #rhf/gen scf(symm,tight,novaracc,noincfock,fulldiag) stable(crhf) geom
 =nocrowd test
 ----------------------------------------------------------------------

 hf stability analysis of h10 triangular lattice, y= 0.6187606953337878
 6
 ----------------------------------------------------------------------
 Symbolic Z-matrix:
 Charge =  0 Multiplicity = 1

                         Standard orientation:
 ---------------------------------------------------------------------
 Center     Atomic      Atomic             Coordinates (Angstroms)
 Number     Number       Type             X           Y           Z
 ---------------------------------------------------------------------
      1          1           0        0.000000    0.618761    1.866150
      2          1           0        0.000000    0.000000    2.799226
      3          1           0        0.000000    0.000000    0.933075
      4          1           0       -0.000000   -0.618761    1.866150
      5          1           0       -0.000000    0.618761   -0.000000
      6          1           0       -0.000000   -0.618761    0.000000
      7          1           0        0.000000    0.000000   -0.933075
      8          1           0        0.000000    0.618761   -1.866150
      9          1           0       -0.000000   -0.618761   -1.866150
     10          1           0        0.000000    0.000000   -2.799226
 ---------------------------------------------------------------------

 SCF Done:  E(RHF) =  -4.80362948334     A.U. after    9 cycles
 E2 =    -0.1315742753D+00 EUMP2 =    -0.49352037586863D+01

 The electronic state is 1-AG.
 Alpha  occ. eigenvalues --   -0.81047  -0.73005  -0.56156  -0.30508  -0.26119
 Alpha virt. eigenvalues --    0.01787   0.13837   0.20472   0.44610   0.69555

 Mulliken charges:
               1
     1  H    0.173841
     2  H   -0.137438
     3  H   -0.228504
     4  H    0.173841
     5  H    0.018260
     6  H    0.018260
     7  H   -0.228504
     8  H    0.173841
     9  H    0.173841
    10  H   -0.137438
 Sum of Mulliken charges =  -0.00000

 Dipole moment (field-independent basis, Debye):
    X=             -0.0000    Y=              0.0000    Z=             -0.0000  Tot=              0.0000
 Quadrupole moment (field-independent basis, Debye-Ang):
   XX=            -13.0735   YY=            -13.2758   ZZ=            -15.7568
   XY=              0.0000   XZ=              0.0000   YZ=             -0.0000

 Normal termination of Gaussian 09 at Thu Feb  9 15:44:40 2017.
