 Gaussian 09, Revision E.01,
 Gaussian 09:  ES64L-G09RevE.01 30-Nov-2015

 ----------------------------------------------------------------------
 #rhf/gen scf(symm,tight,novaracc,noincfock,fulldiag) stable(crhf) geom
 =nocrowd test
 ----------------------------------------------------------------------

 hf stability analysis of h10 triangular lattice, y= 0.2672100020615483
 8
 ----------------------------------------------------------------------
 Symbolic Z-matrix:
 Charge =  0 Multiplicity = 1

                         Standard orientation:
 ---------------------------------------------------------------------
 Center     Atomic      Atomic             Coordinates (Angstroms)
 Number     Number       Type             X           Y           Z
 ---------------------------------------------------------------------
      1          1           0        0.000000    0.267210    4.321322
      2          1           0        0.000000    0.000000    6.481983
      3          1           0        0.000000    0.000000    2.160661
      4          1           0       -0.000000   -0.267210    4.321322
      5          1           0        0.000000    0.267210   -0.000000
      6          1           0       -0.000000   -0.267210    0.000000
      7          1           0        0.000000   -0.000000   -2.160661
      8          1           0        0.000000    0.267210   -4.321322
      9          1           0       -0.000000   -0.267210   -4.321322
     10          1           0        0.000000   -0.000000   -6.481983
 ---------------------------------------------------------------------

 SCF Done:  E(RHF) =  -4.48656917249     A.U. after   11 cycles
 E2 =    -0.4563383275D+00 EUMP2 =    -0.49429075000344D+01

 The electronic state is 1-AG.
 Alpha  occ. eigenvalues --   -0.71022  -0.70880  -0.70471  -0.25784  -0.24235
 Alpha virt. eigenvalues --   -0.11388  -0.09733   0.56106   0.56305   0.56981

 Mulliken charges:
               1
     1  H    0.005407
     2  H   -0.017496
     3  H    0.007403
     4  H    0.005407
     5  H   -0.000722
     6  H   -0.000722
     7  H    0.007403
     8  H    0.005407
     9  H    0.005407
    10  H   -0.017496
 Sum of Mulliken charges =   0.00000

 Dipole moment (field-independent basis, Debye):
    X=             -0.0000    Y=              0.0000    Z=              0.0000  Tot=              0.0000
 Quadrupole moment (field-independent basis, Debye-Ang):
   XX=            -13.5888   YY=            -12.8259   ZZ=            -19.4241
   XY=              0.0000   XZ=              0.0000   YZ=              0.0000

 Normal termination of Gaussian 09 at Thu Feb  9 16:06:02 2017.
