 Gaussian 09, Revision E.01,
 Gaussian 09:  ES64L-G09RevE.01 30-Nov-2015

 ----------------------------------------------------------------------
 #rhf/gen scf(symm,tight,novaracc,noincfock,fulldiag) stable(crhf) geom
 =nocrowd test
 ----------------------------------------------------------------------

 hf stability analysis of h10 triangular lattice, y= 0.4793282630849642
 9
 ----------------------------------------------------------------------
 Symbolic Z-matrix:
 Charge =  0 Multiplicity = 1

                         Standard orientation:
 ---------------------------------------------------------------------
 Center     Atomic      Atomic             Coordinates (Angstroms)
 Number     Number       Type             X           Y           Z
 ---------------------------------------------------------------------
      1          1           0        0.000000    0.479328    2.408997
      2          1           0        0.000000    0.000000    3.613496
      3          1           0        0.000000    0.000000    1.204499
      4          1           0       -0.000000   -0.479328    2.408997
      5          1           0        0.000000    0.479328    0.000000
      6          1           0       -0.000000   -0.479328    0.000000
      7          1           0        0.000000   -0.000000   -1.204499
      8          1           0        0.000000    0.479328   -2.408997
      9          1           0       -0.000000   -0.479328   -2.408997
     10          1           0        0.000000   -0.000000   -3.613496
 ---------------------------------------------------------------------

 SCF Done:  E(RHF) =  -4.86202334036     A.U. after    9 cycles
 E2 =    -0.9767895740D-01 EUMP2 =    -0.49597022977610D+01

 The electronic state is 1-AG.
 Alpha  occ. eigenvalues --   -0.77081  -0.71662  -0.63457  -0.34250  -0.19954
 Alpha virt. eigenvalues --    0.13816   0.16485   0.19157   0.25106   0.34834

 Mulliken charges:
               1
     1  H    0.211593
     2  H   -0.355512
     3  H   -0.179832
     4  H    0.211593
     5  H    0.112157
     6  H    0.112157
     7  H   -0.179832
     8  H    0.211593
     9  H    0.211593
    10  H   -0.355512
 Sum of Mulliken charges =   0.00000

 Dipole moment (field-independent basis, Debye):
    X=             -0.0000    Y=             -0.0000    Z=              0.0000  Tot=              0.0000
 Quadrupole moment (field-independent basis, Debye-Ang):
   XX=            -13.1738   YY=            -10.3038   ZZ=            -41.5359
   XY=              0.0000   XZ=              0.0000   YZ=             -0.0000

 Normal termination of Gaussian 09 at Thu Feb  9 15:54:58 2017.
