 Gaussian 09, Revision E.01,
 Gaussian 09:  ES64L-G09RevE.01 30-Nov-2015

 ----------------------------------------------------------------------
 #rhf/gen scf(symm,tight,novaracc,noincfock,fulldiag) stable(crhf) geom
 =nocrowd test
 ----------------------------------------------------------------------

 hf stability analysis of h10 triangular lattice, y= 0.5913169738758479
 2
 ----------------------------------------------------------------------
 Symbolic Z-matrix:
 Charge =  0 Multiplicity = 1

                         Standard orientation:
 ---------------------------------------------------------------------
 Center     Atomic      Atomic             Coordinates (Angstroms)
 Number     Number       Type             X           Y           Z
 ---------------------------------------------------------------------
      1          1           0       -0.000000    0.591317    1.952761
      2          1           0       -0.000000   -0.000000    2.929141
      3          1           0       -0.000000   -0.000000    0.976380
      4          1           0       -0.000000   -0.591317    1.952761
      5          1           0        0.000000    0.591317    0.000000
      6          1           0       -0.000000   -0.591317   -0.000000
      7          1           0        0.000000    0.000000   -0.976380
      8          1           0        0.000000    0.591317   -1.952761
      9          1           0       -0.000000   -0.591317   -1.952761
     10          1           0        0.000000    0.000000   -2.929141
 ---------------------------------------------------------------------

 SCF Done:  E(RHF) =  -4.77895573627     A.U. after    9 cycles
 E2 =    -0.1436862628D+00 EUMP2 =    -0.49226419990474D+01

 The electronic state is 1-AG.
 Alpha  occ. eigenvalues --   -0.79644  -0.72604  -0.56738  -0.31212  -0.22567
 Alpha virt. eigenvalues --    0.03707   0.09949   0.21090   0.39886   0.67046

 Mulliken charges:
               1
     1  H    0.144384
     2  H   -0.093222
     3  H   -0.199745
     4  H    0.144384
     5  H    0.004199
     6  H    0.004199
     7  H   -0.199745
     8  H    0.144384
     9  H    0.144384
    10  H   -0.093222
 Sum of Mulliken charges =   0.00000

 Dipole moment (field-independent basis, Debye):
    X=             -0.0000    Y=             -0.0000    Z=              0.0000  Tot=              0.0000
 Quadrupole moment (field-independent basis, Debye-Ang):
   XX=            -13.1354   YY=            -13.7928   ZZ=            -13.7167
   XY=              0.0000   XZ=              0.0000   YZ=             -0.0000

 Normal termination of Gaussian 09 at Thu Feb  9 15:46:44 2017.
