 Gaussian 09, Revision E.01,
 Gaussian 09:  ES64L-G09RevE.01 30-Nov-2015

 ----------------------------------------------------------------------
 #rhf/gen scf(symm,tight,novaracc,noincfock,fulldiag) stable(crhf) geom
 =nocrowd test
 ----------------------------------------------------------------------

 hf stability analysis of h10 triangular lattice, y= 0.3829207402470090
 1
 ----------------------------------------------------------------------
 Symbolic Z-matrix:
 Charge =  0 Multiplicity = 1

                         Standard orientation:
 ---------------------------------------------------------------------
 Center     Atomic      Atomic             Coordinates (Angstroms)
 Number     Number       Type             X           Y           Z
 ---------------------------------------------------------------------
      1          1           0       -0.000000    0.382921    3.015508
      2          1           0        0.000000   -0.000000    4.523262
      3          1           0        0.000000   -0.000000    1.507754
      4          1           0       -0.000000   -0.382921    3.015508
      5          1           0       -0.000000    0.382921    0.000000
      6          1           0       -0.000000   -0.382921   -0.000000
      7          1           0        0.000000    0.000000   -1.507754
      8          1           0        0.000000    0.382921   -3.015508
      9          1           0       -0.000000   -0.382921   -3.015508
     10          1           0        0.000000    0.000000   -4.523262
 ---------------------------------------------------------------------

 SCF Done:  E(RHF) =  -4.88091972968     A.U. after    9 cycles
 E2 =    -0.1601464691D+00 EUMP2 =    -0.50410661987525D+01

 The electronic state is 1-AG.
 Alpha  occ. eigenvalues --   -0.72001  -0.69948  -0.66371  -0.31322  -0.23794
 Alpha virt. eigenvalues --    0.00218   0.09201   0.30740   0.32645   0.36043

 Mulliken charges:
               1
     1  H    0.103469
     2  H   -0.178751
     3  H   -0.073482
     4  H    0.103469
     5  H    0.045295
     6  H    0.045295
     7  H   -0.073482
     8  H    0.103469
     9  H    0.103469
    10  H   -0.178751
 Sum of Mulliken charges =   0.00000

 Dipole moment (field-independent basis, Debye):
    X=             -0.0000    Y=             -0.0000    Z=              0.0000  Tot=              0.0000
 Quadrupole moment (field-independent basis, Debye-Ang):
   XX=            -13.5439   YY=            -11.8708   ZZ=            -34.8303
   XY=              0.0000   XZ=              0.0000   YZ=              0.0000

 Normal termination of Gaussian 09 at Thu Feb  9 16:01:11 2017.
