 Gaussian 09, Revision E.01,
 Gaussian 09:  ES64L-G09RevE.01 30-Nov-2015

 ----------------------------------------------------------------------
 #rhf/gen scf(symm,tight,novaracc,noincfock,fulldiag) stable(crhf) geom
 =nocrowd test
 ----------------------------------------------------------------------

 hf stability analysis of h10 triangular lattice, y= 0.4062110374862604
 2
 ----------------------------------------------------------------------
 Symbolic Z-matrix:
 Charge =  0 Multiplicity = 1

                         Standard orientation:
 ---------------------------------------------------------------------
 Center     Atomic      Atomic             Coordinates (Angstroms)
 Number     Number       Type             X           Y           Z
 ---------------------------------------------------------------------
      1          1           0        0.000000    0.406211    2.842612
      2          1           0       -0.000000    0.000000    4.263919
      3          1           0       -0.000000    0.000000    1.421306
      4          1           0       -0.000000   -0.406211    2.842612
      5          1           0        0.000000    0.406211    0.000000
      6          1           0       -0.000000   -0.406211   -0.000000
      7          1           0        0.000000   -0.000000   -1.421306
      8          1           0        0.000000    0.406211   -2.842612
      9          1           0       -0.000000   -0.406211   -2.842612
     10          1           0        0.000000   -0.000000   -4.263919
 ---------------------------------------------------------------------

 SCF Done:  E(RHF) =  -4.90085116436     A.U. after    8 cycles
 E2 =    -0.1365232919D+00 EUMP2 =    -0.50373744562301D+01

 The electronic state is 1-AG.
 Alpha  occ. eigenvalues --   -0.73102  -0.70305  -0.65749  -0.32332  -0.23218
 Alpha virt. eigenvalues --    0.03698   0.14828   0.26268   0.28861   0.32828

 Mulliken charges:
               1
     1  H    0.130340
     2  H   -0.222640
     3  H   -0.098864
     4  H    0.130340
     5  H    0.060824
     6  H    0.060824
     7  H   -0.098864
     8  H    0.130340
     9  H    0.130340
    10  H   -0.222640
 Sum of Mulliken charges =  -0.00000

 Dipole moment (field-independent basis, Debye):
    X=             -0.0000    Y=             -0.0000    Z=             -0.0000  Tot=              0.0000
 Quadrupole moment (field-independent basis, Debye-Ang):
   XX=            -13.4796   YY=            -11.5521   ZZ=            -37.1775
   XY=              0.0000   XZ=              0.0000   YZ=             -0.0000

 Normal termination of Gaussian 09 at Thu Feb  9 15:59:51 2017.
