 Gaussian 09, Revision E.01,
 Gaussian 09:  ES64L-G09RevE.01 30-Nov-2015

 ----------------------------------------------------------------------
 #rhf/gen scf(symm,tight,novaracc,noincfock,fulldiag) stable(crhf) geom
 =nocrowd test
 ----------------------------------------------------------------------

 hf stability analysis of h10 triangular lattice, y= 0.7197407801044947
 2
 ----------------------------------------------------------------------
 Symbolic Z-matrix:
 Charge =  0 Multiplicity = 1

                         Standard orientation:
 ---------------------------------------------------------------------
 Center     Atomic      Atomic             Coordinates (Angstroms)
 Number     Number       Type             X           Y           Z
 ---------------------------------------------------------------------
      1          1           0        0.000000    0.719741    1.604328
      2          1           0        0.000000   -0.000000    2.406493
      3          1           0        0.000000   -0.000000    0.802164
      4          1           0       -0.000000   -0.719741    1.604328
      5          1           0       -0.000000    0.719741    0.000000
      6          1           0       -0.000000   -0.719741   -0.000000
      7          1           0        0.000000    0.000000   -0.802164
      8          1           0        0.000000    0.719741   -1.604328
      9          1           0       -0.000000   -0.719741   -1.604328
     10          1           0        0.000000    0.000000   -2.406493
 ---------------------------------------------------------------------

 SCF Done:  E(RHF) =  -4.80471393434     A.U. after    8 cycles
 E2 =    -0.1040167489D+00 EUMP2 =    -0.49087306832028D+01

 The electronic state is 1-AG.
 Alpha  occ. eigenvalues --   -0.84904  -0.72981  -0.52587  -0.37155  -0.25168
 Alpha virt. eigenvalues --   -0.03448   0.20318   0.28996   0.56230   0.63565

 Mulliken charges:
               1
     1  H    0.261302
     2  H   -0.280907
     3  H   -0.282405
     4  H    0.261302
     5  H    0.040708
     6  H    0.040708
     7  H   -0.282405
     8  H    0.261302
     9  H    0.261302
    10  H   -0.280907
 Sum of Mulliken charges =  -0.00000

 Dipole moment (field-independent basis, Debye):
    X=             -0.0000    Y=             -0.0000    Z=             -0.0000  Tot=              0.0000
 Quadrupole moment (field-independent basis, Debye-Ang):
   XX=            -12.8441   YY=            -11.1612   ZZ=            -20.7612
   XY=              0.0000   XZ=              0.0000   YZ=             -0.0000

 Normal termination of Gaussian 09 at Thu Feb  9 15:37:28 2017.
