 Gaussian 09, Revision E.01,
 Gaussian 09:  ES64L-G09RevE.01 30-Nov-2015

 ----------------------------------------------------------------------
 #rhf/gen scf(symm,tight,novaracc,noincfock,fulldiag) stable(crhf) geom
 =nocrowd test
 ----------------------------------------------------------------------

 hf stability analysis of h10 triangular lattice, y= 0.7128169485920491
 4
 ----------------------------------------------------------------------
 Symbolic Z-matrix:
 Charge =  0 Multiplicity = 1

                         Standard orientation:
 ---------------------------------------------------------------------
 Center     Atomic      Atomic             Coordinates (Angstroms)
 Number     Number       Type             X           Y           Z
 ---------------------------------------------------------------------
      1          1           0        0.000000    0.712817    1.619912
      2          1           0       -0.000000   -0.000000    2.429868
      3          1           0       -0.000000   -0.000000    0.809956
      4          1           0       -0.000000   -0.712817    1.619912
      5          1           0       -0.000000    0.712817    0.000000
      6          1           0       -0.000000   -0.712817   -0.000000
      7          1           0        0.000000    0.000000   -0.809956
      8          1           0        0.000000    0.712817   -1.619912
      9          1           0       -0.000000   -0.712817   -1.619912
     10          1           0        0.000000    0.000000   -2.429868
 ---------------------------------------------------------------------

 SCF Done:  E(RHF) =  -4.80863989374     A.U. after    9 cycles
 E2 =    -0.1052526843D+00 EUMP2 =    -0.49138925780179D+01

 The electronic state is 1-AG.
 Alpha  occ. eigenvalues --   -0.84703  -0.73053  -0.52895  -0.36482  -0.25659
 Alpha virt. eigenvalues --   -0.03165   0.20238   0.27953   0.55796   0.64560

 Mulliken charges:
               1
     1  H    0.256442
     2  H   -0.272156
     3  H   -0.281378
     4  H    0.256442
     5  H    0.040650
     6  H    0.040650
     7  H   -0.281378
     8  H    0.256442
     9  H    0.256442
    10  H   -0.272156
 Sum of Mulliken charges =   0.00000

 Dipole moment (field-independent basis, Debye):
    X=             -0.0000    Y=              0.0000    Z=              0.0000  Tot=              0.0000
 Quadrupole moment (field-independent basis, Debye-Ang):
   XX=            -12.8594   YY=            -11.3119   ZZ=            -20.5144
   XY=              0.0000   XZ=              0.0000   YZ=             -0.0000

 Normal termination of Gaussian 09 at Thu Feb  9 15:37:56 2017.
