 Gaussian 09, Revision E.01,
 Gaussian 09:  ES64L-G09RevE.01 30-Nov-2015

 ----------------------------------------------------------------------
 #rhf/gen scf(symm,tight,novaracc,noincfock,fulldiag) stable(crhf) geom
 =nocrowd test
 ----------------------------------------------------------------------

 hf stability analysis of h10 triangular lattice, y= 0.5376946044659680
 6
 ----------------------------------------------------------------------
 Symbolic Z-matrix:
 Charge =  0 Multiplicity = 1

                         Standard orientation:
 ---------------------------------------------------------------------
 Center     Atomic      Atomic             Coordinates (Angstroms)
 Number     Number       Type             X           Y           Z
 ---------------------------------------------------------------------
      1          1           0        0.000000    0.537695    2.147503
      2          1           0        0.000000    0.000000    3.221254
      3          1           0        0.000000    0.000000    1.073751
      4          1           0       -0.000000   -0.537695    2.147503
      5          1           0        0.000000    0.537695    0.000000
      6          1           0       -0.000000   -0.537695   -0.000000
      7          1           0        0.000000   -0.000000   -1.073751
      8          1           0        0.000000    0.537695   -2.147503
      9          1           0       -0.000000   -0.537695   -2.147503
     10          1           0        0.000000   -0.000000   -3.221254
 ---------------------------------------------------------------------

 SCF Done:  E(RHF) =  -4.73320048445     A.U. after    8 cycles
 E2 =    -0.8794627243D-01 EUMP2 =    -0.48211467568789D+01

 The electronic state is 1-AG.
 Alpha  occ. eigenvalues --   -0.80081  -0.72553  -0.61090  -0.34086  -0.15614
 Alpha virt. eigenvalues --    0.05499   0.13314   0.21161   0.27941   0.50742

 Mulliken charges:
               1
     1  H    0.268865
     2  H   -0.448146
     3  H   -0.242496
     4  H    0.268865
     5  H    0.152911
     6  H    0.152911
     7  H   -0.242496
     8  H    0.268865
     9  H    0.268865
    10  H   -0.448146
 Sum of Mulliken charges =  -0.00000

 Dipole moment (field-independent basis, Debye):
    X=             -0.0000    Y=              0.0000    Z=              0.0000  Tot=              0.0000
 Quadrupole moment (field-independent basis, Debye-Ang):
   XX=            -12.8671   YY=             -9.1068   ZZ=            -42.5679
   XY=              0.0000   XZ=              0.0000   YZ=             -0.0000

 Normal termination of Gaussian 09 at Thu Feb  9 15:50:44 2017.
