 Gaussian 09, Revision E.01,
 Gaussian 09:  ES64L-G09RevE.01 30-Nov-2015

 ----------------------------------------------------------------------
 #rhf/gen scf(symm,tight,novaracc,noincfock,fulldiag) stable(crhf) geom
 =nocrowd test
 ----------------------------------------------------------------------

 hf stability analysis of h10 triangular lattice, y= 0.4998417543389152
 0
 ----------------------------------------------------------------------
 Symbolic Z-matrix:
 Charge =  0 Multiplicity = 1

                         Standard orientation:
 ---------------------------------------------------------------------
 Center     Atomic      Atomic             Coordinates (Angstroms)
 Number     Number       Type             X           Y           Z
 ---------------------------------------------------------------------
      1          1           0        0.000000    0.499842    2.310132
      2          1           0        0.000000   -0.000000    3.465198
      3          1           0        0.000000   -0.000000    1.155066
      4          1           0       -0.000000   -0.499842    2.310132
      5          1           0        0.000000    0.499842    0.000000
      6          1           0       -0.000000   -0.499842   -0.000000
      7          1           0        0.000000    0.000000   -1.155066
      8          1           0        0.000000    0.499842   -2.310132
      9          1           0       -0.000000   -0.499842   -2.310132
     10          1           0        0.000000    0.000000   -3.465198
 ---------------------------------------------------------------------

 SCF Done:  E(RHF) =  -4.82575751480     A.U. after    9 cycles
 E2 =    -0.9272571319D-01 EUMP2 =    -0.49184832279878D+01

 The electronic state is 1-AG.
 Alpha  occ. eigenvalues --   -0.78186  -0.72018  -0.62683  -0.34371  -0.18608
 Alpha virt. eigenvalues --    0.10735   0.16938   0.20443   0.23521   0.40642

 Mulliken charges:
               1
     1  H    0.232609
     2  H   -0.389646
     3  H   -0.202206
     4  H    0.232609
     5  H    0.126633
     6  H    0.126633
     7  H   -0.202206
     8  H    0.232609
     9  H    0.232609
    10  H   -0.389646
 Sum of Mulliken charges =  -0.00000

 Dipole moment (field-independent basis, Debye):
    X=             -0.0000    Y=             -0.0000    Z=              0.0000  Tot=              0.0000
 Quadrupole moment (field-independent basis, Debye-Ang):
   XX=            -13.0697   YY=             -9.8994   ZZ=            -42.0881
   XY=              0.0000   XZ=              0.0000   YZ=              0.0000

 Normal termination of Gaussian 09 at Thu Feb  9 15:53:29 2017.
