 Gaussian 09, Revision E.01,
 Gaussian 09:  ES64L-G09RevE.01 30-Nov-2015

 ----------------------------------------------------------------------
 #rhf/gen scf(symm,tight,novaracc,noincfock,fulldiag) stable(crhf) geom
 =nocrowd test
 ----------------------------------------------------------------------

 hf stability analysis of h10 triangular lattice, y= 0.6293333646024982
 2
 ----------------------------------------------------------------------
 Symbolic Z-matrix:
 Charge =  0 Multiplicity = 1

                         Standard orientation:
 ---------------------------------------------------------------------
 Center     Atomic      Atomic             Coordinates (Angstroms)
 Number     Number       Type             X           Y           Z
 ---------------------------------------------------------------------
      1          1           0        0.000000    0.629333    1.834800
      2          1           0        0.000000    0.000000    2.752199
      3          1           0        0.000000    0.000000    0.917400
      4          1           0       -0.000000   -0.629333    1.834800
      5          1           0       -0.000000    0.629333   -0.000000
      6          1           0       -0.000000   -0.629333    0.000000
      7          1           0        0.000000   -0.000000   -0.917400
      8          1           0        0.000000    0.629333   -1.834800
      9          1           0       -0.000000   -0.629333   -1.834800
     10          1           0        0.000000   -0.000000   -2.752199
 ---------------------------------------------------------------------

 SCF Done:  E(RHF) =  -4.81007408717     A.U. after    9 cycles
 E2 =    -0.1275485384D+00 EUMP2 =    -0.49376226255731D+01

 The electronic state is 1-AG.
 Alpha  occ. eigenvalues --   -0.81547  -0.73111  -0.55884  -0.30147  -0.27416
 Alpha virt. eigenvalues --    0.01112   0.15376   0.20307   0.46296   0.70007

 Mulliken charges:
               1
     1  H    0.184601
     2  H   -0.153965
     3  H   -0.238046
     4  H    0.184601
     5  H    0.022809
     6  H    0.022809
     7  H   -0.238046
     8  H    0.184601
     9  H    0.184601
    10  H   -0.153965
 Sum of Mulliken charges =  -0.00000

 Dipole moment (field-independent basis, Debye):
    X=             -0.0000    Y=             -0.0000    Z=             -0.0000  Tot=              0.0000
 Quadrupole moment (field-independent basis, Debye-Ang):
   XX=            -13.0494   YY=            -13.0678   ZZ=            -16.4508
   XY=              0.0000   XZ=              0.0000   YZ=             -0.0000

 Normal termination of Gaussian 09 at Thu Feb  9 15:43:54 2017.
