 Gaussian 09, Revision E.01,
 Gaussian 09:  ES64L-G09RevE.01 30-Nov-2015

 ----------------------------------------------------------------------
 #rhf/gen scf(symm,tight,novaracc,noincfock,fulldiag) stable(crhf) geom
 =nocrowd test
 ----------------------------------------------------------------------

 hf stability analysis of h10 triangular lattice, y= 0.3953753964519326
 5
 ----------------------------------------------------------------------
 Symbolic Z-matrix:
 Charge =  0 Multiplicity = 1

                         Standard orientation:
 ---------------------------------------------------------------------
 Center     Atomic      Atomic             Coordinates (Angstroms)
 Number     Number       Type             X           Y           Z
 ---------------------------------------------------------------------
      1          1           0       -0.000000    0.395375    2.920517
      2          1           0       -0.000000    0.000000    4.380775
      3          1           0       -0.000000    0.000000    1.460258
      4          1           0       -0.000000   -0.395375    2.920517
      5          1           0       -0.000000    0.395375   -0.000000
      6          1           0       -0.000000   -0.395375    0.000000
      7          1           0        0.000000   -0.000000   -1.460258
      8          1           0        0.000000    0.395375   -2.920517
      9          1           0       -0.000000   -0.395375   -2.920517
     10          1           0        0.000000   -0.000000   -4.380775
 ---------------------------------------------------------------------

 SCF Done:  E(RHF) =  -4.89362534064     A.U. after    9 cycles
 E2 =    -0.1465696600D+00 EUMP2 =    -0.50401950006239D+01

 The electronic state is 1-AG.
 Alpha  occ. eigenvalues --   -0.72570  -0.70129  -0.66042  -0.31880  -0.23511
 Alpha virt. eigenvalues --    0.02037   0.12149   0.28317   0.30576   0.34276

 Mulliken charges:
               1
     1  H    0.117817
     2  H   -0.202165
     3  H   -0.086963
     4  H    0.117817
     5  H    0.053495
     6  H    0.053495
     7  H   -0.086963
     8  H    0.117817
     9  H    0.117817
    10  H   -0.202165
 Sum of Mulliken charges =  -0.00000

 Dipole moment (field-independent basis, Debye):
    X=             -0.0000    Y=              0.0000    Z=              0.0000  Tot=              0.0000
 Quadrupole moment (field-independent basis, Debye-Ang):
   XX=            -13.5120   YY=            -11.7058   ZZ=            -36.1466
   XY=              0.0000   XZ=              0.0000   YZ=             -0.0000

 Normal termination of Gaussian 09 at Thu Feb  9 16:00:29 2017.
