 Gaussian 09, Revision E.01,
 Gaussian 09:  ES64L-G09RevE.01 30-Nov-2015

 ----------------------------------------------------------------------
 #rhf/gen scf(symm,tight,novaracc,noincfock,fulldiag) stable(crhf) geom
 =nocrowd test
 ----------------------------------------------------------------------

 hf stability analysis of h10 triangular lattice, y= 0.7356770057443595
 7
 ----------------------------------------------------------------------
 Symbolic Z-matrix:
 Charge =  0 Multiplicity = 1

                         Standard orientation:
 ---------------------------------------------------------------------
 Center     Atomic      Atomic             Coordinates (Angstroms)
 Number     Number       Type             X           Y           Z
 ---------------------------------------------------------------------
      1          1           0        0.000000    0.735677    1.569575
      2          1           0        0.000000   -0.000000    2.354363
      3          1           0        0.000000   -0.000000    0.784788
      4          1           0       -0.000000   -0.735677    1.569575
      5          1           0       -0.000000    0.735677    0.000000
      6          1           0       -0.000000   -0.735677   -0.000000
      7          1           0        0.000000    0.000000   -0.784788
      8          1           0        0.000000    0.735677   -1.569575
      9          1           0       -0.000000   -0.735677   -1.569575
     10          1           0        0.000000    0.000000   -2.354363
 ---------------------------------------------------------------------

 SCF Done:  E(RHF) =  -4.82026784451     A.U. after    8 cycles
 E2 =    -0.9841654574D-01 EUMP2 =    -0.49186843902497D+01

 The electronic state is 1-AG.
 Alpha  occ. eigenvalues --   -0.90012  -0.74405  -0.52802  -0.44326  -0.26381
 Alpha virt. eigenvalues --   -0.03772   0.14598   0.31249   0.54819   0.56079

 Mulliken charges:
               1
     1  H   -0.224075
     2  H    0.252316
     3  H    0.172102
     4  H   -0.224075
     5  H    0.023732
     6  H    0.023732
     7  H    0.172102
     8  H   -0.224075
     9  H   -0.224075
    10  H    0.252316
 Sum of Mulliken charges =  -0.00000

 Dipole moment (field-independent basis, Debye):
    X=              0.0000    Y=              0.0000    Z=              0.0000  Tot=              0.0000
 Quadrupole moment (field-independent basis, Debye-Ang):
   XX=            -13.0175   YY=            -18.8525   ZZ=             -9.8580
   XY=             -0.0000   XZ=             -0.0000   YZ=             -0.0000

 Normal termination of Gaussian 09 at Thu Feb  9 15:36:24 2017.
