 Gaussian 09, Revision E.01,
 Gaussian 09:  ES64L-G09RevE.01 30-Nov-2015

 ----------------------------------------------------------------------
 #rhf/gen scf(symm,tight,novaracc,noincfock,fulldiag) stable(crhf) geom
 =nocrowd test
 ----------------------------------------------------------------------

 hf stability analysis of h10 triangular lattice, y= 0.2937440693806230
 9
 ----------------------------------------------------------------------
 Symbolic Z-matrix:
 Charge =  0 Multiplicity = 1

                         Standard orientation:
 ---------------------------------------------------------------------
 Center     Atomic      Atomic             Coordinates (Angstroms)
 Number     Number       Type             X           Y           Z
 ---------------------------------------------------------------------
      1          1           0        0.000000    0.293744    3.930975
      2          1           0        0.000000   -0.000000    5.896462
      3          1           0        0.000000   -0.000000    1.965487
      4          1           0       -0.000000   -0.293744    3.930975
      5          1           0       -0.000000    0.293744    0.000000
      6          1           0       -0.000000   -0.293744   -0.000000
      7          1           0        0.000000    0.000000   -1.965487
      8          1           0        0.000000    0.293744   -3.930975
      9          1           0       -0.000000   -0.293744   -3.930975
     10          1           0        0.000000    0.000000   -5.896462
 ---------------------------------------------------------------------

 SCF Done:  E(RHF) =  -4.63258062329     A.U. after    9 cycles
 E2 =    -0.3561950361D+00 EUMP2 =    -0.49887756594087D+01

 The electronic state is 1-AG.
 Alpha  occ. eigenvalues --   -0.70328  -0.70024  -0.69168  -0.26938  -0.24412
 Alpha virt. eigenvalues --   -0.09621  -0.06856   0.49972   0.50352   0.51583

 Mulliken charges:
               1
     1  H    0.018000
     2  H   -0.039467
     3  H    0.000193
     4  H    0.018000
     5  H    0.003273
     6  H    0.003273
     7  H    0.000193
     8  H    0.018000
     9  H    0.018000
    10  H   -0.039467
 Sum of Mulliken charges =  -0.00000

 Dipole moment (field-independent basis, Debye):
    X=             -0.0000    Y=             -0.0000    Z=              0.0000  Tot=              0.0000
 Quadrupole moment (field-independent basis, Debye-Ang):
   XX=            -13.6031   YY=            -12.6805   ZZ=            -22.7301
   XY=              0.0000   XZ=              0.0000   YZ=              0.0000

 Normal termination of Gaussian 09 at Thu Feb  9 16:05:04 2017.
