 Gaussian 09, Revision E.01,
 Gaussian 09:  ES64L-G09RevE.01 30-Nov-2015

 ----------------------------------------------------------------------
 #rhf/gen scf(symm,tight,novaracc,noincfock,fulldiag) stable(crhf) geom
 =nocrowd test
 ----------------------------------------------------------------------

 hf stability analysis of h10 triangular lattice, y= 0.2719563886325044
 9
 ----------------------------------------------------------------------
 Symbolic Z-matrix:
 Charge =  0 Multiplicity = 1

                         Standard orientation:
 ---------------------------------------------------------------------
 Center     Atomic      Atomic             Coordinates (Angstroms)
 Number     Number       Type             X           Y           Z
 ---------------------------------------------------------------------
      1          1           0       -0.000000    0.271956    4.245903
      2          1           0       -0.000000    0.000000    6.368855
      3          1           0       -0.000000    0.000000    2.122952
      4          1           0       -0.000000   -0.271956    4.245903
      5          1           0       -0.000000    0.271956    0.000000
      6          1           0       -0.000000   -0.271956    0.000000
      7          1           0        0.000000    0.000000   -2.122952
      8          1           0        0.000000    0.271956   -4.245903
      9          1           0       -0.000000   -0.271956   -4.245903
     10          1           0        0.000000    0.000000   -6.368855
 ---------------------------------------------------------------------

 SCF Done:  E(RHF) =  -4.51615459912     A.U. after   10 cycles
 E2 =    -0.4371474120D+00 EUMP2 =    -0.49533020111064D+01

 The electronic state is 1-AG.
 Alpha  occ. eigenvalues --   -0.70851  -0.70689  -0.70214  -0.25980  -0.24276
 Alpha virt. eigenvalues --   -0.11109  -0.09281   0.55002   0.55228   0.55993

 Mulliken charges:
               1
     1  H    0.007108
     2  H   -0.020613
     3  H    0.006677
     4  H    0.007108
     5  H   -0.000279
     6  H   -0.000279
     7  H    0.006677
     8  H    0.007108
     9  H    0.007108
    10  H   -0.020613
 Sum of Mulliken charges =  -0.00000

 Dipole moment (field-independent basis, Debye):
    X=             -0.0000    Y=             -0.0000    Z=              0.0000  Tot=              0.0000
 Quadrupole moment (field-independent basis, Debye-Ang):
   XX=            -13.5911   YY=            -12.8014   ZZ=            -19.9626
   XY=              0.0000   XZ=              0.0000   YZ=             -0.0000

 Normal termination of Gaussian 09 at Thu Feb  9 16:05:52 2017.
