 Gaussian 09, Revision E.01,
 Gaussian 09:  ES64L-G09RevE.01 30-Nov-2015

 ----------------------------------------------------------------------
 #rhf/gen scf(symm,tight,novaracc,noincfock,fulldiag) stable(crhf) geom
 =nocrowd test
 ----------------------------------------------------------------------

 hf stability analysis of h10 triangular lattice, y= 0.5994738563976095
 3
 ----------------------------------------------------------------------
 Symbolic Z-matrix:
 Charge =  0 Multiplicity = 1

                         Standard orientation:
 ---------------------------------------------------------------------
 Center     Atomic      Atomic             Coordinates (Angstroms)
 Number     Number       Type             X           Y           Z
 ---------------------------------------------------------------------
      1          1           0        0.000000    0.599474    1.926190
      2          1           0        0.000000   -0.000000    2.889285
      3          1           0        0.000000   -0.000000    0.963095
      4          1           0       -0.000000   -0.599474    1.926190
      5          1           0       -0.000000    0.599474    0.000000
      6          1           0       -0.000000   -0.599474   -0.000000
      7          1           0        0.000000    0.000000   -0.963095
      8          1           0        0.000000    0.599474   -1.926190
      9          1           0       -0.000000   -0.599474   -1.926190
     10          1           0        0.000000    0.000000   -2.889285
 ---------------------------------------------------------------------

 SCF Done:  E(RHF) =  -4.78753391172     A.U. after    9 cycles
 E2 =    -0.1398159768D+00 EUMP2 =    -0.49273498884776D+01

 The electronic state is 1-AG.
 Alpha  occ. eigenvalues --   -0.80076  -0.72742  -0.56584  -0.31039  -0.23652
 Alpha virt. eigenvalues --    0.03110   0.11086   0.20877   0.41335   0.67989

 Mulliken charges:
               1
     1  H    0.153360
     2  H   -0.106547
     3  H   -0.208880
     4  H    0.153360
     5  H    0.008708
     6  H    0.008708
     7  H   -0.208880
     8  H    0.153360
     9  H    0.153360
    10  H   -0.106547
 Sum of Mulliken charges =  -0.00000

 Dipole moment (field-independent basis, Debye):
    X=             -0.0000    Y=              0.0000    Z=              0.0000  Tot=              0.0000
 Quadrupole moment (field-independent basis, Debye-Ang):
   XX=            -13.1172   YY=            -13.6429   ZZ=            -14.3611
   XY=              0.0000   XZ=              0.0000   YZ=             -0.0000

 Normal termination of Gaussian 09 at Thu Feb  9 15:46:07 2017.
