 Gaussian 09, Revision E.01,
 Gaussian 09:  ES64L-G09RevE.01 30-Nov-2015

 ----------------------------------------------------------------------
 #rhf/gen scf(symm,tight,novaracc,noincfock,fulldiag) stable(crhf) geom
 =nocrowd test
 ----------------------------------------------------------------------

 hf stability analysis of h10 triangular lattice, y= 0.2614075542186236
 6
 ----------------------------------------------------------------------
 Symbolic Z-matrix:
 Charge =  0 Multiplicity = 1

                         Standard orientation:
 ---------------------------------------------------------------------
 Center     Atomic      Atomic             Coordinates (Angstroms)
 Number     Number       Type             X           Y           Z
 ---------------------------------------------------------------------
      1          1           0        0.000000    0.261408    4.417242
      2          1           0        0.000000    0.000000    6.625864
      3          1           0        0.000000    0.000000    2.208621
      4          1           0       -0.000000   -0.261408    4.417242
      5          1           0       -0.000000    0.261408   -0.000000
      6          1           0       -0.000000   -0.261408    0.000000
      7          1           0        0.000000   -0.000000   -2.208621
      8          1           0        0.000000    0.261408   -4.417242
      9          1           0       -0.000000   -0.261408   -4.417242
     10          1           0        0.000000   -0.000000   -6.625864
 ---------------------------------------------------------------------

 SCF Done:  E(RHF) =  -4.44804984830     A.U. after   10 cycles
 E2 =    -0.4804681892D+00 EUMP2 =    -0.49285180374760D+01

 The electronic state is 1-AG.
 Alpha  occ. eigenvalues --   -0.71256  -0.71136  -0.70799  -0.25550  -0.24179
 Alpha virt. eigenvalues --   -0.11708  -0.10250   0.57459   0.57629   0.58205

 Mulliken charges:
               1
     1  H    0.003637
     2  H   -0.014141
     3  H    0.007997
     4  H    0.003637
     5  H   -0.001130
     6  H   -0.001130
     7  H    0.007997
     8  H    0.003637
     9  H    0.003637
    10  H   -0.014141
 Sum of Mulliken charges =   0.00000

 Dipole moment (field-independent basis, Debye):
    X=             -0.0000    Y=             -0.0000    Z=             -0.0000  Tot=              0.0000
 Quadrupole moment (field-independent basis, Debye-Ang):
   XX=            -13.5861   YY=            -12.8552   ZZ=            -18.8024
   XY=              0.0000   XZ=              0.0000   YZ=             -0.0000

 Normal termination of Gaussian 09 at Thu Feb  9 16:06:14 2017.
