 Gaussian 09, Revision E.01,
 Gaussian 09:  ES64L-G09RevE.01 30-Nov-2015

 ----------------------------------------------------------------------
 #rhf/gen scf(symm,tight,novaracc,noincfock,fulldiag) stable(crhf) geom
 =nocrowd test
 ----------------------------------------------------------------------

 hf stability analysis of h10 triangular lattice, y= 0.6423243809866715
 5
 ----------------------------------------------------------------------
 Symbolic Z-matrix:
 Charge =  0 Multiplicity = 1

                         Standard orientation:
 ---------------------------------------------------------------------
 Center     Atomic      Atomic             Coordinates (Angstroms)
 Number     Number       Type             X           Y           Z
 ---------------------------------------------------------------------
      1          1           0        0.000000    0.642324    1.797691
      2          1           0        0.000000    0.000000    2.696536
      3          1           0        0.000000    0.000000    0.898845
      4          1           0       -0.000000   -0.642324    1.797691
      5          1           0       -0.000000    0.642324   -0.000000
      6          1           0       -0.000000   -0.642324   -0.000000
      7          1           0        0.000000    0.000000   -0.898845
      8          1           0        0.000000    0.642324   -1.797691
      9          1           0       -0.000000   -0.642324   -1.797691
     10          1           0        0.000000    0.000000   -2.696536
 ---------------------------------------------------------------------

 SCF Done:  E(RHF) =  -4.81580340626     A.U. after    9 cycles
 E2 =    -0.1230313012D+00 EUMP2 =    -0.49388347074788D+01

 The electronic state is 1-AG.
 Alpha  occ. eigenvalues --   -0.82131  -0.73207  -0.55515  -0.29637  -0.28958
 Alpha virt. eigenvalues --    0.00328   0.17295   0.20157   0.48243   0.70170

 Mulliken charges:
               1
     1  H    0.197341
     2  H   -0.173834
     3  H   -0.248556
     4  H    0.197341
     5  H    0.027708
     6  H    0.027708
     7  H   -0.248556
     8  H    0.197341
     9  H    0.197341
    10  H   -0.173834
 Sum of Mulliken charges =   0.00000

 Dipole moment (field-independent basis, Debye):
    X=             -0.0000    Y=             -0.0000    Z=              0.0000  Tot=              0.0000
 Quadrupole moment (field-independent basis, Debye-Ang):
   XX=            -13.0196   YY=            -12.8064   ZZ=            -17.2400
   XY=              0.0000   XZ=              0.0000   YZ=             -0.0000

 Normal termination of Gaussian 09 at Thu Feb  9 15:42:56 2017.
