 Gaussian 09, Revision E.01,
 Gaussian 09:  ES64L-G09RevE.01 30-Nov-2015

 ----------------------------------------------------------------------
 #rhf/gen scf(symm,tight,novaracc,noincfock,fulldiag) stable(crhf) geom
 =nocrowd test
 ----------------------------------------------------------------------

 hf stability analysis of h10 triangular lattice, y= 0.5224100215765680
 2
 ----------------------------------------------------------------------
 Symbolic Z-matrix:
 Charge =  0 Multiplicity = 1

                         Standard orientation:
 ---------------------------------------------------------------------
 Center     Atomic      Atomic             Coordinates (Angstroms)
 Number     Number       Type             X           Y           Z
 ---------------------------------------------------------------------
      1          1           0        0.000000    0.522410    2.210334
      2          1           0        0.000000    0.000000    3.315501
      3          1           0        0.000000    0.000000    1.105167
      4          1           0       -0.000000   -0.522410    2.210334
      5          1           0        0.000000    0.522410   -0.000000
      6          1           0       -0.000000   -0.522410    0.000000
      7          1           0        0.000000   -0.000000   -1.105167
      8          1           0        0.000000    0.522410   -2.210334
      9          1           0       -0.000000   -0.522410   -2.210334
     10          1           0        0.000000   -0.000000   -3.315501
 ---------------------------------------------------------------------

 SCF Done:  E(RHF) =  -4.77437244645     A.U. after    8 cycles
 E2 =    -0.8925924314D-01 EUMP2 =    -0.48636316895828D+01

 The electronic state is 1-AG.
 Alpha  occ. eigenvalues --   -0.79343  -0.72360  -0.61759  -0.34280  -0.16901
 Alpha virt. eigenvalues --    0.07545   0.14709   0.22030   0.24898   0.46814

 Mulliken charges:
               1
     1  H    0.254632
     2  H   -0.425239
     3  H   -0.226427
     4  H    0.254632
     5  H    0.142401
     6  H    0.142401
     7  H   -0.226427
     8  H    0.254632
     9  H    0.254632
    10  H   -0.425239
 Sum of Mulliken charges =  -0.00000

 Dipole moment (field-independent basis, Debye):
    X=             -0.0000    Y=             -0.0000    Z=              0.0000  Tot=              0.0000
 Quadrupole moment (field-independent basis, Debye-Ang):
   XX=            -12.9501   YY=             -9.4333   ZZ=            -42.4478
   XY=              0.0000   XZ=              0.0000   YZ=             -0.0000

 Normal termination of Gaussian 09 at Thu Feb  9 15:51:51 2017.
