 Gaussian 09, Revision E.01,
 Gaussian 09:  ES64L-G09RevE.01 30-Nov-2015

 ----------------------------------------------------------------------
 #rhf/gen scf(symm,tight,novaracc,noincfock,fulldiag) stable(crhf) geom
 =nocrowd test
 ----------------------------------------------------------------------

 hf stability analysis of h10 triangular lattice, y= 0.4214452989599988
 8
 ----------------------------------------------------------------------
 Symbolic Z-matrix:
 Charge =  0 Multiplicity = 1

                         Standard orientation:
 ---------------------------------------------------------------------
 Center     Atomic      Atomic             Coordinates (Angstroms)
 Number     Number       Type             X           Y           Z
 ---------------------------------------------------------------------
      1          1           0        0.000000    0.421445    2.739859
      2          1           0        0.000000    0.000000    4.109788
      3          1           0        0.000000    0.000000    1.369929
      4          1           0       -0.000000   -0.421445    2.739859
      5          1           0       -0.000000    0.421445    0.000000
      6          1           0       -0.000000   -0.421445    0.000000
      7          1           0        0.000000    0.000000   -1.369929
      8          1           0        0.000000    0.421445   -2.739859
      9          1           0       -0.000000   -0.421445   -2.739859
     10          1           0        0.000000    0.000000   -4.109788
 ---------------------------------------------------------------------

 SCF Done:  E(RHF) =  -4.90513137054     A.U. after    8 cycles
 E2 =    -0.1247438624D+00 EUMP2 =    -0.50298752329115D+01

 The electronic state is 1-AG.
 Alpha  occ. eigenvalues --   -0.73894  -0.70573  -0.65323  -0.32905  -0.22727
 Alpha virt. eigenvalues --    0.06147   0.18757   0.23478   0.26579   0.30929

 Mulliken charges:
               1
     1  H    0.147869
     2  H   -0.251335
     3  H   -0.115738
     4  H    0.147869
     5  H    0.071336
     6  H    0.071336
     7  H   -0.115738
     8  H    0.147869
     9  H    0.147869
    10  H   -0.251335
 Sum of Mulliken charges =  -0.00000

 Dipole moment (field-independent basis, Debye):
    X=             -0.0000    Y=             -0.0000    Z=              0.0000  Tot=              0.0000
 Quadrupole moment (field-independent basis, Debye-Ang):
   XX=            -13.4274   YY=            -11.3210   ZZ=            -38.4469
   XY=              0.0000   XZ=              0.0000   YZ=             -0.0000

 Normal termination of Gaussian 09 at Thu Feb  9 15:58:52 2017.
