 Gaussian 09, Revision E.01,
 Gaussian 09:  ES64L-G09RevE.01 30-Nov-2015

 ----------------------------------------------------------------------
 #rhf/gen scf(symm,tight,novaracc,noincfock,fulldiag) stable(crhf) geom
 =nocrowd test
 ----------------------------------------------------------------------

 hf stability analysis of h10 triangular lattice, y= 0.5382805396584897
 7
 ----------------------------------------------------------------------
 Symbolic Z-matrix:
 Charge =  0 Multiplicity = 1

                         Standard orientation:
 ---------------------------------------------------------------------
 Center     Atomic      Atomic             Coordinates (Angstroms)
 Number     Number       Type             X           Y           Z
 ---------------------------------------------------------------------
      1          1           0       -0.000000    0.538281    2.145165
      2          1           0       -0.000000    0.000000    3.217747
      3          1           0       -0.000000    0.000000    1.072582
      4          1           0       -0.000000   -0.538281    2.145165
      5          1           0        0.000000    0.538281    0.000000
      6          1           0       -0.000000   -0.538281   -0.000000
      7          1           0        0.000000   -0.000000   -1.072582
      8          1           0        0.000000    0.538281   -2.145165
      9          1           0       -0.000000   -0.538281   -2.145165
     10          1           0        0.000000   -0.000000   -3.217747
 ---------------------------------------------------------------------

 SCF Done:  E(RHF) =  -4.73152483752     A.U. after    8 cycles
 E2 =    -0.8791167776D-01 EUMP2 =    -0.48194365152817D+01

 The electronic state is 1-AG.
 Alpha  occ. eigenvalues --   -0.80108  -0.72559  -0.61063  -0.34076  -0.15562
 Alpha virt. eigenvalues --    0.05423   0.13262   0.21130   0.28057   0.50887

 Mulliken charges:
               1
     1  H    0.269399
     2  H   -0.449005
     3  H   -0.243105
     4  H    0.269399
     5  H    0.153310
     6  H    0.153310
     7  H   -0.243105
     8  H    0.269399
     9  H    0.269399
    10  H   -0.449005
 Sum of Mulliken charges =   0.00000

 Dipole moment (field-independent basis, Debye):
    X=             -0.0000    Y=              0.0000    Z=              0.0000  Tot=              0.0000
 Quadrupole moment (field-independent basis, Debye-Ang):
   XX=            -12.8639   YY=             -9.0941   ZZ=            -42.5708
   XY=              0.0000   XZ=              0.0000   YZ=             -0.0000

 Normal termination of Gaussian 09 at Thu Feb  9 15:50:41 2017.
