 Gaussian 09, Revision E.01,
 Gaussian 09:  ES64L-G09RevE.01 30-Nov-2015

 ----------------------------------------------------------------------
 #rhf/gen scf(symm,tight,novaracc,noincfock,fulldiag) stable(crhf) geom
 =nocrowd test
 ----------------------------------------------------------------------

 hf stability analysis of h10 triangular lattice, y= 0.3480526930278660
 1
 ----------------------------------------------------------------------
 Symbolic Z-matrix:
 Charge =  0 Multiplicity = 1

                         Standard orientation:
 ---------------------------------------------------------------------
 Center     Atomic      Atomic             Coordinates (Angstroms)
 Number     Number       Type             X           Y           Z
 ---------------------------------------------------------------------
      1          1           0        0.000000    0.348053    3.317603
      2          1           0        0.000000    0.000000    4.976404
      3          1           0        0.000000    0.000000    1.658801
      4          1           0       -0.000000   -0.348053    3.317603
      5          1           0        0.000000    0.348053    0.000000
      6          1           0       -0.000000   -0.348053   -0.000000
      7          1           0        0.000000    0.000000   -1.658801
      8          1           0        0.000000    0.348053   -3.317603
      9          1           0       -0.000000   -0.348053   -3.317603
     10          1           0        0.000000    0.000000   -4.976404
 ---------------------------------------------------------------------

 SCF Done:  E(RHF) =  -4.81910325835     A.U. after    9 cycles
 E2 =    -0.2130005521D+00 EUMP2 =    -0.50321038104802D+01

 The electronic state is 1-AG.
 Alpha  occ. eigenvalues --   -0.70747  -0.69617  -0.67304  -0.29614  -0.24301
 Alpha virt. eigenvalues --   -0.04326   0.01799   0.37897   0.39002   0.41558

 Mulliken charges:
               1
     1  H    0.064817
     2  H   -0.115944
     3  H   -0.038140
     4  H    0.064817
     5  H    0.024451
     6  H    0.024451
     7  H   -0.038140
     8  H    0.064817
     9  H    0.064817
    10  H   -0.115944
 Sum of Mulliken charges =  -0.00000

 Dipole moment (field-independent basis, Debye):
    X=             -0.0000    Y=              0.0000    Z=             -0.0000  Tot=              0.0000
 Quadrupole moment (field-independent basis, Debye-Ang):
   XX=            -13.6003   YY=            -12.2631   ZZ=            -30.4657
   XY=              0.0000   XZ=              0.0000   YZ=              0.0000

 Normal termination of Gaussian 09 at Thu Feb  9 16:02:49 2017.
