 Gaussian 09, Revision E.01,
 Gaussian 09:  ES64L-G09RevE.01 30-Nov-2015

 ----------------------------------------------------------------------
 #rhf/gen scf(symm,tight,novaracc,noincfock,fulldiag) stable(crhf) geom
 =nocrowd test
 ----------------------------------------------------------------------

 hf stability analysis of h10 triangular lattice, y= 0.4805451482874157
 4
 ----------------------------------------------------------------------
 Symbolic Z-matrix:
 Charge =  0 Multiplicity = 1

                         Standard orientation:
 ---------------------------------------------------------------------
 Center     Atomic      Atomic             Coordinates (Angstroms)
 Number     Number       Type             X           Y           Z
 ---------------------------------------------------------------------
      1          1           0        0.000000    0.480545    2.402897
      2          1           0        0.000000   -0.000000    3.604346
      3          1           0        0.000000   -0.000000    1.201449
      4          1           0       -0.000000   -0.480545    2.402897
      5          1           0       -0.000000    0.480545    0.000000
      6          1           0       -0.000000   -0.480545   -0.000000
      7          1           0        0.000000    0.000000   -1.201449
      8          1           0        0.000000    0.480545   -2.402897
      9          1           0       -0.000000   -0.480545   -2.402897
     10          1           0        0.000000    0.000000   -3.604346
 ---------------------------------------------------------------------

 SCF Done:  E(RHF) =  -4.86016234223     A.U. after    9 cycles
 E2 =    -0.9733125746D-01 EUMP2 =    -0.49574935996901D+01

 The electronic state is 1-AG.
 Alpha  occ. eigenvalues --   -0.77148  -0.71684  -0.63413  -0.34262  -0.19880
 Alpha virt. eigenvalues --    0.13628   0.16716   0.19020   0.25006   0.35181

 Mulliken charges:
               1
     1  H    0.212865
     2  H   -0.357583
     3  H   -0.181166
     4  H    0.212865
     5  H    0.113018
     6  H    0.113018
     7  H   -0.181166
     8  H    0.212865
     9  H    0.212865
    10  H   -0.357583
 Sum of Mulliken charges =  -0.00000

 Dipole moment (field-independent basis, Debye):
    X=             -0.0000    Y=             -0.0000    Z=              0.0000  Tot=              0.0000
 Quadrupole moment (field-independent basis, Debye-Ang):
   XX=            -13.1678   YY=            -10.2803   ZZ=            -41.5754
   XY=              0.0000   XZ=              0.0000   YZ=             -0.0000

 Normal termination of Gaussian 09 at Thu Feb  9 15:54:52 2017.
