 Gaussian 09, Revision E.01,
 Gaussian 09:  ES64L-G09RevE.01 30-Nov-2015

 ----------------------------------------------------------------------
 #rhf/gen scf(symm,tight,novaracc,noincfock,fulldiag) stable(crhf) geom
 =nocrowd test
 ----------------------------------------------------------------------

 hf stability analysis of h10 triangular lattice, y= 0.7363205913972231
 7
 ----------------------------------------------------------------------
 Symbolic Z-matrix:
 Charge =  0 Multiplicity = 1

                         Standard orientation:
 ---------------------------------------------------------------------
 Center     Atomic      Atomic             Coordinates (Angstroms)
 Number     Number       Type             X           Y           Z
 ---------------------------------------------------------------------
      1          1           0        0.000000    0.736321    1.568204
      2          1           0        0.000000    0.000000    2.352305
      3          1           0        0.000000    0.000000    0.784102
      4          1           0       -0.000000   -0.736321    1.568204
      5          1           0       -0.000000    0.736321   -0.000000
      6          1           0       -0.000000   -0.736321    0.000000
      7          1           0        0.000000   -0.000000   -0.784102
      8          1           0        0.000000    0.736321   -1.568204
      9          1           0       -0.000000   -0.736321   -1.568204
     10          1           0        0.000000   -0.000000   -2.352305
 ---------------------------------------------------------------------

 SCF Done:  E(RHF) =  -4.82132204030     A.U. after    8 cycles
 E2 =    -0.9838747562D-01 EUMP2 =    -0.49197095159232D+01

 The electronic state is 1-AG.
 Alpha  occ. eigenvalues --   -0.90041  -0.74414  -0.52778  -0.44381  -0.26417
 Alpha virt. eigenvalues --   -0.03725   0.14611   0.31342   0.54837   0.55972

 Mulliken charges:
               1
     1  H   -0.223662
     2  H    0.251663
     3  H    0.171509
     4  H   -0.223662
     5  H    0.024152
     6  H    0.024152
     7  H    0.171509
     8  H   -0.223662
     9  H   -0.223662
    10  H    0.251663
 Sum of Mulliken charges =   0.00000

 Dipole moment (field-independent basis, Debye):
    X=              0.0000    Y=              0.0000    Z=             -0.0000  Tot=              0.0000
 Quadrupole moment (field-independent basis, Debye-Ang):
   XX=            -13.0172   YY=            -18.8451   ZZ=             -9.8919
   XY=             -0.0000   XZ=             -0.0000   YZ=              0.0000

 Normal termination of Gaussian 09 at Thu Feb  9 15:36:21 2017.
