 Gaussian 09, Revision E.01,
 Gaussian 09:  ES64L-G09RevE.01 30-Nov-2015

 ----------------------------------------------------------------------
 #rhf/gen scf(symm,tight,novaracc,noincfock,fulldiag) stable(crhf) geom
 =nocrowd test
 ----------------------------------------------------------------------

 hf stability analysis of h10 triangular lattice, y= 0.6880390281811188
 4
 ----------------------------------------------------------------------
 Symbolic Z-matrix:
 Charge =  0 Multiplicity = 1

                         Standard orientation:
 ---------------------------------------------------------------------
 Center     Atomic      Atomic             Coordinates (Angstroms)
 Number     Number       Type             X           Y           Z
 ---------------------------------------------------------------------
      1          1           0        0.000000    0.688039    1.678249
      2          1           0        0.000000    0.000000    2.517373
      3          1           0        0.000000    0.000000    0.839124
      4          1           0       -0.000000   -0.688039    1.678249
      5          1           0       -0.000000    0.688039    0.000000
      6          1           0       -0.000000   -0.688039   -0.000000
      7          1           0        0.000000   -0.000000   -0.839124
      8          1           0        0.000000    0.688039   -1.678249
      9          1           0       -0.000000   -0.688039   -1.678249
     10          1           0        0.000000   -0.000000   -2.517373
 ---------------------------------------------------------------------

 SCF Done:  E(RHF) =  -4.81813274348     A.U. after    9 cycles
 E2 =    -0.1103582987D+00 EUMP2 =    -0.49284910421414D+01

 The electronic state is 1-AG.
 Alpha  occ. eigenvalues --   -0.83912  -0.73232  -0.53927  -0.33985  -0.27278
 Alpha virt. eigenvalues --   -0.02069   0.20051   0.24193   0.53777   0.67595

 Mulliken charges:
               1
     1  H    0.237660
     2  H   -0.239506
     3  H   -0.274526
     4  H    0.237660
     5  H    0.038713
     6  H    0.038713
     7  H   -0.274526
     8  H    0.237660
     9  H    0.237660
    10  H   -0.239506
 Sum of Mulliken charges =   0.00000

 Dipole moment (field-independent basis, Debye):
    X=             -0.0000    Y=             -0.0000    Z=              0.0000  Tot=              0.0000
 Quadrupole moment (field-independent basis, Debye-Ang):
   XX=            -12.9150   YY=            -11.8476   ZZ=            -19.5336
   XY=              0.0000   XZ=              0.0000   YZ=             -0.0000

 Normal termination of Gaussian 09 at Thu Feb  9 15:39:37 2017.
