 Gaussian 09, Revision E.01,
 Gaussian 09:  ES64L-G09RevE.01 30-Nov-2015

 ----------------------------------------------------------------------
 #rhf/gen scf(symm,tight,novaracc,noincfock,fulldiag) stable(crhf) geom
 =nocrowd test
 ----------------------------------------------------------------------

 hf stability analysis of h10 triangular lattice, y= 0.7382543110874336
 7
 ----------------------------------------------------------------------
 Symbolic Z-matrix:
 Charge =  0 Multiplicity = 1

                         Standard orientation:
 ---------------------------------------------------------------------
 Center     Atomic      Atomic             Coordinates (Angstroms)
 Number     Number       Type             X           Y           Z
 ---------------------------------------------------------------------
      1          1           0        0.000000    0.738254    1.564096
      2          1           0        0.000000    0.000000    2.346144
      3          1           0        0.000000    0.000000    0.782048
      4          1           0       -0.000000   -0.738254    1.564096
      5          1           0       -0.000000    0.738254    0.000000
      6          1           0       -0.000000   -0.738254    0.000000
      7          1           0        0.000000    0.000000   -0.782048
      8          1           0        0.000000    0.738254   -1.564096
      9          1           0       -0.000000   -0.738254   -1.564096
     10          1           0        0.000000    0.000000   -2.346144
 ---------------------------------------------------------------------

 SCF Done:  E(RHF) =  -4.82446593734     A.U. after    8 cycles
 E2 =    -0.9830142943D-01 EUMP2 =    -0.49227673667675D+01

 The electronic state is 1-AG.
 Alpha  occ. eigenvalues --   -0.90127  -0.74441  -0.52707  -0.44547  -0.26522
 Alpha virt. eigenvalues --   -0.03584   0.14651   0.31618   0.54887   0.55646

 Mulliken charges:
               1
     1  H   -0.222426
     2  H    0.249704
     3  H    0.169745
     4  H   -0.222426
     5  H    0.025403
     6  H    0.025403
     7  H    0.169745
     8  H   -0.222426
     9  H   -0.222426
    10  H    0.249704
 Sum of Mulliken charges =   0.00000

 Dipole moment (field-independent basis, Debye):
    X=              0.0000    Y=              0.0000    Z=              0.0000  Tot=              0.0000
 Quadrupole moment (field-independent basis, Debye-Ang):
   XX=            -13.0160   YY=            -18.8226   ZZ=             -9.9932
   XY=             -0.0000   XZ=             -0.0000   YZ=              0.0000

 Normal termination of Gaussian 09 at Thu Feb  9 15:36:13 2017.
