 Gaussian 09, Revision E.01,
 Gaussian 09:  ES64L-G09RevE.01 30-Nov-2015

 ----------------------------------------------------------------------
 #rhf/gen scf(symm,tight,novaracc,noincfock,fulldiag) stable(crhf) geom
 =nocrowd test
 ----------------------------------------------------------------------

 hf stability analysis of h10 triangular lattice, y= 0.4135443701547177
 3
 ----------------------------------------------------------------------
 Symbolic Z-matrix:
 Charge =  0 Multiplicity = 1

                         Standard orientation:
 ---------------------------------------------------------------------
 Center     Atomic      Atomic             Coordinates (Angstroms)
 Number     Number       Type             X           Y           Z
 ---------------------------------------------------------------------
      1          1           0        0.000000    0.413544    2.792205
      2          1           0        0.000000   -0.000000    4.188307
      3          1           0        0.000000   -0.000000    1.396102
      4          1           0       -0.000000   -0.413544    2.792205
      5          1           0        0.000000    0.413544    0.000000
      6          1           0       -0.000000   -0.413544   -0.000000
      7          1           0        0.000000    0.000000   -1.396102
      8          1           0        0.000000    0.413544   -2.792205
      9          1           0       -0.000000   -0.413544   -2.792205
     10          1           0        0.000000    0.000000   -4.188307
 ---------------------------------------------------------------------

 SCF Done:  E(RHF) =  -4.90375970703     A.U. after    8 cycles
 E2 =    -0.1305378551D+00 EUMP2 =    -0.50342975621751D+01

 The electronic state is 1-AG.
 Alpha  occ. eigenvalues --   -0.73478  -0.70432  -0.65547  -0.32618  -0.22993
 Alpha virt. eigenvalues --    0.04860   0.16697   0.24912   0.27744   0.31894

 Mulliken charges:
               1
     1  H    0.138798
     2  H   -0.236482
     3  H   -0.106973
     4  H    0.138798
     5  H    0.065859
     6  H    0.065859
     7  H   -0.106973
     8  H    0.138798
     9  H    0.138798
    10  H   -0.236482
 Sum of Mulliken charges =   0.00000

 Dipole moment (field-independent basis, Debye):
    X=             -0.0000    Y=              0.0000    Z=              0.0000  Tot=              0.0000
 Quadrupole moment (field-independent basis, Debye-Ang):
   XX=            -13.4554   YY=            -11.4430   ZZ=            -37.8145
   XY=              0.0000   XZ=              0.0000   YZ=              0.0000

 Normal termination of Gaussian 09 at Thu Feb  9 15:59:23 2017.
