 Gaussian 09, Revision E.01,
 Gaussian 09:  ES64L-G09RevE.01 30-Nov-2015

 ----------------------------------------------------------------------
 #rhf/gen scf(symm,tight,novaracc,noincfock,fulldiag) stable(crhf) geom
 =nocrowd test
 ----------------------------------------------------------------------

 hf stability analysis of h10 triangular lattice, y= 0.3665427944170073
 8
 ----------------------------------------------------------------------
 Symbolic Z-matrix:
 Charge =  0 Multiplicity = 1

                         Standard orientation:
 ---------------------------------------------------------------------
 Center     Atomic      Atomic             Coordinates (Angstroms)
 Number     Number       Type             X           Y           Z
 ---------------------------------------------------------------------
      1          1           0        0.000000    0.366543    3.150248
      2          1           0        0.000000    0.000000    4.725371
      3          1           0        0.000000    0.000000    1.575124
      4          1           0       -0.000000   -0.366543    3.150248
      5          1           0        0.000000    0.366543   -0.000000
      6          1           0       -0.000000   -0.366543    0.000000
      7          1           0        0.000000   -0.000000   -1.575124
      8          1           0        0.000000    0.366543   -3.150248
      9          1           0       -0.000000   -0.366543   -3.150248
     10          1           0        0.000000   -0.000000   -4.725371
 ---------------------------------------------------------------------

 SCF Done:  E(RHF) =  -4.85683547890     A.U. after    9 cycles
 E2 =    -0.1819236846D+00 EUMP2 =    -0.50387591635022D+01

 The electronic state is 1-AG.
 Alpha  occ. eigenvalues --   -0.71340  -0.69755  -0.66802  -0.30539  -0.24081
 Alpha virt. eigenvalues --   -0.02021   0.05560   0.34033   0.35528   0.38532

 Mulliken charges:
               1
     1  H    0.084903
     2  H   -0.148536
     3  H   -0.056300
     4  H    0.084903
     5  H    0.035029
     6  H    0.035029
     7  H   -0.056300
     8  H    0.084903
     9  H    0.084903
    10  H   -0.148536
 Sum of Mulliken charges =  -0.00000

 Dipole moment (field-independent basis, Debye):
    X=             -0.0000    Y=             -0.0000    Z=              0.0000  Tot=              0.0000
 Quadrupole moment (field-independent basis, Debye-Ang):
   XX=            -13.5765   YY=            -12.0680   ZZ=            -32.8949
   XY=              0.0000   XZ=              0.0000   YZ=             -0.0000

 Normal termination of Gaussian 09 at Thu Feb  9 16:01:58 2017.
