 Gaussian 09, Revision E.01,
 Gaussian 09:  ES64L-G09RevE.01 30-Nov-2015

 ----------------------------------------------------------------------
 #rhf/gen scf(symm,tight,novaracc,noincfock,fulldiag) stable(crhf) geom
 =nocrowd test
 ----------------------------------------------------------------------

 hf stability analysis of h10 triangular lattice, y= 0.6831510921169421
 4
 ----------------------------------------------------------------------
 Symbolic Z-matrix:
 Charge =  0 Multiplicity = 1

                         Standard orientation:
 ---------------------------------------------------------------------
 Center     Atomic      Atomic             Coordinates (Angstroms)
 Number     Number       Type             X           Y           Z
 ---------------------------------------------------------------------
      1          1           0        0.000000    0.683151    1.690256
      2          1           0        0.000000    0.000000    2.535385
      3          1           0        0.000000    0.000000    0.845128
      4          1           0       -0.000000   -0.683151    1.690256
      5          1           0       -0.000000    0.683151   -0.000000
      6          1           0       -0.000000   -0.683151    0.000000
      7          1           0        0.000000   -0.000000   -0.845128
      8          1           0        0.000000    0.683151   -1.690256
      9          1           0       -0.000000   -0.683151   -1.690256
     10          1           0        0.000000   -0.000000   -2.535385
 ---------------------------------------------------------------------

 SCF Done:  E(RHF) =  -4.81914241400     A.U. after    8 cycles
 E2 =    -0.1115001115D+00 EUMP2 =    -0.49306425254519D+01

 The electronic state is 1-AG.
 Alpha  occ. eigenvalues --   -0.83742  -0.73251  -0.54117  -0.33475  -0.27570
 Alpha virt. eigenvalues --   -0.01838   0.20033   0.23450   0.53294   0.68077

 Mulliken charges:
               1
     1  H    0.233697
     2  H   -0.232817
     3  H   -0.272578
     4  H    0.233697
     5  H    0.038001
     6  H    0.038001
     7  H   -0.272578
     8  H    0.233697
     9  H    0.233697
    10  H   -0.232817
 Sum of Mulliken charges =   0.00000

 Dipole moment (field-independent basis, Debye):
    X=             -0.0000    Y=              0.0000    Z=              0.0000  Tot=              0.0000
 Quadrupole moment (field-independent basis, Debye-Ang):
   XX=            -12.9261   YY=            -11.9523   ZZ=            -19.3204
   XY=              0.0000   XZ=              0.0000   YZ=             -0.0000

 Normal termination of Gaussian 09 at Thu Feb  9 15:39:58 2017.
