 Gaussian 09, Revision E.01,
 Gaussian 09:  ES64L-G09RevE.01 30-Nov-2015

 ----------------------------------------------------------------------
 #rhf/gen scf(symm,tight,novaracc,noincfock,fulldiag) stable(crhf) geom
 =nocrowd test
 ----------------------------------------------------------------------

 hf stability analysis of h10 triangular lattice, y= 0.4639917565757778
 5
 ----------------------------------------------------------------------
 Symbolic Z-matrix:
 Charge =  0 Multiplicity = 1

                         Standard orientation:
 ---------------------------------------------------------------------
 Center     Atomic      Atomic             Coordinates (Angstroms)
 Number     Number       Type             X           Y           Z
 ---------------------------------------------------------------------
      1          1           0        0.000000    0.463992    2.488623
      2          1           0        0.000000    0.000000    3.732934
      3          1           0        0.000000    0.000000    1.244311
      4          1           0       -0.000000   -0.463992    2.488623
      5          1           0        0.000000    0.463992    0.000000
      6          1           0       -0.000000   -0.463992   -0.000000
      7          1           0        0.000000    0.000000   -1.244311
      8          1           0        0.000000    0.463992   -2.488623
      9          1           0       -0.000000   -0.463992   -2.488623
     10          1           0        0.000000    0.000000   -3.732934
 ---------------------------------------------------------------------

 SCF Done:  E(RHF) =  -4.88222652519     A.U. after    9 cycles
 E2 =    -0.1027172160D+00 EUMP2 =    -0.49849437411858D+01

 The electronic state is 1-AG.
 Alpha  occ. eigenvalues --   -0.76234  -0.71377  -0.63995  -0.34034  -0.20834
 Alpha virt. eigenvalues --    0.13609   0.16235   0.20946   0.26447   0.30471

 Mulliken charges:
               1
     1  H    0.195296
     2  H   -0.328943
     3  H   -0.162948
     4  H    0.195296
     5  H    0.101300
     6  H    0.101300
     7  H   -0.162948
     8  H    0.195296
     9  H    0.195296
    10  H   -0.328943
 Sum of Mulliken charges =  -0.00000

 Dipole moment (field-independent basis, Debye):
    X=             -0.0000    Y=              0.0000    Z=             -0.0000  Tot=              0.0000
 Quadrupole moment (field-independent basis, Debye-Ang):
   XX=            -13.2478   YY=            -10.5924   ZZ=            -40.9572
   XY=              0.0000   XZ=              0.0000   YZ=             -0.0000

 Normal termination of Gaussian 09 at Thu Feb  9 15:56:01 2017.
