 Gaussian 09, Revision E.01,
 Gaussian 09:  ES64L-G09RevE.01 30-Nov-2015

 ----------------------------------------------------------------------
 #rhf/gen scf(symm,tight,novaracc,noincfock,fulldiag) stable(crhf) geom
 =nocrowd test
 ----------------------------------------------------------------------

 hf stability analysis of h10 triangular lattice, y= 0.5016356904264921
 4
 ----------------------------------------------------------------------
 Symbolic Z-matrix:
 Charge =  0 Multiplicity = 1

                         Standard orientation:
 ---------------------------------------------------------------------
 Center     Atomic      Atomic             Coordinates (Angstroms)
 Number     Number       Type             X           Y           Z
 ---------------------------------------------------------------------
      1          1           0       -0.000000    0.501636    2.301871
      2          1           0       -0.000000    0.000000    3.452806
      3          1           0       -0.000000    0.000000    1.150935
      4          1           0       -0.000000   -0.501636    2.301871
      5          1           0       -0.000000    0.501636    0.000000
      6          1           0       -0.000000   -0.501636   -0.000000
      7          1           0        0.000000   -0.000000   -1.150935
      8          1           0        0.000000    0.501636   -2.301871
      9          1           0       -0.000000   -0.501636   -2.301871
     10          1           0        0.000000   -0.000000   -3.452806
 ---------------------------------------------------------------------

 SCF Done:  E(RHF) =  -4.82210209398     A.U. after    9 cycles
 E2 =    -0.9237864895D-01 EUMP2 =    -0.49144807429271D+01

 The electronic state is 1-AG.
 Alpha  occ. eigenvalues --   -0.78281  -0.72048  -0.62613  -0.34372  -0.18481
 Alpha virt. eigenvalues --    0.10474   0.16753   0.20794   0.23393   0.41144

 Mulliken charges:
               1
     1  H    0.234403
     2  H   -0.392552
     3  H   -0.204148
     4  H    0.234403
     5  H    0.127894
     6  H    0.127894
     7  H   -0.204148
     8  H    0.234403
     9  H    0.234403
    10  H   -0.392552
 Sum of Mulliken charges =  -0.00000

 Dipole moment (field-independent basis, Debye):
    X=             -0.0000    Y=              0.0000    Z=              0.0000  Tot=              0.0000
 Quadrupole moment (field-independent basis, Debye-Ang):
   XX=            -13.0603   YY=             -9.8631   ZZ=            -42.1256
   XY=              0.0000   XZ=              0.0000   YZ=             -0.0000

 Normal termination of Gaussian 09 at Thu Feb  9 15:53:22 2017.
