 Gaussian 09, Revision E.01,
 Gaussian 09:  ES64L-G09RevE.01 30-Nov-2015

 ----------------------------------------------------------------------
 #rhf/gen scf(symm,tight,novaracc,noincfock,fulldiag) stable(crhf) geom
 =nocrowd test
 ----------------------------------------------------------------------

 hf stability analysis of h10 triangular lattice, y= 0.6322786522497501
 1
 ----------------------------------------------------------------------
 Symbolic Z-matrix:
 Charge =  0 Multiplicity = 1

                         Standard orientation:
 ---------------------------------------------------------------------
 Center     Atomic      Atomic             Coordinates (Angstroms)
 Number     Number       Type             X           Y           Z
 ---------------------------------------------------------------------
      1          1           0        0.000000    0.632279    1.826253
      2          1           0        0.000000    0.000000    2.739379
      3          1           0        0.000000    0.000000    0.913126
      4          1           0       -0.000000   -0.632279    1.826253
      5          1           0       -0.000000    0.632279   -0.000000
      6          1           0       -0.000000   -0.632279    0.000000
      7          1           0        0.000000    0.000000   -0.913126
      8          1           0        0.000000    0.632279   -1.826253
      9          1           0       -0.000000   -0.632279   -1.826253
     10          1           0        0.000000    0.000000   -2.739379
 ---------------------------------------------------------------------

 SCF Done:  E(RHF) =  -4.81158131457     A.U. after    9 cycles
 E2 =    -0.1264842434D+00 EUMP2 =    -0.49380655580068D+01

 The electronic state is 1-AG.
 Alpha  occ. eigenvalues --   -0.81683  -0.73137  -0.55804  -0.30038  -0.27770
 Alpha virt. eigenvalues --    0.00930   0.15809   0.20268   0.46750   0.70082

 Mulliken charges:
               1
     1  H    0.187537
     2  H   -0.158513
     3  H   -0.240547
     4  H    0.187537
     5  H    0.023987
     6  H    0.023987
     7  H   -0.240547
     8  H    0.187537
     9  H    0.187537
    10  H   -0.158513
 Sum of Mulliken charges =  -0.00000

 Dipole moment (field-independent basis, Debye):
    X=             -0.0000    Y=             -0.0000    Z=              0.0000  Tot=              0.0000
 Quadrupole moment (field-independent basis, Debye-Ang):
   XX=            -13.0426   YY=            -13.0090   ZZ=            -16.6357
   XY=              0.0000   XZ=              0.0000   YZ=             -0.0000

 Normal termination of Gaussian 09 at Thu Feb  9 15:43:41 2017.
