 Gaussian 09, Revision E.01,
 Gaussian 09:  ES64L-G09RevE.01 30-Nov-2015

 ----------------------------------------------------------------------
 #rhf/gen scf(symm,tight,novaracc,noincfock,fulldiag) stable(crhf) geom
 =nocrowd test
 ----------------------------------------------------------------------

 hf stability analysis of h10 triangular lattice, y= 0.3751570719966641
 5
 ----------------------------------------------------------------------
 Symbolic Z-matrix:
 Charge =  0 Multiplicity = 1

                         Standard orientation:
 ---------------------------------------------------------------------
 Center     Atomic      Atomic             Coordinates (Angstroms)
 Number     Number       Type             X           Y           Z
 ---------------------------------------------------------------------
      1          1           0        0.000000    0.375157    3.077912
      2          1           0        0.000000   -0.000000    4.616868
      3          1           0        0.000000   -0.000000    1.538956
      4          1           0       -0.000000   -0.375157    3.077912
      5          1           0       -0.000000    0.375157    0.000000
      6          1           0       -0.000000   -0.375157   -0.000000
      7          1           0        0.000000    0.000000   -1.538956
      8          1           0        0.000000    0.375157   -3.077912
      9          1           0       -0.000000   -0.375157   -3.077912
     10          1           0        0.000000    0.000000   -4.616868
 ---------------------------------------------------------------------

 SCF Done:  E(RHF) =  -4.87056535924     A.U. after    9 cycles
 E2 =    -0.1698657173D+00 EUMP2 =    -0.50404310765689D+01

 The electronic state is 1-AG.
 Alpha  occ. eigenvalues --   -0.71674  -0.69849  -0.66575  -0.30957  -0.23942
 Alpha virt. eigenvalues --   -0.00866   0.07441   0.32286   0.33989   0.37200

 Mulliken charges:
               1
     1  H    0.094607
     2  H   -0.164316
     3  H   -0.065240
     4  H    0.094607
     5  H    0.040343
     6  H    0.040343
     7  H   -0.065240
     8  H    0.094607
     9  H    0.094607
    10  H   -0.164316
 Sum of Mulliken charges =   0.00000

 Dipole moment (field-independent basis, Debye):
    X=             -0.0000    Y=             -0.0000    Z=             -0.0000  Tot=              0.0000
 Quadrupole moment (field-independent basis, Debye-Ang):
   XX=            -13.5607   YY=            -11.9671   ZZ=            -33.9407
   XY=              0.0000   XZ=              0.0000   YZ=             -0.0000

 Normal termination of Gaussian 09 at Thu Feb  9 16:01:34 2017.
