 Gaussian 09, Revision E.01,
 Gaussian 09:  ES64L-G09RevE.01 30-Nov-2015

 ----------------------------------------------------------------------
 #rhf/gen scf(symm,tight,novaracc,noincfock,fulldiag) stable(crhf) geom
 =nocrowd test
 ----------------------------------------------------------------------

 hf stability analysis of h10 triangular lattice, y= 0.3585026848987783
 5
 ----------------------------------------------------------------------
 Symbolic Z-matrix:
 Charge =  0 Multiplicity = 1

                         Standard orientation:
 ---------------------------------------------------------------------
 Center     Atomic      Atomic             Coordinates (Angstroms)
 Number     Number       Type             X           Y           Z
 ---------------------------------------------------------------------
      1          1           0        0.000000    0.358503    3.220898
      2          1           0        0.000000   -0.000000    4.831347
      3          1           0        0.000000   -0.000000    1.610449
      4          1           0       -0.000000   -0.358503    3.220898
      5          1           0        0.000000    0.358503    0.000000
      6          1           0       -0.000000   -0.358503   -0.000000
      7          1           0        0.000000    0.000000   -1.610449
      8          1           0        0.000000    0.358503   -3.220898
      9          1           0       -0.000000   -0.358503   -3.220898
     10          1           0        0.000000    0.000000   -4.831347
 ---------------------------------------------------------------------

 SCF Done:  E(RHF) =  -4.84184130820     A.U. after    9 cycles
 E2 =    -0.1945111768D+00 EUMP2 =    -0.50363524850239D+01

 The electronic state is 1-AG.
 Alpha  occ. eigenvalues --   -0.71060  -0.69683  -0.67017  -0.30140  -0.24190
 Alpha virt. eigenvalues --   -0.03053   0.03877   0.35695   0.37011   0.39820

 Mulliken charges:
               1
     1  H    0.076020
     2  H   -0.134111
     3  H   -0.048203
     4  H    0.076020
     5  H    0.030275
     6  H    0.030275
     7  H   -0.048203
     8  H    0.076020
     9  H    0.076020
    10  H   -0.134111
 Sum of Mulliken charges =  -0.00000

 Dipole moment (field-independent basis, Debye):
    X=             -0.0000    Y=             -0.0000    Z=             -0.0000  Tot=              0.0000
 Quadrupole moment (field-independent basis, Debye-Ang):
   XX=            -13.5886   YY=            -12.1565   ZZ=            -31.8670
   XY=              0.0000   XZ=              0.0000   YZ=              0.0000

 Normal termination of Gaussian 09 at Thu Feb  9 16:02:20 2017.
