 Gaussian 09, Revision E.01,
 Gaussian 09:  ES64L-G09RevE.01 30-Nov-2015

 ----------------------------------------------------------------------
 #rhf/gen scf(symm,tight,novaracc,noincfock,fulldiag) stable(crhf) geom
 =nocrowd test
 ----------------------------------------------------------------------

 hf stability analysis of h10 triangular lattice, y= 0.4292504862410539
 4
 ----------------------------------------------------------------------
 Symbolic Z-matrix:
 Charge =  0 Multiplicity = 1

                         Standard orientation:
 ---------------------------------------------------------------------
 Center     Atomic      Atomic             Coordinates (Angstroms)
 Number     Number       Type             X           Y           Z
 ---------------------------------------------------------------------
      1          1           0       -0.000000    0.429250    2.690039
      2          1           0       -0.000000    0.000000    4.035058
      3          1           0       -0.000000    0.000000    1.345019
      4          1           0       -0.000000   -0.429250    2.690039
      5          1           0       -0.000000    0.429250   -0.000000
      6          1           0       -0.000000   -0.429250    0.000000
      7          1           0        0.000000   -0.000000   -1.345019
      8          1           0        0.000000    0.429250   -2.690039
      9          1           0       -0.000000   -0.429250   -2.690039
     10          1           0        0.000000   -0.000000   -4.035058
 ---------------------------------------------------------------------

 SCF Done:  E(RHF) =  -4.90471686385     A.U. after    8 cycles
 E2 =    -0.1196226138D+00 EUMP2 =    -0.50243394776925D+01

 The electronic state is 1-AG.
 Alpha  occ. eigenvalues --   -0.74313  -0.70717  -0.65095  -0.33167  -0.22438
 Alpha virt. eigenvalues --    0.07451   0.20835   0.22090   0.25467   0.30018

 Mulliken charges:
               1
     1  H    0.156769
     2  H   -0.265913
     3  H   -0.124411
     4  H    0.156769
     5  H    0.076787
     6  H    0.076787
     7  H   -0.124411
     8  H    0.156769
     9  H    0.156769
    10  H   -0.265913
 Sum of Mulliken charges =  -0.00000

 Dipole moment (field-independent basis, Debye):
    X=             -0.0000    Y=             -0.0000    Z=              0.0000  Tot=              0.0000
 Quadrupole moment (field-independent basis, Debye-Ang):
   XX=            -13.3979   YY=            -11.1961   ZZ=            -39.0177
   XY=              0.0000   XZ=              0.0000   YZ=             -0.0000

 Normal termination of Gaussian 09 at Thu Feb  9 15:58:22 2017.
