 Gaussian 09, Revision E.01,
 Gaussian 09:  ES64L-G09RevE.01 30-Nov-2015

 ----------------------------------------------------------------------
 #rhf/gen scf(symm,tight,novaracc,noincfock,fulldiag) stable(crhf) geom
 =nocrowd test
 ----------------------------------------------------------------------

 hf stability analysis of h10 triangular lattice, y= 0.6548115501775451
 1
 ----------------------------------------------------------------------
 Symbolic Z-matrix:
 Charge =  0 Multiplicity = 1

                         Standard orientation:
 ---------------------------------------------------------------------
 Center     Atomic      Atomic             Coordinates (Angstroms)
 Number     Number       Type             X           Y           Z
 ---------------------------------------------------------------------
      1          1           0        0.000000    0.654812    1.763409
      2          1           0        0.000000    0.000000    2.645113
      3          1           0        0.000000    0.000000    0.881704
      4          1           0       -0.000000   -0.654812    1.763409
      5          1           0       -0.000000    0.654812   -0.000000
      6          1           0       -0.000000   -0.654812    0.000000
      7          1           0        0.000000   -0.000000   -0.881704
      8          1           0        0.000000    0.654812   -1.763409
      9          1           0       -0.000000   -0.654812   -1.763409
     10          1           0        0.000000   -0.000000   -2.645113
 ---------------------------------------------------------------------

 SCF Done:  E(RHF) =  -4.81912565499     A.U. after    9 cycles
 E2 =    -0.1190992737D+00 EUMP2 =    -0.49382249286937D+01

 The electronic state is 1-AG.
 Alpha  occ. eigenvalues --   -0.82660  -0.73261  -0.55125  -0.30391  -0.29077
 Alpha virt. eigenvalues --   -0.00380   0.19161   0.20065   0.49970   0.69930

 Mulliken charges:
               1
     1  H    0.209067
     2  H   -0.192450
     3  H   -0.257367
     4  H    0.209067
     5  H    0.031683
     6  H    0.031683
     7  H   -0.257367
     8  H    0.209067
     9  H    0.209067
    10  H   -0.192450
 Sum of Mulliken charges =   0.00000

 Dipole moment (field-independent basis, Debye):
    X=             -0.0000    Y=              0.0000    Z=             -0.0000  Tot=              0.0000
 Quadrupole moment (field-independent basis, Debye-Ang):
   XX=            -12.9909   YY=            -12.5498   ZZ=            -17.9373
   XY=              0.0000   XZ=              0.0000   YZ=              0.0000

 Normal termination of Gaussian 09 at Thu Feb  9 15:42:01 2017.
