 Gaussian 09, Revision E.01,
 Gaussian 09:  ES64L-G09RevE.01 30-Nov-2015

 ----------------------------------------------------------------------
 #rhf/gen scf(symm,tight,novaracc,noincfock,fulldiag) stable(crhf) geom
 =nocrowd test
 ----------------------------------------------------------------------

 hf stability analysis of h10 triangular lattice, y= 0.6947947711693931
 4
 ----------------------------------------------------------------------
 Symbolic Z-matrix:
 Charge =  0 Multiplicity = 1

                         Standard orientation:
 ---------------------------------------------------------------------
 Center     Atomic      Atomic             Coordinates (Angstroms)
 Number     Number       Type             X           Y           Z
 ---------------------------------------------------------------------
      1          1           0        0.000000    0.694795    1.661930
      2          1           0        0.000000    0.000000    2.492896
      3          1           0        0.000000    0.000000    0.830965
      4          1           0       -0.000000   -0.694795    1.661930
      5          1           0       -0.000000    0.694795    0.000000
      6          1           0       -0.000000   -0.694795    0.000000
      7          1           0        0.000000    0.000000   -0.830965
      8          1           0        0.000000    0.694795   -1.661930
      9          1           0       -0.000000   -0.694795   -1.661930
     10          1           0        0.000000    0.000000   -2.492896
 ---------------------------------------------------------------------

 SCF Done:  E(RHF) =  -4.81626289601     A.U. after    9 cycles
 E2 =    -0.1088556522D+00 EUMP2 =    -0.49251185482013D+01

 The electronic state is 1-AG.
 Alpha  occ. eigenvalues --   -0.84139  -0.73196  -0.53657  -0.34681  -0.26859
 Alpha virt. eigenvalues --   -0.02381   0.20086   0.25220   0.54399   0.66860

 Mulliken charges:
               1
     1  H    0.242997
     2  H   -0.248616
     3  H   -0.276893
     4  H    0.242997
     5  H    0.039515
     6  H    0.039515
     7  H   -0.276893
     8  H    0.242997
     9  H    0.242997
    10  H   -0.248616
 Sum of Mulliken charges =  -0.00000

 Dipole moment (field-independent basis, Debye):
    X=             -0.0000    Y=              0.0000    Z=              0.0000  Tot=              0.0000
 Quadrupole moment (field-independent basis, Debye-Ang):
   XX=            -12.8997   YY=            -11.7023   ZZ=            -19.8171
   XY=              0.0000   XZ=              0.0000   YZ=              0.0000

 Normal termination of Gaussian 09 at Thu Feb  9 15:39:10 2017.
