 Gaussian 09, Revision E.01,
 Gaussian 09:  ES64L-G09RevE.01 30-Nov-2015

 ----------------------------------------------------------------------
 #rhf/gen scf(symm,tight,novaracc,noincfock,fulldiag) stable(crhf) geom
 =nocrowd test
 ----------------------------------------------------------------------

 hf stability analysis of h10 triangular lattice, y= 0.4992432500151742
 8
 ----------------------------------------------------------------------
 Symbolic Z-matrix:
 Charge =  0 Multiplicity = 1

                         Standard orientation:
 ---------------------------------------------------------------------
 Center     Atomic      Atomic             Coordinates (Angstroms)
 Number     Number       Type             X           Y           Z
 ---------------------------------------------------------------------
      1          1           0        0.000000    0.499243    2.312902
      2          1           0       -0.000000   -0.000000    3.469352
      3          1           0       -0.000000   -0.000000    1.156451
      4          1           0       -0.000000   -0.499243    2.312902
      5          1           0        0.000000    0.499243    0.000000
      6          1           0       -0.000000   -0.499243   -0.000000
      7          1           0        0.000000    0.000000   -1.156451
      8          1           0        0.000000    0.499243   -2.312902
      9          1           0       -0.000000   -0.499243   -2.312902
     10          1           0        0.000000    0.000000   -3.469352
 ---------------------------------------------------------------------

 SCF Done:  E(RHF) =  -4.82696011896     A.U. after    9 cycles
 E2 =    -0.9284440918D-01 EUMP2 =    -0.49198045281379D+01

 The electronic state is 1-AG.
 Alpha  occ. eigenvalues --   -0.78155  -0.72009  -0.62707  -0.34370  -0.18650
 Alpha virt. eigenvalues --    0.10823   0.17000   0.20326   0.23564   0.40474

 Mulliken charges:
               1
     1  H    0.232009
     2  H   -0.388674
     3  H   -0.201557
     4  H    0.232009
     5  H    0.126212
     6  H    0.126212
     7  H   -0.201557
     8  H    0.232009
     9  H    0.232009
    10  H   -0.388674
 Sum of Mulliken charges =   0.00000

 Dipole moment (field-independent basis, Debye):
    X=             -0.0000    Y=              0.0000    Z=             -0.0000  Tot=              0.0000
 Quadrupole moment (field-independent basis, Debye-Ang):
   XX=            -13.0728   YY=             -9.9114   ZZ=            -42.0753
   XY=              0.0000   XZ=              0.0000   YZ=              0.0000

 Normal termination of Gaussian 09 at Thu Feb  9 15:53:32 2017.
