 Gaussian 09, Revision E.01,
 Gaussian 09:  ES64L-G09RevE.01 30-Nov-2015

 ----------------------------------------------------------------------
 #rhf/gen scf(symm,tight,novaracc,noincfock,fulldiag) stable(crhf) geom
 =nocrowd test
 ----------------------------------------------------------------------

 hf stability analysis of h10 triangular lattice, y= 0.5200486872971661
 3
 ----------------------------------------------------------------------
 Symbolic Z-matrix:
 Charge =  0 Multiplicity = 1

                         Standard orientation:
 ---------------------------------------------------------------------
 Center     Atomic      Atomic             Coordinates (Angstroms)
 Number     Number       Type             X           Y           Z
 ---------------------------------------------------------------------
      1          1           0        0.000000    0.520049    2.220370
      2          1           0        0.000000    0.000000    3.330555
      3          1           0        0.000000    0.000000    1.110185
      4          1           0       -0.000000   -0.520049    2.220370
      5          1           0       -0.000000    0.520049   -0.000000
      6          1           0       -0.000000   -0.520049    0.000000
      7          1           0        0.000000   -0.000000   -1.110185
      8          1           0        0.000000    0.520049   -2.220370
      9          1           0       -0.000000   -0.520049   -2.220370
     10          1           0        0.000000   -0.000000   -3.330555
 ---------------------------------------------------------------------

 SCF Done:  E(RHF) =  -4.78028620060     A.U. after    9 cycles
 E2 =    -0.8953402410D-01 EUMP2 =    -0.48698202247050D+01

 The electronic state is 1-AG.
 Alpha  occ. eigenvalues --   -0.79226  -0.72328  -0.61859  -0.34300  -0.17091
 Alpha virt. eigenvalues --    0.07869   0.14933   0.22174   0.24428   0.46185

 Mulliken charges:
               1
     1  H    0.252384
     2  H   -0.421613
     3  H   -0.223917
     4  H    0.252384
     5  H    0.140763
     6  H    0.140763
     7  H   -0.223917
     8  H    0.252384
     9  H    0.252384
    10  H   -0.421613
 Sum of Mulliken charges =  -0.00000

 Dipole moment (field-independent basis, Debye):
    X=             -0.0000    Y=              0.0000    Z=              0.0000  Tot=              0.0000
 Quadrupole moment (field-independent basis, Debye-Ang):
   XX=            -12.9628   YY=             -9.4830   ZZ=            -42.4209
   XY=              0.0000   XZ=              0.0000   YZ=             -0.0000

 Normal termination of Gaussian 09 at Thu Feb  9 15:52:02 2017.
