 Gaussian 09, Revision E.01,
 Gaussian 09:  ES64L-G09RevE.01 30-Nov-2015

 ----------------------------------------------------------------------
 #rhf/gen scf(symm,tight,novaracc,noincfock,fulldiag) stable(crhf) geom
 =nocrowd test
 ----------------------------------------------------------------------

 hf stability analysis of h10 triangular lattice, y= 0.3149713055983335
 3
 ----------------------------------------------------------------------
 Symbolic Z-matrix:
 Charge =  0 Multiplicity = 1

                         Standard orientation:
 ---------------------------------------------------------------------
 Center     Atomic      Atomic             Coordinates (Angstroms)
 Number     Number       Type             X           Y           Z
 ---------------------------------------------------------------------
      1          1           0        0.000000    0.314971    3.666050
      2          1           0        0.000000    0.000000    5.499075
      3          1           0        0.000000    0.000000    1.833025
      4          1           0       -0.000000   -0.314971    3.666050
      5          1           0       -0.000000    0.314971   -0.000000
      6          1           0       -0.000000   -0.314971    0.000000
      7          1           0        0.000000   -0.000000   -1.833025
      8          1           0        0.000000    0.314971   -3.666050
      9          1           0       -0.000000   -0.314971   -3.666050
     10          1           0        0.000000   -0.000000   -5.499075
 ---------------------------------------------------------------------

 SCF Done:  E(RHF) =  -4.72064200515     A.U. after   10 cycles
 E2 =    -0.2901080988D+00 EUMP2 =    -0.50107501039220D+01

 The electronic state is 1-AG.
 Alpha  occ. eigenvalues --   -0.70220  -0.69683  -0.68337  -0.27949  -0.24451
 Alpha virt. eigenvalues --   -0.07822  -0.03916   0.45148   0.45745   0.47486

 Mulliken charges:
               1
     1  H    0.033396
     2  H   -0.064919
     3  H   -0.011356
     4  H    0.033396
     5  H    0.009483
     6  H    0.009483
     7  H   -0.011356
     8  H    0.033396
     9  H    0.033396
    10  H   -0.064919
 Sum of Mulliken charges =   0.00000

 Dipole moment (field-independent basis, Debye):
    X=             -0.0000    Y=              0.0000    Z=              0.0000  Tot=              0.0000
 Quadrupole moment (field-independent basis, Debye-Ang):
   XX=            -13.6112   YY=            -12.5417   ZZ=            -25.7351
   XY=              0.0000   XZ=              0.0000   YZ=             -0.0000

 Normal termination of Gaussian 09 at Thu Feb  9 16:04:15 2017.
