 Gaussian 09, Revision E.01,
 Gaussian 09:  ES64L-G09RevE.01 30-Nov-2015

 ----------------------------------------------------------------------
 #rhf/gen scf(symm,tight,novaracc,noincfock,fulldiag) stable(crhf) geom
 =nocrowd test
 ----------------------------------------------------------------------

 hf stability analysis of h10 triangular lattice, y= 0.2494204908049003
 4
 ----------------------------------------------------------------------
 Symbolic Z-matrix:
 Charge =  0 Multiplicity = 1

                         Standard orientation:
 ---------------------------------------------------------------------
 Center     Atomic      Atomic             Coordinates (Angstroms)
 Number     Number       Type             X           Y           Z
 ---------------------------------------------------------------------
      1          1           0        0.000000    0.249420    4.629534
      2          1           0        0.000000   -0.000000    6.944300
      3          1           0        0.000000   -0.000000    2.314767
      4          1           0       -0.000000   -0.249420    4.629534
      5          1           0        0.000000    0.249420    0.000000
      6          1           0       -0.000000   -0.249420   -0.000000
      7          1           0        0.000000    0.000000   -2.314767
      8          1           0        0.000000    0.249420   -4.629534
      9          1           0       -0.000000   -0.249420   -4.629534
     10          1           0        0.000000    0.000000   -6.944300
 ---------------------------------------------------------------------

 SCF Done:  E(RHF) =  -4.35941708282     A.U. after    9 cycles
 E2 =    -0.5324667187D+00 EUMP2 =    -0.48918838014873D+01

 The electronic state is 1-AG.
 Alpha  occ. eigenvalues --   -0.71830  -0.71742  -0.71526  -0.25088  -0.24044
 Alpha virt. eigenvalues --   -0.12302  -0.11202   0.60271   0.60392   0.60788

 Mulliken charges:
               1
     1  H    0.000968
     2  H   -0.008687
     3  H    0.008331
     4  H    0.000968
     5  H   -0.001580
     6  H   -0.001580
     7  H    0.008331
     8  H    0.000968
     9  H    0.000968
    10  H   -0.008687
 Sum of Mulliken charges =  -0.00000

 Dipole moment (field-independent basis, Debye):
    X=             -0.0000    Y=             -0.0000    Z=              0.0000  Tot=              0.0000
 Quadrupole moment (field-independent basis, Debye-Ang):
   XX=            -13.5820   YY=            -12.9142   ZZ=            -17.6520
   XY=              0.0000   XZ=              0.0000   YZ=              0.0000

 Normal termination of Gaussian 09 at Thu Feb  9 16:06:38 2017.
