 Gaussian 09, Revision E.01,
 Gaussian 09:  ES64L-G09RevE.01 30-Nov-2015

 ----------------------------------------------------------------------
 #rhf/gen scf(symm,tight,novaracc,noincfock,fulldiag) stable(crhf) geom
 =nocrowd test
 ----------------------------------------------------------------------

 hf stability analysis of h10 triangular lattice, y= 0.3730181295843630
 9
 ----------------------------------------------------------------------
 Symbolic Z-matrix:
 Charge =  0 Multiplicity = 1

                         Standard orientation:
 ---------------------------------------------------------------------
 Center     Atomic      Atomic             Coordinates (Angstroms)
 Number     Number       Type             X           Y           Z
 ---------------------------------------------------------------------
      1          1           0       -0.000000    0.373018    3.095561
      2          1           0       -0.000000    0.000000    4.643342
      3          1           0       -0.000000    0.000000    1.547781
      4          1           0       -0.000000   -0.373018    3.095561
      5          1           0       -0.000000    0.373018    0.000000
      6          1           0       -0.000000   -0.373018    0.000000
      7          1           0        0.000000    0.000000   -1.547781
      8          1           0        0.000000    0.373018   -3.095561
      9          1           0       -0.000000   -0.373018   -3.095561
     10          1           0        0.000000    0.000000   -4.643342
 ---------------------------------------------------------------------

 SCF Done:  E(RHF) =  -4.86737821970     A.U. after    9 cycles
 E2 =    -0.1727295751D+00 EUMP2 =    -0.50401077948249D+01

 The electronic state is 1-AG.
 Alpha  occ. eigenvalues --   -0.71588  -0.69824  -0.66632  -0.30854  -0.23979
 Alpha virt. eigenvalues --   -0.01158   0.06966   0.32716   0.34366   0.37526

 Mulliken charges:
               1
     1  H    0.092183
     2  H   -0.160372
     3  H   -0.062998
     4  H    0.092183
     5  H    0.039004
     6  H    0.039004
     7  H   -0.062998
     8  H    0.092183
     9  H    0.092183
    10  H   -0.160372
 Sum of Mulliken charges =  -0.00000

 Dipole moment (field-independent basis, Debye):
    X=             -0.0000    Y=             -0.0000    Z=             -0.0000  Tot=              0.0000
 Quadrupole moment (field-independent basis, Debye-Ang):
   XX=            -13.5649   YY=            -11.9928   ZZ=            -33.6867
   XY=              0.0000   XZ=              0.0000   YZ=              0.0000

 Normal termination of Gaussian 09 at Thu Feb  9 16:01:40 2017.
