 Gaussian 09, Revision E.01,
 Gaussian 09:  ES64L-G09RevE.01 30-Nov-2015

 ----------------------------------------------------------------------
 #rhf/gen scf(symm,tight,novaracc,noincfock,fulldiag) stable(crhf) geom
 =nocrowd test
 ----------------------------------------------------------------------

 hf stability analysis of h10 triangular lattice, y= 0.6275680560070567
 8
 ----------------------------------------------------------------------
 Symbolic Z-matrix:
 Charge =  0 Multiplicity = 1

                         Standard orientation:
 ---------------------------------------------------------------------
 Center     Atomic      Atomic             Coordinates (Angstroms)
 Number     Number       Type             X           Y           Z
 ---------------------------------------------------------------------
      1          1           0        0.000000    0.627568    1.839961
      2          1           0        0.000000    0.000000    2.759941
      3          1           0        0.000000    0.000000    0.919980
      4          1           0       -0.000000   -0.627568    1.839961
      5          1           0       -0.000000    0.627568   -0.000000
      6          1           0       -0.000000   -0.627568    0.000000
      7          1           0        0.000000   -0.000000   -0.919980
      8          1           0        0.000000    0.627568   -1.839961
      9          1           0       -0.000000   -0.627568   -1.839961
     10          1           0        0.000000   -0.000000   -2.759941
 ---------------------------------------------------------------------

 SCF Done:  E(RHF) =  -4.80911116412     A.U. after    9 cycles
 E2 =    -0.1281981294D+00 EUMP2 =    -0.49373092935521D+01

 The electronic state is 1-AG.
 Alpha  occ. eigenvalues --   -0.81465  -0.73095  -0.55931  -0.30211  -0.27202
 Alpha virt. eigenvalues --    0.01223   0.15118   0.20332   0.46021   0.69952

 Mulliken charges:
               1
     1  H    0.182828
     2  H   -0.151227
     3  H   -0.236514
     4  H    0.182828
     5  H    0.022084
     6  H    0.022084
     7  H   -0.236514
     8  H    0.182828
     9  H    0.182828
    10  H   -0.151227
 Sum of Mulliken charges =   0.00000

 Dipole moment (field-independent basis, Debye):
    X=             -0.0000    Y=              0.0000    Z=             -0.0000  Tot=              0.0000
 Quadrupole moment (field-independent basis, Debye-Ang):
   XX=            -13.0534   YY=            -13.1028   ZZ=            -16.3382
   XY=              0.0000   XZ=              0.0000   YZ=             -0.0000

 Normal termination of Gaussian 09 at Thu Feb  9 15:44:02 2017.
