 Gaussian 09, Revision E.01,
 Gaussian 09:  ES64L-G09RevE.01 30-Nov-2015

 ----------------------------------------------------------------------
 #rhf/gen scf(symm,tight,novaracc,noincfock,fulldiag) stable(crhf) geom
 =nocrowd test
 ----------------------------------------------------------------------

 hf stability analysis of h10 triangular lattice, y= 0.6500434873712610
 5
 ----------------------------------------------------------------------
 Symbolic Z-matrix:
 Charge =  0 Multiplicity = 1

                         Standard orientation:
 ---------------------------------------------------------------------
 Center     Atomic      Atomic             Coordinates (Angstroms)
 Number     Number       Type             X           Y           Z
 ---------------------------------------------------------------------
      1          1           0        0.000000    0.650043    1.776344
      2          1           0       -0.000000    0.000000    2.664515
      3          1           0       -0.000000    0.000000    0.888172
      4          1           0       -0.000000   -0.650043    1.776344
      5          1           0       -0.000000    0.650043    0.000000
      6          1           0       -0.000000   -0.650043   -0.000000
      7          1           0        0.000000    0.000000   -0.888172
      8          1           0        0.000000    0.650043   -1.776344
      9          1           0       -0.000000   -0.650043   -1.776344
     10          1           0        0.000000    0.000000   -2.664515
 ---------------------------------------------------------------------

 SCF Done:  E(RHF) =  -4.81810425893     A.U. after    9 cycles
 E2 =    -0.1205554493D+00 EUMP2 =    -0.49386597082263D+01

 The electronic state is 1-AG.
 Alpha  occ. eigenvalues --   -0.82462  -0.73244  -0.55278  -0.29850  -0.29299
 Alpha virt. eigenvalues --   -0.00115   0.18446   0.20094   0.49329   0.70066

 Mulliken charges:
               1
     1  H    0.204651
     2  H   -0.185400
     3  H   -0.254153
     4  H    0.204651
     5  H    0.030251
     6  H    0.030251
     7  H   -0.254153
     8  H    0.204651
     9  H    0.204651
    10  H   -0.185400
 Sum of Mulliken charges =  -0.00000

 Dipole moment (field-independent basis, Debye):
    X=             -0.0000    Y=              0.0000    Z=             -0.0000  Tot=              0.0000
 Quadrupole moment (field-independent basis, Debye-Ang):
   XX=            -13.0018   YY=            -12.6483   ZZ=            -17.6779
   XY=              0.0000   XZ=              0.0000   YZ=             -0.0000

 Normal termination of Gaussian 09 at Thu Feb  9 15:42:22 2017.
