 Gaussian 09, Revision E.01,
 Gaussian 09:  ES64L-G09RevE.01 30-Nov-2015

 ----------------------------------------------------------------------
 #rhf/gen scf(symm,tight,novaracc,noincfock,fulldiag) stable(crhf) geom
 =nocrowd test
 ----------------------------------------------------------------------

 hf stability analysis of h10 triangular lattice, y= 0.3255205158934494
 9
 ----------------------------------------------------------------------
 Symbolic Z-matrix:
 Charge =  0 Multiplicity = 1

                         Standard orientation:
 ---------------------------------------------------------------------
 Center     Atomic      Atomic             Coordinates (Angstroms)
 Number     Number       Type             X           Y           Z
 ---------------------------------------------------------------------
      1          1           0        0.000000    0.325521    3.547244
      2          1           0        0.000000    0.000000    5.320865
      3          1           0        0.000000    0.000000    1.773622
      4          1           0       -0.000000   -0.325521    3.547244
      5          1           0       -0.000000    0.325521    0.000000
      6          1           0       -0.000000   -0.325521    0.000000
      7          1           0        0.000000    0.000000   -1.773622
      8          1           0        0.000000    0.325521   -3.547244
      9          1           0       -0.000000   -0.325521   -3.547244
     10          1           0        0.000000    0.000000   -5.320865
 ---------------------------------------------------------------------

 SCF Done:  E(RHF) =  -4.75672112394     A.U. after   10 cycles
 E2 =    -0.2622066516D+00 EUMP2 =    -0.50189277755694D+01

 The electronic state is 1-AG.
 Alpha  occ. eigenvalues --   -0.70303  -0.69609  -0.67980  -0.28473  -0.24434
 Alpha virt. eigenvalues --   -0.06798  -0.02241   0.42794   0.43529   0.45531

 Mulliken charges:
               1
     1  H    0.042583
     2  H   -0.079887
     3  H   -0.018881
     4  H    0.042583
     5  H    0.013603
     6  H    0.013603
     7  H   -0.018881
     8  H    0.042583
     9  H    0.042583
    10  H   -0.079887
 Sum of Mulliken charges =   0.00000

 Dipole moment (field-independent basis, Debye):
    X=             -0.0000    Y=              0.0000    Z=              0.0000  Tot=              0.0000
 Quadrupole moment (field-independent basis, Debye-Ang):
   XX=            -13.6116   YY=            -12.4621   ZZ=            -27.2671
   XY=              0.0000   XZ=              0.0000   YZ=             -0.0000

 Normal termination of Gaussian 09 at Thu Feb  9 16:03:49 2017.
