 Gaussian 09, Revision E.01,
 Gaussian 09:  ES64L-G09RevE.01 30-Nov-2015

 ----------------------------------------------------------------------
 #rhf/gen scf(symm,tight,novaracc,noincfock,fulldiag) stable(crhf) geom
 =nocrowd test
 ----------------------------------------------------------------------

 hf stability analysis of h10 triangular lattice, y= 0.6099810417769481
 2
 ----------------------------------------------------------------------
 Symbolic Z-matrix:
 Charge =  0 Multiplicity = 1

                         Standard orientation:
 ---------------------------------------------------------------------
 Center     Atomic      Atomic             Coordinates (Angstroms)
 Number     Number       Type             X           Y           Z
 ---------------------------------------------------------------------
      1          1           0       -0.000000    0.609981    1.893011
      2          1           0       -0.000000    0.000000    2.839516
      3          1           0       -0.000000    0.000000    0.946505
      4          1           0       -0.000000   -0.609981    1.893011
      5          1           0       -0.000000    0.609981    0.000000
      6          1           0       -0.000000   -0.609981   -0.000000
      7          1           0        0.000000   -0.000000   -0.946505
      8          1           0        0.000000    0.609981   -1.893011
      9          1           0       -0.000000   -0.609981   -1.893011
     10          1           0        0.000000   -0.000000   -2.839516
 ---------------------------------------------------------------------

 SCF Done:  E(RHF) =  -4.79701465365     A.U. after    9 cycles
 E2 =    -0.1351750907D+00 EUMP2 =    -0.49321897443475D+01

 The electronic state is 1-AG.
 Alpha  occ. eigenvalues --   -0.80614  -0.72896  -0.56362  -0.30771  -0.25013
 Alpha virt. eigenvalues --    0.02374   0.12575   0.20639   0.43149   0.68960

 Mulliken charges:
               1
     1  H    0.164650
     2  H   -0.123489
     3  H   -0.219920
     4  H    0.164650
     5  H    0.014109
     6  H    0.014109
     7  H   -0.219920
     8  H    0.164650
     9  H    0.164650
    10  H   -0.123489
 Sum of Mulliken charges =  -0.00000

 Dipole moment (field-independent basis, Debye):
    X=             -0.0000    Y=              0.0000    Z=              0.0000  Tot=              0.0000
 Quadrupole moment (field-independent basis, Debye-Ang):
   XX=            -13.0935   YY=            -13.4450   ZZ=            -15.1430
   XY=              0.0000   XZ=              0.0000   YZ=             -0.0000

 Normal termination of Gaussian 09 at Thu Feb  9 15:45:20 2017.
