 Gaussian 09, Revision E.01,
 Gaussian 09:  ES64L-G09RevE.01 30-Nov-2015

 ----------------------------------------------------------------------
 #rhf/gen scf(symm,tight,novaracc,noincfock,fulldiag) stable(crhf) geom
 =nocrowd test
 ----------------------------------------------------------------------

 hf stability analysis of h10 triangular lattice, y= 0.6234541367984389
 7
 ----------------------------------------------------------------------
 Symbolic Z-matrix:
 Charge =  0 Multiplicity = 1

                         Standard orientation:
 ---------------------------------------------------------------------
 Center     Atomic      Atomic             Coordinates (Angstroms)
 Number     Number       Type             X           Y           Z
 ---------------------------------------------------------------------
      1          1           0        0.000000    0.623454    1.852102
      2          1           0        0.000000   -0.000000    2.778153
      3          1           0        0.000000   -0.000000    0.926051
      4          1           0       -0.000000   -0.623454    1.852102
      5          1           0       -0.000000    0.623454    0.000000
      6          1           0       -0.000000   -0.623454   -0.000000
      7          1           0        0.000000    0.000000   -0.926051
      8          1           0        0.000000    0.623454   -1.852102
      9          1           0       -0.000000   -0.623454   -1.852102
     10          1           0        0.000000    0.000000   -2.778153
 ---------------------------------------------------------------------

 SCF Done:  E(RHF) =  -4.80669215333     A.U. after    9 cycles
 E2 =    -0.1297466791D+00 EUMP2 =    -0.49364388324491D+01

 The electronic state is 1-AG.
 Alpha  occ. eigenvalues --   -0.81272  -0.73055  -0.56039  -0.30354  -0.26699
 Alpha virt. eigenvalues --    0.01483   0.14518   0.20394   0.45369   0.69791

 Mulliken charges:
               1
     1  H    0.178660
     2  H   -0.144813
     3  H   -0.232848
     4  H    0.178660
     5  H    0.020341
     6  H    0.020341
     7  H   -0.232848
     8  H    0.178660
     9  H    0.178660
    10  H   -0.144813
 Sum of Mulliken charges =  -0.00000

 Dipole moment (field-independent basis, Debye):
    X=             -0.0000    Y=              0.0000    Z=              0.0000  Tot=              0.0000
 Quadrupole moment (field-independent basis, Debye-Ang):
   XX=            -13.0628   YY=            -13.1840   ZZ=            -16.0708
   XY=              0.0000   XZ=              0.0000   YZ=             -0.0000

 Normal termination of Gaussian 09 at Thu Feb  9 15:44:20 2017.
