 Gaussian 09, Revision E.01,
 Gaussian 09:  ES64L-G09RevE.01 30-Nov-2015

 ----------------------------------------------------------------------
 #rhf/gen scf(symm,tight,novaracc,noincfock,fulldiag) stable(crhf) geom
 =nocrowd test
 ----------------------------------------------------------------------

 hf stability analysis of h10 triangular lattice, y= 0.3488076663619584
 2
 ----------------------------------------------------------------------
 Symbolic Z-matrix:
 Charge =  0 Multiplicity = 1

                         Standard orientation:
 ---------------------------------------------------------------------
 Center     Atomic      Atomic             Coordinates (Angstroms)
 Number     Number       Type             X           Y           Z
 ---------------------------------------------------------------------
      1          1           0        0.000000    0.348808    3.310422
      2          1           0        0.000000    0.000000    4.965633
      3          1           0        0.000000    0.000000    1.655211
      4          1           0       -0.000000   -0.348808    3.310422
      5          1           0        0.000000    0.348808   -0.000000
      6          1           0       -0.000000   -0.348808    0.000000
      7          1           0        0.000000   -0.000000   -1.655211
      8          1           0        0.000000    0.348808   -3.310422
      9          1           0       -0.000000   -0.348808   -3.310422
     10          1           0        0.000000   -0.000000   -4.965633
 ---------------------------------------------------------------------

 SCF Done:  E(RHF) =  -4.82087217712     A.U. after    9 cycles
 E2 =    -0.2115790203D+00 EUMP2 =    -0.50324511973880D+01

 The electronic state is 1-AG.
 Alpha  occ. eigenvalues --   -0.70768  -0.69620  -0.67283  -0.29652  -0.24294
 Alpha virt. eigenvalues --   -0.04237   0.01945   0.37736   0.38856   0.41430

 Mulliken charges:
               1
     1  H    0.065611
     2  H   -0.117231
     3  H   -0.038847
     4  H    0.065611
     5  H    0.024856
     6  H    0.024856
     7  H   -0.038847
     8  H    0.065611
     9  H    0.065611
    10  H   -0.117231
 Sum of Mulliken charges =   0.00000

 Dipole moment (field-independent basis, Debye):
    X=             -0.0000    Y=              0.0000    Z=              0.0000  Tot=              0.0000
 Quadrupole moment (field-independent basis, Debye-Ang):
   XX=            -13.5996   YY=            -12.2557   ZZ=            -30.5691
   XY=              0.0000   XZ=              0.0000   YZ=             -0.0000

 Normal termination of Gaussian 09 at Thu Feb  9 16:02:47 2017.
