 Gaussian 09, Revision E.01,
 Gaussian 09:  ES64L-G09RevE.01 30-Nov-2015

 ----------------------------------------------------------------------
 #rhf/gen scf(symm,tight,novaracc,noincfock,fulldiag) stable(crhf) geom
 =nocrowd test
 ----------------------------------------------------------------------

 hf stability analysis of h10 triangular lattice, y= 0.7558675368868311
 7
 ----------------------------------------------------------------------
 Symbolic Z-matrix:
 Charge =  0 Multiplicity = 1

                         Standard orientation:
 ---------------------------------------------------------------------
 Center     Atomic      Atomic             Coordinates (Angstroms)
 Number     Number       Type             X           Y           Z
 ---------------------------------------------------------------------
      1          1           0        0.000000    0.755868    1.527649
      2          1           0        0.000000    0.000000    2.291474
      3          1           0        0.000000    0.000000    0.763825
      4          1           0       -0.000000   -0.755868    1.527649
      5          1           0       -0.000000    0.755868    0.000000
      6          1           0       -0.000000   -0.755868    0.000000
      7          1           0        0.000000    0.000000   -0.763825
      8          1           0        0.000000    0.755868   -1.527649
      9          1           0       -0.000000   -0.755868   -1.527649
     10          1           0        0.000000    0.000000   -2.291474
 ---------------------------------------------------------------------

 SCF Done:  E(RHF) =  -4.85149168169     A.U. after    8 cycles
 E2 =    -0.9760503779D-01 EUMP2 =    -0.49490967194847D+01

 The electronic state is 1-AG.
 Alpha  occ. eigenvalues --   -0.90881  -0.74649  -0.52038  -0.46016  -0.27439
 Alpha virt. eigenvalues --   -0.02244   0.15056   0.34118   0.52571   0.55156

 Mulliken charges:
               1
     1  H   -0.211427
     2  H    0.231927
     3  H    0.154881
     4  H   -0.211427
     5  H    0.036045
     6  H    0.036045
     7  H    0.154881
     8  H   -0.211427
     9  H   -0.211427
    10  H    0.231927
 Sum of Mulliken charges =  -0.00000

 Dipole moment (field-independent basis, Debye):
    X=              0.0000    Y=             -0.0000    Z=              0.0000  Tot=              0.0000
 Quadrupole moment (field-independent basis, Debye-Ang):
   XX=            -13.0053   YY=            -18.6147   ZZ=            -10.8825
   XY=             -0.0000   XZ=             -0.0000   YZ=             -0.0000

 Normal termination of Gaussian 09 at Thu Feb  9 15:35:02 2017.
