 Gaussian 09, Revision E.01,
 Gaussian 09:  ES64L-G09RevE.01 30-Nov-2015

 ----------------------------------------------------------------------
 #rhf/gen scf(symm,tight,novaracc,noincfock,fulldiag) stable(crhf) geom
 =nocrowd test
 ----------------------------------------------------------------------

 hf stability analysis of h10 triangular lattice, y= 0.4926415667038366
 9
 ----------------------------------------------------------------------
 Symbolic Z-matrix:
 Charge =  0 Multiplicity = 1

                         Standard orientation:
 ---------------------------------------------------------------------
 Center     Atomic      Atomic             Coordinates (Angstroms)
 Number     Number       Type             X           Y           Z
 ---------------------------------------------------------------------
      1          1           0        0.000000    0.492642    2.343896
      2          1           0       -0.000000    0.000000    3.515844
      3          1           0       -0.000000    0.000000    1.171948
      4          1           0       -0.000000   -0.492642    2.343896
      5          1           0        0.000000    0.492642   -0.000000
      6          1           0       -0.000000   -0.492642    0.000000
      7          1           0        0.000000   -0.000000   -1.171948
      8          1           0        0.000000    0.492642   -2.343896
      9          1           0       -0.000000   -0.492642   -2.343896
     10          1           0        0.000000   -0.000000   -3.515844
 ---------------------------------------------------------------------

 SCF Done:  E(RHF) =  -4.83965715409     A.U. after    9 cycles
 E2 =    -0.9425257065D-01 EUMP2 =    -0.49339097247330D+01

 The electronic state is 1-AG.
 Alpha  occ. eigenvalues --   -0.77803  -0.71897  -0.62962  -0.34350  -0.19103
 Alpha virt. eigenvalues --    0.11797   0.17695   0.19041   0.24051   0.38615

 Mulliken charges:
               1
     1  H    0.225338
     2  H   -0.377855
     3  H   -0.194385
     4  H    0.225338
     5  H    0.121563
     6  H    0.121563
     7  H   -0.194385
     8  H    0.225338
     9  H    0.225338
    10  H   -0.377855
 Sum of Mulliken charges =  -0.00000

 Dipole moment (field-independent basis, Debye):
    X=             -0.0000    Y=              0.0000    Z=             -0.0000  Tot=              0.0000
 Quadrupole moment (field-independent basis, Debye-Ang):
   XX=            -13.1068   YY=            -10.0435   ZZ=            -41.9209
   XY=              0.0000   XZ=              0.0000   YZ=              0.0000

 Normal termination of Gaussian 09 at Thu Feb  9 15:54:01 2017.
