 Gaussian 09, Revision E.01,
 Gaussian 09:  ES64L-G09RevE.01 30-Nov-2015

 ----------------------------------------------------------------------
 #rhf/gen scf(symm,tight,novaracc,noincfock,fulldiag) stable(crhf) geom
 =nocrowd test
 ----------------------------------------------------------------------

 hf stability analysis of h10 triangular lattice, y= 0.5849140194335137
 3
 ----------------------------------------------------------------------
 Symbolic Z-matrix:
 Charge =  0 Multiplicity = 1

                         Standard orientation:
 ---------------------------------------------------------------------
 Center     Atomic      Atomic             Coordinates (Angstroms)
 Number     Number       Type             X           Y           Z
 ---------------------------------------------------------------------
      1          1           0       -0.000000    0.584914    1.974137
      2          1           0       -0.000000    0.000000    2.961206
      3          1           0       -0.000000    0.000000    0.987069
      4          1           0       -0.000000   -0.584914    1.974137
      5          1           0       -0.000000    0.584914   -0.000000
      6          1           0       -0.000000   -0.584914    0.000000
      7          1           0        0.000000   -0.000000   -0.987069
      8          1           0        0.000000    0.584914   -1.974137
      9          1           0       -0.000000   -0.584914   -1.974137
     10          1           0        0.000000   -0.000000   -2.961206
 ---------------------------------------------------------------------

 SCF Done:  E(RHF) =  -4.77145061564     A.U. after    9 cycles
 E2 =    -0.1468994560D+00 EUMP2 =    -0.49183500716379D+01

 The electronic state is 1-AG.
 Alpha  occ. eigenvalues --   -0.79297  -0.72485  -0.56848  -0.31328  -0.21698
 Alpha virt. eigenvalues --    0.04192   0.09067   0.21277   0.38725   0.66195

 Mulliken charges:
               1
     1  H    0.137215
     2  H   -0.082666
     3  H   -0.192236
     4  H    0.137215
     5  H    0.000472
     6  H    0.000472
     7  H   -0.192236
     8  H    0.137215
     9  H    0.137215
    10  H   -0.082666
 Sum of Mulliken charges =   0.00000

 Dipole moment (field-independent basis, Debye):
    X=             -0.0000    Y=             -0.0000    Z=              0.0000  Tot=              0.0000
 Quadrupole moment (field-independent basis, Debye-Ang):
   XX=            -13.1495   YY=            -13.9082   ZZ=            -13.1870
   XY=             -0.0000   XZ=              0.0000   YZ=             -0.0000

 Normal termination of Gaussian 09 at Thu Feb  9 15:47:13 2017.
