 Gaussian 09, Revision E.01,
 Gaussian 09:  ES64L-G09RevE.01 30-Nov-2015

 ----------------------------------------------------------------------
 #rhf/gen scf(symm,tight,novaracc,noincfock,fulldiag) stable(crhf) geom
 =nocrowd test
 ----------------------------------------------------------------------

 hf stability analysis of h10 triangular lattice, y= 0.4701554321208025
 7
 ----------------------------------------------------------------------
 Symbolic Z-matrix:
 Charge =  0 Multiplicity = 1

                         Standard orientation:
 ---------------------------------------------------------------------
 Center     Atomic      Atomic             Coordinates (Angstroms)
 Number     Number       Type             X           Y           Z
 ---------------------------------------------------------------------
      1          1           0        0.000000    0.470155    2.455997
      2          1           0       -0.000000    0.000000    3.683996
      3          1           0       -0.000000    0.000000    1.227999
      4          1           0       -0.000000   -0.470155    2.455997
      5          1           0        0.000000    0.470155    0.000000
      6          1           0       -0.000000   -0.470155   -0.000000
      7          1           0        0.000000    0.000000   -1.227999
      8          1           0        0.000000    0.470155   -2.455997
      9          1           0       -0.000000   -0.470155   -2.455997
     10          1           0        0.000000    0.000000   -3.683996
 ---------------------------------------------------------------------

 SCF Done:  E(RHF) =  -4.87483795954     A.U. after    9 cycles
 E2 =    -0.1005407932D+00 EUMP2 =    -0.49753787527009D+01

 The electronic state is 1-AG.
 Alpha  occ. eigenvalues --   -0.76576  -0.71493  -0.63783  -0.34133  -0.20493
 Alpha virt. eigenvalues --    0.14755   0.15251   0.20213   0.25892   0.32222

 Mulliken charges:
               1
     1  H    0.201903
     2  H   -0.339724
     3  H   -0.169747
     4  H    0.201903
     5  H    0.105665
     6  H    0.105665
     7  H   -0.169747
     8  H    0.201903
     9  H    0.201903
    10  H   -0.339724
 Sum of Mulliken charges =  -0.00000

 Dipole moment (field-independent basis, Debye):
    X=             -0.0000    Y=              0.0000    Z=             -0.0000  Tot=              0.0000
 Quadrupole moment (field-independent basis, Debye-Ang):
   XX=            -13.2185   YY=            -10.4779   ZZ=            -41.2082
   XY=              0.0000   XZ=              0.0000   YZ=             -0.0000

 Normal termination of Gaussian 09 at Thu Feb  9 15:55:36 2017.
