 Gaussian 09, Revision E.01,
 Gaussian 09:  ES64L-G09RevE.01 30-Nov-2015

 ----------------------------------------------------------------------
 #rhf/gen scf(symm,tight,novaracc,noincfock,fulldiag) stable(crhf) geom
 =nocrowd test
 ----------------------------------------------------------------------

 hf stability analysis of h10 triangular lattice, y= 0.5371085427920604
 4
 ----------------------------------------------------------------------
 Symbolic Z-matrix:
 Charge =  0 Multiplicity = 1

                         Standard orientation:
 ---------------------------------------------------------------------
 Center     Atomic      Atomic             Coordinates (Angstroms)
 Number     Number       Type             X           Y           Z
 ---------------------------------------------------------------------
      1          1           0        0.000000    0.537109    2.149846
      2          1           0       -0.000000    0.000000    3.224769
      3          1           0       -0.000000    0.000000    1.074923
      4          1           0       -0.000000   -0.537109    2.149846
      5          1           0        0.000000    0.537109    0.000000
      6          1           0       -0.000000   -0.537109    0.000000
      7          1           0        0.000000    0.000000   -1.074923
      8          1           0        0.000000    0.537109   -2.149846
      9          1           0       -0.000000   -0.537109   -2.149846
     10          1           0        0.000000    0.000000   -3.224769
 ---------------------------------------------------------------------

 SCF Done:  E(RHF) =  -4.73486945024     A.U. after    8 cycles
 E2 =    -0.8798202399D-01 EUMP2 =    -0.48228514742308D+01

 The electronic state is 1-AG.
 Alpha  occ. eigenvalues --   -0.80053  -0.72546  -0.61116  -0.34095  -0.15665
 Alpha virt. eigenvalues --    0.05576   0.13366   0.21192   0.27824   0.50596

 Mulliken charges:
               1
     1  H    0.268330
     2  H   -0.447286
     3  H   -0.241886
     4  H    0.268330
     5  H    0.152512
     6  H    0.152512
     7  H   -0.241886
     8  H    0.268330
     9  H    0.268330
    10  H   -0.447286
 Sum of Mulliken charges =  -0.00000

 Dipole moment (field-independent basis, Debye):
    X=             -0.0000    Y=              0.0000    Z=              0.0000  Tot=              0.0000
 Quadrupole moment (field-independent basis, Debye-Ang):
   XX=            -12.8703   YY=             -9.1195   ZZ=            -42.5649
   XY=              0.0000   XZ=              0.0000   YZ=             -0.0000

 Normal termination of Gaussian 09 at Thu Feb  9 15:50:46 2017.
