 Gaussian 09, Revision E.01,
 Gaussian 09:  ES64L-G09RevE.01 30-Nov-2015

 ----------------------------------------------------------------------
 #rhf/gen scf(symm,tight,novaracc,noincfock,fulldiag) stable(crhf) geom
 =nocrowd test
 ----------------------------------------------------------------------

 hf stability analysis of h10 triangular lattice, y= 0.4194793393853691
 9
 ----------------------------------------------------------------------
 Symbolic Z-matrix:
 Charge =  0 Multiplicity = 1

                         Standard orientation:
 ---------------------------------------------------------------------
 Center     Atomic      Atomic             Coordinates (Angstroms)
 Number     Number       Type             X           Y           Z
 ---------------------------------------------------------------------
      1          1           0        0.000000    0.419479    2.752699
      2          1           0        0.000000    0.000000    4.129049
      3          1           0        0.000000    0.000000    1.376350
      4          1           0       -0.000000   -0.419479    2.752699
      5          1           0       -0.000000    0.419479    0.000000
      6          1           0       -0.000000   -0.419479    0.000000
      7          1           0        0.000000    0.000000   -1.376350
      8          1           0        0.000000    0.419479   -2.752699
      9          1           0       -0.000000   -0.419479   -2.752699
     10          1           0        0.000000    0.000000   -4.129049
 ---------------------------------------------------------------------

 SCF Done:  E(RHF) =  -4.90495949912     A.U. after    8 cycles
 E2 =    -0.1261257407D+00 EUMP2 =    -0.50310852398291D+01

 The electronic state is 1-AG.
 Alpha  occ. eigenvalues --   -0.73789  -0.70537  -0.65379  -0.32836  -0.22795
 Alpha virt. eigenvalues --    0.05824   0.18240   0.23832   0.26865   0.31165

 Mulliken charges:
               1
     1  H    0.145617
     2  H   -0.247647
     3  H   -0.113555
     4  H    0.145617
     5  H    0.069969
     6  H    0.069969
     7  H   -0.113555
     8  H    0.145617
     9  H    0.145617
    10  H   -0.247647
 Sum of Mulliken charges =  -0.00000

 Dipole moment (field-independent basis, Debye):
    X=             -0.0000    Y=              0.0000    Z=              0.0000  Tot=              0.0000
 Quadrupole moment (field-independent basis, Debye-Ang):
   XX=            -13.4345   YY=            -11.3517   ZZ=            -38.2947
   XY=              0.0000   XZ=              0.0000   YZ=             -0.0000

 Normal termination of Gaussian 09 at Thu Feb  9 15:59:00 2017.
