 Gaussian 09, Revision E.01,
 Gaussian 09:  ES64L-G09RevE.01 30-Nov-2015

 ----------------------------------------------------------------------
 #rhf/gen scf(symm,tight,novaracc,noincfock,fulldiag) stable(crhf) geom
 =nocrowd test
 ----------------------------------------------------------------------

 hf stability analysis of h10 triangular lattice, y= 0.4075511341320845
 5
 ----------------------------------------------------------------------
 Symbolic Z-matrix:
 Charge =  0 Multiplicity = 1

                         Standard orientation:
 ---------------------------------------------------------------------
 Center     Atomic      Atomic             Coordinates (Angstroms)
 Number     Number       Type             X           Y           Z
 ---------------------------------------------------------------------
      1          1           0       -0.000000    0.407551    2.833265
      2          1           0       -0.000000    0.000000    4.249898
      3          1           0       -0.000000    0.000000    1.416633
      4          1           0       -0.000000   -0.407551    2.833265
      5          1           0       -0.000000    0.407551    0.000000
      6          1           0       -0.000000   -0.407551   -0.000000
      7          1           0        0.000000   -0.000000   -1.416633
      8          1           0        0.000000    0.407551   -2.833265
      9          1           0       -0.000000   -0.407551   -2.833265
     10          1           0        0.000000   -0.000000   -4.249898
 ---------------------------------------------------------------------

 SCF Done:  E(RHF) =  -4.90150123678     A.U. after    8 cycles
 E2 =    -0.1353830828D+00 EUMP2 =    -0.50368843195875D+01

 The electronic state is 1-AG.
 Alpha  occ. eigenvalues --   -0.73170  -0.70328  -0.65713  -0.32386  -0.23178
 Alpha virt. eigenvalues --    0.03908   0.15166   0.26019   0.28654   0.32654

 Mulliken charges:
               1
     1  H    0.131887
     2  H   -0.225172
     3  H   -0.100343
     4  H    0.131887
     5  H    0.061740
     6  H    0.061740
     7  H   -0.100343
     8  H    0.131887
     9  H    0.131887
    10  H   -0.225172
 Sum of Mulliken charges =   0.00000

 Dipole moment (field-independent basis, Debye):
    X=             -0.0000    Y=              0.0000    Z=              0.0000  Tot=              0.0000
 Quadrupole moment (field-independent basis, Debye-Ang):
   XX=            -13.4753   YY=            -11.5325   ZZ=            -37.2975
   XY=              0.0000   XZ=              0.0000   YZ=             -0.0000

 Normal termination of Gaussian 09 at Thu Feb  9 15:59:46 2017.
