 Gaussian 09, Revision E.01,
 Gaussian 09:  ES64L-G09RevE.01 30-Nov-2015

 ----------------------------------------------------------------------
 #rhf/gen scf(symm,tight,novaracc,noincfock,fulldiag) stable(crhf) geom
 =nocrowd test
 ----------------------------------------------------------------------

 hf stability analysis of h10 triangular lattice, y= 0.3967414199883826
 4
 ----------------------------------------------------------------------
 Symbolic Z-matrix:
 Charge =  0 Multiplicity = 1

                         Standard orientation:
 ---------------------------------------------------------------------
 Center     Atomic      Atomic             Coordinates (Angstroms)
 Number     Number       Type             X           Y           Z
 ---------------------------------------------------------------------
      1          1           0       -0.000000    0.396741    2.910461
      2          1           0        0.000000    0.000000    4.365692
      3          1           0        0.000000    0.000000    1.455231
      4          1           0       -0.000000   -0.396741    2.910461
      5          1           0       -0.000000    0.396741    0.000000
      6          1           0       -0.000000   -0.396741   -0.000000
      7          1           0        0.000000    0.000000   -1.455231
      8          1           0        0.000000    0.396741   -2.910461
      9          1           0       -0.000000   -0.396741   -2.910461
     10          1           0        0.000000    0.000000   -4.365692
 ---------------------------------------------------------------------

 SCF Done:  E(RHF) =  -4.89473070732     A.U. after    9 cycles
 E2 =    -0.1452180959D+00 EUMP2 =    -0.50399488032672D+01

 The electronic state is 1-AG.
 Alpha  occ. eigenvalues --   -0.72635  -0.70151  -0.66006  -0.31939  -0.23477
 Alpha virt. eigenvalues --    0.02242   0.12481   0.28056   0.30356   0.34089

 Mulliken charges:
               1
     1  H    0.119395
     2  H   -0.204745
     3  H   -0.088456
     4  H    0.119395
     5  H    0.054410
     6  H    0.054410
     7  H   -0.088456
     8  H    0.119395
     9  H    0.119395
    10  H   -0.204745
 Sum of Mulliken charges =   0.00000

 Dipole moment (field-independent basis, Debye):
    X=             -0.0000    Y=             -0.0000    Z=              0.0000  Tot=              0.0000
 Quadrupole moment (field-independent basis, Debye-Ang):
   XX=            -13.5082   YY=            -11.6869   ZZ=            -36.2824
   XY=              0.0000   XZ=              0.0000   YZ=             -0.0000

 Normal termination of Gaussian 09 at Thu Feb  9 16:00:24 2017.
