 Gaussian 09, Revision E.01,
 Gaussian 09:  ES64L-G09RevE.01 30-Nov-2015

 ----------------------------------------------------------------------
 #rhf/gen scf(symm,tight,novaracc,noincfock,fulldiag) stable(crhf) geom
 =nocrowd test
 ----------------------------------------------------------------------

 hf stability analysis of h10 triangular lattice, y= 0.7096863822964312
 2
 ----------------------------------------------------------------------
 Symbolic Z-matrix:
 Charge =  0 Multiplicity = 1

                         Standard orientation:
 ---------------------------------------------------------------------
 Center     Atomic      Atomic             Coordinates (Angstroms)
 Number     Number       Type             X           Y           Z
 ---------------------------------------------------------------------
      1          1           0       -0.000000    0.709686    1.627057
      2          1           0       -0.000000   -0.000000    2.440586
      3          1           0       -0.000000   -0.000000    0.813529
      4          1           0       -0.000000   -0.709686    1.627057
      5          1           0       -0.000000    0.709686    0.000000
      6          1           0       -0.000000   -0.709686   -0.000000
      7          1           0        0.000000    0.000000   -0.813529
      8          1           0        0.000000    0.709686   -1.627057
      9          1           0       -0.000000   -0.709686   -1.627057
     10          1           0        0.000000    0.000000   -2.440586
 ---------------------------------------------------------------------

 SCF Done:  E(RHF) =  -4.81023500784     A.U. after    9 cycles
 E2 =    -0.1058378263D+00 EUMP2 =    -0.49160728341814D+01

 The electronic state is 1-AG.
 Alpha  occ. eigenvalues --   -0.84610  -0.73083  -0.53031  -0.36175  -0.25876
 Alpha virt. eigenvalues --   -0.03033   0.20206   0.27480   0.55581   0.64992

 Mulliken charges:
               1
     1  H    0.254189
     2  H   -0.268146
     3  H   -0.280788
     4  H    0.254189
     5  H    0.040556
     6  H    0.040556
     7  H   -0.280788
     8  H    0.254189
     9  H    0.254189
    10  H   -0.268146
 Sum of Mulliken charges =   0.00000

 Dipole moment (field-independent basis, Debye):
    X=             -0.0000    Y=              0.0000    Z=             -0.0000  Tot=              0.0000
 Quadrupole moment (field-independent basis, Debye-Ang):
   XX=            -12.8664   YY=            -11.3799   ZZ=            -20.3991
   XY=              0.0000   XZ=              0.0000   YZ=             -0.0000

 Normal termination of Gaussian 09 at Thu Feb  9 15:38:09 2017.
