 Gaussian 09, Revision E.01,
 Gaussian 09:  ES64L-G09RevE.01 30-Nov-2015

 ----------------------------------------------------------------------
 #rhf/gen scf(symm,tight,novaracc,noincfock,fulldiag) stable(crhf) geom
 =nocrowd test
 ----------------------------------------------------------------------

 hf stability analysis of h10 triangular lattice, y= 0.7159578034734909
 2
 ----------------------------------------------------------------------
 Symbolic Z-matrix:
 Charge =  0 Multiplicity = 1

                         Standard orientation:
 ---------------------------------------------------------------------
 Center     Atomic      Atomic             Coordinates (Angstroms)
 Number     Number       Type             X           Y           Z
 ---------------------------------------------------------------------
      1          1           0        0.000000    0.715958    1.612805
      2          1           0       -0.000000    0.000000    2.419208
      3          1           0       -0.000000    0.000000    0.806403
      4          1           0       -0.000000   -0.715958    1.612805
      5          1           0       -0.000000    0.715958    0.000000
      6          1           0       -0.000000   -0.715958   -0.000000
      7          1           0        0.000000    0.000000   -0.806403
      8          1           0        0.000000    0.715958   -1.612805
      9          1           0       -0.000000   -0.715958   -1.612805
     10          1           0        0.000000    0.000000   -2.419208
 ---------------------------------------------------------------------

 SCF Done:  E(RHF) =  -4.80692663834     A.U. after    9 cycles
 E2 =    -0.1046821962D+00 EUMP2 =    -0.49116088345567D+01

 The electronic state is 1-AG.
 Alpha  occ. eigenvalues --   -0.84795  -0.73021  -0.52756  -0.36789  -0.25439
 Alpha virt. eigenvalues --   -0.03294   0.20273   0.28427   0.56000   0.64115

 Mulliken charges:
               1
     1  H    0.258667
     2  H   -0.276146
     3  H   -0.281891
     4  H    0.258667
     5  H    0.040702
     6  H    0.040702
     7  H   -0.281891
     8  H    0.258667
     9  H    0.258667
    10  H   -0.276146
 Sum of Mulliken charges =  -0.00000

 Dipole moment (field-independent basis, Debye):
    X=             -0.0000    Y=             -0.0000    Z=             -0.0000  Tot=              0.0000
 Quadrupole moment (field-independent basis, Debye-Ang):
   XX=            -12.8524   YY=            -11.2436   ZZ=            -20.6277
   XY=              0.0000   XZ=              0.0000   YZ=             -0.0000

 Normal termination of Gaussian 09 at Thu Feb  9 15:37:43 2017.
