 Gaussian 09, Revision E.01,
 Gaussian 09:  ES64L-G09RevE.01 30-Nov-2015

 ----------------------------------------------------------------------
 #rhf/gen scf(symm,tight,novaracc,noincfock,fulldiag) stable(crhf) geom
 =nocrowd test
 ----------------------------------------------------------------------

 hf stability analysis of h10 triangular lattice, y= 0.7172170849353916
 0
 ----------------------------------------------------------------------
 Symbolic Z-matrix:
 Charge =  0 Multiplicity = 1

                         Standard orientation:
 ---------------------------------------------------------------------
 Center     Atomic      Atomic             Coordinates (Angstroms)
 Number     Number       Type             X           Y           Z
 ---------------------------------------------------------------------
      1          1           0       -0.000000    0.717217    1.609974
      2          1           0       -0.000000    0.000000    2.414960
      3          1           0       -0.000000    0.000000    0.804987
      4          1           0       -0.000000   -0.717217    1.609974
      5          1           0       -0.000000    0.717217    0.000000
      6          1           0       -0.000000   -0.717217   -0.000000
      7          1           0        0.000000    0.000000   -0.804987
      8          1           0        0.000000    0.717217   -1.609974
      9          1           0       -0.000000   -0.717217   -1.609974
     10          1           0        0.000000    0.000000   -2.414960
 ---------------------------------------------------------------------

 SCF Done:  E(RHF) =  -4.80620812350     A.U. after    9 cycles
 E2 =    -0.1044580711D+00 EUMP2 =    -0.49106661945959D+01

 The electronic state is 1-AG.
 Alpha  occ. eigenvalues --   -0.84832  -0.73008  -0.52700  -0.36911  -0.25349
 Alpha virt. eigenvalues --   -0.03346   0.20287   0.28616   0.56078   0.63934

 Mulliken charges:
               1
     1  H    0.259550
     2  H   -0.277736
     3  H   -0.282075
     4  H    0.259550
     5  H    0.040711
     6  H    0.040711
     7  H   -0.282075
     8  H    0.259550
     9  H    0.259550
    10  H   -0.277736
 Sum of Mulliken charges =  -0.00000

 Dipole moment (field-independent basis, Debye):
    X=             -0.0000    Y=              0.0000    Z=              0.0000  Tot=              0.0000
 Quadrupole moment (field-independent basis, Debye-Ang):
   XX=            -12.8497   YY=            -11.2162   ZZ=            -20.6725
   XY=              0.0000   XZ=              0.0000   YZ=              0.0000

 Normal termination of Gaussian 09 at Thu Feb  9 15:37:38 2017.
