 Gaussian 09, Revision E.01,
 Gaussian 09:  ES64L-G09RevE.01 30-Nov-2015

 ----------------------------------------------------------------------
 #rhf/gen scf(symm,tight,novaracc,noincfock,fulldiag) stable(crhf) geom
 =nocrowd test
 ----------------------------------------------------------------------

 hf stability analysis of h10 triangular lattice, y= 0.2989624498377934
 1
 ----------------------------------------------------------------------
 Symbolic Z-matrix:
 Charge =  0 Multiplicity = 1

                         Standard orientation:
 ---------------------------------------------------------------------
 Center     Atomic      Atomic             Coordinates (Angstroms)
 Number     Number       Type             X           Y           Z
 ---------------------------------------------------------------------
      1          1           0        0.000000    0.298962    3.862360
      2          1           0        0.000000   -0.000000    5.793540
      3          1           0        0.000000   -0.000000    1.931180
      4          1           0       -0.000000   -0.298962    3.862360
      5          1           0       -0.000000    0.298962    0.000000
      6          1           0       -0.000000   -0.298962   -0.000000
      7          1           0        0.000000    0.000000   -1.931180
      8          1           0        0.000000    0.298962   -3.862360
      9          1           0       -0.000000   -0.298962   -3.862360
     10          1           0        0.000000    0.000000   -5.793540
 ---------------------------------------------------------------------

 SCF Done:  E(RHF) =  -4.65631737843     A.U. after    9 cycles
 E2 =    -0.3387236419D+00 EUMP2 =    -0.49950410203662D+01

 The electronic state is 1-AG.
 Alpha  occ. eigenvalues --   -0.70266  -0.69914  -0.68947  -0.27180  -0.24430
 Alpha virt. eigenvalues --   -0.09211  -0.06187   0.48777   0.49204   0.50557

 Mulliken charges:
               1
     1  H    0.021367
     2  H   -0.045099
     3  H   -0.002172
     4  H    0.021367
     5  H    0.004538
     6  H    0.004538
     7  H   -0.002172
     8  H    0.021367
     9  H    0.021367
    10  H   -0.045099
 Sum of Mulliken charges =  -0.00000

 Dipole moment (field-independent basis, Debye):
    X=             -0.0000    Y=             -0.0000    Z=              0.0000  Tot=              0.0000
 Quadrupole moment (field-independent basis, Debye-Ang):
   XX=            -13.6057   YY=            -12.6487   ZZ=            -23.4498
   XY=              0.0000   XZ=              0.0000   YZ=             -0.0000

 Normal termination of Gaussian 09 at Thu Feb  9 16:04:53 2017.
