 Gaussian 09, Revision E.01,
 Gaussian 09:  ES64L-G09RevE.01 30-Nov-2015

 ----------------------------------------------------------------------
 #rhf/gen scf(symm,tight,novaracc,noincfock,fulldiag) stable(crhf) geom
 =nocrowd test
 ----------------------------------------------------------------------

 hf stability analysis of h10 triangular lattice, y= 0.6536181925990977
 0
 ----------------------------------------------------------------------
 Symbolic Z-matrix:
 Charge =  0 Multiplicity = 1

                         Standard orientation:
 ---------------------------------------------------------------------
 Center     Atomic      Atomic             Coordinates (Angstroms)
 Number     Number       Type             X           Y           Z
 ---------------------------------------------------------------------
      1          1           0       -0.000000    0.653618    1.766629
      2          1           0       -0.000000    0.000000    2.649943
      3          1           0       -0.000000    0.000000    0.883314
      4          1           0       -0.000000   -0.653618    1.766629
      5          1           0       -0.000000    0.653618    0.000000
      6          1           0       -0.000000   -0.653618    0.000000
      7          1           0        0.000000   -0.000000   -0.883314
      8          1           0        0.000000    0.653618   -1.766629
      9          1           0       -0.000000   -0.653618   -1.766629
     10          1           0        0.000000   -0.000000   -2.649943
 ---------------------------------------------------------------------

 SCF Done:  E(RHF) =  -4.81889833239     A.U. after    9 cycles
 E2 =    -0.1194586177D+00 EUMP2 =    -0.49383569501217D+01

 The electronic state is 1-AG.
 Alpha  occ. eigenvalues --   -0.82611  -0.73257  -0.55164  -0.30256  -0.29134
 Alpha virt. eigenvalues --   -0.00314   0.18982   0.20072   0.49812   0.69969

 Mulliken charges:
               1
     1  H    0.207969
     2  H   -0.190692
     3  H   -0.256580
     4  H    0.207969
     5  H    0.031335
     6  H    0.031335
     7  H   -0.256580
     8  H    0.207969
     9  H    0.207969
    10  H   -0.190692
 Sum of Mulliken charges =   0.00000

 Dipole moment (field-independent basis, Debye):
    X=             -0.0000    Y=              0.0000    Z=             -0.0000  Tot=              0.0000
 Quadrupole moment (field-independent basis, Debye-Ang):
   XX=            -12.9936   YY=            -12.5745   ZZ=            -17.8732
   XY=              0.0000   XZ=              0.0000   YZ=             -0.0000

 Normal termination of Gaussian 09 at Thu Feb  9 15:42:06 2017.
