 Gaussian 09, Revision E.01,
 Gaussian 09:  ES64L-G09RevE.01 30-Nov-2015

 ----------------------------------------------------------------------
 #rhf/gen scf(symm,tight,novaracc,noincfock,fulldiag) stable(crhf) geom
 =nocrowd test
 ----------------------------------------------------------------------

 hf stability analysis of h10 triangular lattice, y= 0.2738333615898873
 0
 ----------------------------------------------------------------------
 Symbolic Z-matrix:
 Charge =  0 Multiplicity = 1

                         Standard orientation:
 ---------------------------------------------------------------------
 Center     Atomic      Atomic             Coordinates (Angstroms)
 Number     Number       Type             X           Y           Z
 ---------------------------------------------------------------------
      1          1           0        0.000000    0.273833    4.216800
      2          1           0        0.000000   -0.000000    6.325200
      3          1           0        0.000000   -0.000000    2.108400
      4          1           0       -0.000000   -0.273833    4.216800
      5          1           0        0.000000    0.273833    0.000000
      6          1           0       -0.000000   -0.273833   -0.000000
      7          1           0        0.000000    0.000000   -2.108400
      8          1           0        0.000000    0.273833   -4.216800
      9          1           0       -0.000000   -0.273833   -4.216800
     10          1           0        0.000000    0.000000   -6.325200
 ---------------------------------------------------------------------

 SCF Done:  E(RHF) =  -4.52740196440     A.U. after   10 cycles
 E2 =    -0.4297009732D+00 EUMP2 =    -0.49571029376465D+01

 The electronic state is 1-AG.
 Alpha  occ. eigenvalues --   -0.70789  -0.70618  -0.70116  -0.26059  -0.24291
 Alpha virt. eigenvalues --   -0.10995  -0.09095   0.54567   0.54803   0.55605

 Mulliken charges:
               1
     1  H    0.007845
     2  H   -0.021942
     3  H    0.006326
     4  H    0.007845
     5  H   -0.000074
     6  H   -0.000074
     7  H    0.006326
     8  H    0.007845
     9  H    0.007845
    10  H   -0.021942
 Sum of Mulliken charges =  -0.00000

 Dipole moment (field-independent basis, Debye):
    X=             -0.0000    Y=              0.0000    Z=              0.0000  Tot=              0.0000
 Quadrupole moment (field-independent basis, Debye-Ang):
   XX=            -13.5921   YY=            -12.7916   ZZ=            -20.1826
   XY=              0.0000   XZ=              0.0000   YZ=              0.0000

 Normal termination of Gaussian 09 at Thu Feb  9 16:05:48 2017.
