 Gaussian 09, Revision E.01,
 Gaussian 09:  ES64L-G09RevE.01 30-Nov-2015

 ----------------------------------------------------------------------
 #rhf/gen scf(symm,tight,novaracc,noincfock,fulldiag) stable(crhf) geom
 =nocrowd test
 ----------------------------------------------------------------------

 hf stability analysis of h10 triangular lattice, y= 0.6064756379129316
 9
 ----------------------------------------------------------------------
 Symbolic Z-matrix:
 Charge =  0 Multiplicity = 1

                         Standard orientation:
 ---------------------------------------------------------------------
 Center     Atomic      Atomic             Coordinates (Angstroms)
 Number     Number       Type             X           Y           Z
 ---------------------------------------------------------------------
      1          1           0       -0.000000    0.606476    1.903952
      2          1           0        0.000000    0.000000    2.855928
      3          1           0        0.000000    0.000000    0.951976
      4          1           0       -0.000000   -0.606476    1.903952
      5          1           0       -0.000000    0.606476    0.000000
      6          1           0       -0.000000   -0.606476   -0.000000
      7          1           0        0.000000    0.000000   -0.951976
      8          1           0        0.000000    0.606476   -1.903952
      9          1           0       -0.000000   -0.606476   -1.903952
     10          1           0        0.000000    0.000000   -2.855928
 ---------------------------------------------------------------------

 SCF Done:  E(RHF) =  -4.79404416752     A.U. after    9 cycles
 E2 =    -0.1366819508D+00 EUMP2 =    -0.49307261183318D+01

 The electronic state is 1-AG.
 Alpha  occ. eigenvalues --   -0.80437  -0.72847  -0.56439  -0.30865  -0.24563
 Alpha virt. eigenvalues --    0.02616   0.12075   0.20714   0.42551   0.68667

 Mulliken charges:
               1
     1  H    0.160918
     2  H   -0.117866
     3  H   -0.216329
     4  H    0.160918
     5  H    0.012359
     6  H    0.012359
     7  H   -0.216329
     8  H    0.160918
     9  H    0.160918
    10  H   -0.117866
 Sum of Mulliken charges =   0.00000

 Dipole moment (field-independent basis, Debye):
    X=             -0.0000    Y=             -0.0000    Z=             -0.0000  Tot=              0.0000
 Quadrupole moment (field-independent basis, Debye-Ang):
   XX=            -13.1014   YY=            -13.5116   ZZ=            -14.8880
   XY=              0.0000   XZ=              0.0000   YZ=             -0.0000

 Normal termination of Gaussian 09 at Thu Feb  9 15:45:35 2017.
