 Gaussian 09, Revision E.01,
 Gaussian 09:  ES64L-G09RevE.01 30-Nov-2015

 ----------------------------------------------------------------------
 #rhf/gen scf(symm,tight,novaracc,noincfock,fulldiag) stable(crhf) geom
 =nocrowd test
 ----------------------------------------------------------------------

 hf stability analysis of h10 triangular lattice, y= 0.2544802756397182
 6
 ----------------------------------------------------------------------
 Symbolic Z-matrix:
 Charge =  0 Multiplicity = 1

                         Standard orientation:
 ---------------------------------------------------------------------
 Center     Atomic      Atomic             Coordinates (Angstroms)
 Number     Number       Type             X           Y           Z
 ---------------------------------------------------------------------
      1          1           0        0.000000    0.254480    4.537485
      2          1           0       -0.000000    0.000000    6.806228
      3          1           0       -0.000000    0.000000    2.268743
      4          1           0       -0.000000   -0.254480    4.537485
      5          1           0        0.000000    0.254480   -0.000000
      6          1           0       -0.000000   -0.254480    0.000000
      7          1           0        0.000000   -0.000000   -2.268743
      8          1           0        0.000000    0.254480   -4.537485
      9          1           0       -0.000000   -0.254480   -4.537485
     10          1           0        0.000000   -0.000000   -6.806228
 ---------------------------------------------------------------------

 SCF Done:  E(RHF) =  -4.39840396144     A.U. after   10 cycles
 E2 =    -0.5101785644D+00 EUMP2 =    -0.49085825258586D+01

 The electronic state is 1-AG.
 Alpha  occ. eigenvalues --   -0.71574  -0.71474  -0.71211  -0.25280  -0.24104
 Alpha virt. eigenvalues --   -0.12062  -0.10819   0.59080   0.59221   0.59688

 Mulliken charges:
               1
     1  H    0.001942
     2  H   -0.010759
     3  H    0.008322
     4  H    0.001942
     5  H   -0.001447
     6  H   -0.001447
     7  H    0.008322
     8  H    0.001942
     9  H    0.001942
    10  H   -0.010759
 Sum of Mulliken charges =  -0.00000

 Dipole moment (field-independent basis, Debye):
    X=             -0.0000    Y=              0.0000    Z=              0.0000  Tot=              0.0000
 Quadrupole moment (field-independent basis, Debye-Ang):
   XX=            -13.5835   YY=            -12.8895   ZZ=            -18.1151
   XY=              0.0000   XZ=              0.0000   YZ=             -0.0000

 Normal termination of Gaussian 09 at Thu Feb  9 16:06:28 2017.
