 Gaussian 09, Revision E.01,
 Gaussian 09:  ES64L-G09RevE.01 30-Nov-2015

 ----------------------------------------------------------------------
 #rhf/gen scf(symm,tight,novaracc,noincfock,fulldiag) stable(crhf) geom
 =nocrowd test
 ----------------------------------------------------------------------

 hf stability analysis of h10 triangular lattice, y= 0.4496500805017584
 8
 ----------------------------------------------------------------------
 Symbolic Z-matrix:
 Charge =  0 Multiplicity = 1

                         Standard orientation:
 ---------------------------------------------------------------------
 Center     Atomic      Atomic             Coordinates (Angstroms)
 Number     Number       Type             X           Y           Z
 ---------------------------------------------------------------------
      1          1           0        0.000000    0.449650    2.567998
      2          1           0       -0.000000    0.000000    3.851997
      3          1           0       -0.000000    0.000000    1.283999
      4          1           0       -0.000000   -0.449650    2.567998
      5          1           0        0.000000    0.449650    0.000000
      6          1           0       -0.000000   -0.449650   -0.000000
      7          1           0        0.000000    0.000000   -1.283999
      8          1           0        0.000000    0.449650   -2.567998
      9          1           0       -0.000000   -0.449650   -2.567998
     10          1           0        0.000000    0.000000   -3.851997
 ---------------------------------------------------------------------

 SCF Done:  E(RHF) =  -4.89551713325     A.U. after    9 cycles
 E2 =    -0.1086623235D+00 EUMP2 =    -0.50041794567664D+01

 The electronic state is 1-AG.
 Alpha  occ. eigenvalues --   -0.75437  -0.71104  -0.64468  -0.33737  -0.21561
 Alpha virt. eigenvalues --    0.11002   0.18588   0.22731   0.26432   0.27828

 Mulliken charges:
               1
     1  H    0.179639
     2  H   -0.303355
     3  H   -0.147074
     4  H    0.179639
     5  H    0.091151
     6  H    0.091151
     7  H   -0.147074
     8  H    0.179639
     9  H    0.179639
    10  H   -0.303355
 Sum of Mulliken charges =  -0.00000

 Dipole moment (field-independent basis, Debye):
    X=             -0.0000    Y=              0.0000    Z=              0.0000  Tot=              0.0000
 Quadrupole moment (field-independent basis, Debye-Ang):
   XX=            -13.3131   YY=            -10.8506   ZZ=            -40.2694
   XY=              0.0000   XZ=              0.0000   YZ=              0.0000

 Normal termination of Gaussian 09 at Thu Feb  9 15:57:00 2017.
