 Gaussian 09, Revision E.01,
 Gaussian 09:  ES64L-G09RevE.01 30-Nov-2015

 ----------------------------------------------------------------------
 #rhf/gen scf(symm,tight,novaracc,noincfock,fulldiag) stable(crhf) geom
 =nocrowd test
 ----------------------------------------------------------------------

 hf stability analysis of h10 triangular lattice, y= 0.6199332824472831
 8
 ----------------------------------------------------------------------
 Symbolic Z-matrix:
 Charge =  0 Multiplicity = 1

                         Standard orientation:
 ---------------------------------------------------------------------
 Center     Atomic      Atomic             Coordinates (Angstroms)
 Number     Number       Type             X           Y           Z
 ---------------------------------------------------------------------
      1          1           0       -0.000000    0.619933    1.862621
      2          1           0       -0.000000    0.000000    2.793931
      3          1           0       -0.000000    0.000000    0.931310
      4          1           0       -0.000000   -0.619933    1.862621
      5          1           0       -0.000000    0.619933    0.000000
      6          1           0       -0.000000   -0.619933   -0.000000
      7          1           0        0.000000   -0.000000   -0.931310
      8          1           0        0.000000    0.619933   -1.862621
      9          1           0       -0.000000   -0.619933   -1.862621
     10          1           0        0.000000   -0.000000   -2.793931
 ---------------------------------------------------------------------

 SCF Done:  E(RHF) =  -4.80442517937     A.U. after    9 cycles
 E2 =    -0.1311114797D+00 EUMP2 =    -0.49355366590315D+01

 The electronic state is 1-AG.
 Alpha  occ. eigenvalues --   -0.81103  -0.73018  -0.56127  -0.30471  -0.26265
 Alpha virt. eigenvalues --    0.01711   0.14006   0.20452   0.44801   0.69619

 Mulliken charges:
               1
     1  H    0.175051
     2  H   -0.139286
     3  H   -0.229605
     4  H    0.175051
     5  H    0.018789
     6  H    0.018789
     7  H   -0.229605
     8  H    0.175051
     9  H    0.175051
    10  H   -0.139286
 Sum of Mulliken charges =   0.00000

 Dipole moment (field-independent basis, Debye):
    X=             -0.0000    Y=              0.0000    Z=              0.0000  Tot=              0.0000
 Quadrupole moment (field-independent basis, Debye-Ang):
   XX=            -13.0709   YY=            -13.2530   ZZ=            -15.8361
   XY=              0.0000   XZ=              0.0000   YZ=              0.0000

 Normal termination of Gaussian 09 at Thu Feb  9 15:44:35 2017.
