 Gaussian 09, Revision E.01,
 Gaussian 09:  ES64L-G09RevE.01 30-Nov-2015

 ----------------------------------------------------------------------
 #rhf/gen scf(symm,tight,novaracc,noincfock,fulldiag) stable(crhf) geom
 =nocrowd test
 ----------------------------------------------------------------------

 hf stability analysis of h10 triangular lattice, y= 0.5680406409913586
 5
 ----------------------------------------------------------------------
 Symbolic Z-matrix:
 Charge =  0 Multiplicity = 1

                         Standard orientation:
 ---------------------------------------------------------------------
 Center     Atomic      Atomic             Coordinates (Angstroms)
 Number     Number       Type             X           Y           Z
 ---------------------------------------------------------------------
      1          1           0        0.000000    0.568041    2.032778
      2          1           0        0.000000    0.000000    3.049167
      3          1           0        0.000000    0.000000    1.016389
      4          1           0       -0.000000   -0.568041    2.032778
      5          1           0        0.000000    0.568041    0.000000
      6          1           0       -0.000000   -0.568041   -0.000000
      7          1           0        0.000000   -0.000000   -1.016389
      8          1           0        0.000000    0.568041   -2.032778
      9          1           0       -0.000000   -0.568041   -2.032778
     10          1           0        0.000000   -0.000000   -3.049167
 ---------------------------------------------------------------------

 SCF Done:  E(RHF) =  -4.74827816761     A.U. after    9 cycles
 E2 =    -0.1561721439D+00 EUMP2 =    -0.49044503115379D+01

 The electronic state is 1-AG.
 Alpha  occ. eigenvalues --   -0.78345  -0.72126  -0.57090  -0.31543  -0.19328
 Alpha virt. eigenvalues --    0.05543   0.06796   0.21847   0.35592   0.63510

 Mulliken charges:
               1
     1  H    0.117828
     2  H   -0.054493
     3  H   -0.171052
     4  H    0.117828
     5  H   -0.010111
     6  H   -0.010111
     7  H   -0.171052
     8  H    0.117828
     9  H    0.117828
    10  H   -0.054493
 Sum of Mulliken charges =   0.00000

 Dipole moment (field-independent basis, Debye):
    X=             -0.0000    Y=             -0.0000    Z=              0.0000  Tot=              0.0000
 Quadrupole moment (field-independent basis, Debye-Ang):
   XX=            -13.1860   YY=            -14.2014   ZZ=            -11.6843
   XY=             -0.0000   XZ=              0.0000   YZ=              0.0000

 Normal termination of Gaussian 09 at Thu Feb  9 15:48:30 2017.
