 Gaussian 09, Revision E.01,
 Gaussian 09:  ES64L-G09RevE.01 30-Nov-2015

 ----------------------------------------------------------------------
 #rhf/gen scf(symm,tight,novaracc,noincfock,fulldiag) stable(crhf) geom
 =nocrowd test
 ----------------------------------------------------------------------

 hf stability analysis of h10 triangular lattice, y= 0.3023959355609886
 5
 ----------------------------------------------------------------------
 Symbolic Z-matrix:
 Charge =  0 Multiplicity = 1

                         Standard orientation:
 ---------------------------------------------------------------------
 Center     Atomic      Atomic             Coordinates (Angstroms)
 Number     Number       Type             X           Y           Z
 ---------------------------------------------------------------------
      1          1           0        0.000000    0.302396    3.818505
      2          1           0        0.000000    0.000000    5.727758
      3          1           0        0.000000    0.000000    1.909253
      4          1           0       -0.000000   -0.302396    3.818505
      5          1           0       -0.000000    0.302396    0.000000
      6          1           0       -0.000000   -0.302396   -0.000000
      7          1           0        0.000000    0.000000   -1.909253
      8          1           0        0.000000    0.302396   -3.818505
      9          1           0       -0.000000   -0.302396   -3.818505
     10          1           0        0.000000    0.000000   -5.727758
 ---------------------------------------------------------------------

 SCF Done:  E(RHF) =  -4.67115973578     A.U. after    9 cycles
 E2 =    -0.3276590451D+00 EUMP2 =    -0.49988187808615D+01

 The electronic state is 1-AG.
 Alpha  occ. eigenvalues --   -0.70238  -0.69851  -0.68809  -0.27342  -0.24439
 Alpha virt. eigenvalues --   -0.08930  -0.05727   0.47994   0.48454   0.49889

 Mulliken charges:
               1
     1  H    0.023735
     2  H   -0.049033
     3  H   -0.003900
     4  H    0.023735
     5  H    0.005463
     6  H    0.005463
     7  H   -0.003900
     8  H    0.023735
     9  H    0.023735
    10  H   -0.049033
 Sum of Mulliken charges =  -0.00000

 Dipole moment (field-independent basis, Debye):
    X=             -0.0000    Y=              0.0000    Z=              0.0000  Tot=              0.0000
 Quadrupole moment (field-independent basis, Debye-Ang):
   XX=            -13.6073   YY=            -12.6270   ZZ=            -23.9317
   XY=              0.0000   XZ=              0.0000   YZ=             -0.0000

 Normal termination of Gaussian 09 at Thu Feb  9 16:04:45 2017.
