 Gaussian 09, Revision E.01,
 Gaussian 09:  ES64L-G09RevE.01 30-Nov-2015

 ----------------------------------------------------------------------
 #rhf/gen scf(symm,tight,novaracc,noincfock,fulldiag) stable(crhf) geom
 =nocrowd test
 ----------------------------------------------------------------------

 hf stability analysis of h10 triangular lattice, y= 0.7260807556005937
 1
 ----------------------------------------------------------------------
 Symbolic Z-matrix:
 Charge =  0 Multiplicity = 1

                         Standard orientation:
 ---------------------------------------------------------------------
 Center     Atomic      Atomic             Coordinates (Angstroms)
 Number     Number       Type             X           Y           Z
 ---------------------------------------------------------------------
      1          1           0       -0.000000    0.726081    1.590320
      2          1           0       -0.000000    0.000000    2.385480
      3          1           0       -0.000000    0.000000    0.795160
      4          1           0       -0.000000   -0.726081    1.590320
      5          1           0       -0.000000    0.726081   -0.000000
      6          1           0       -0.000000   -0.726081    0.000000
      7          1           0        0.000000   -0.000000   -0.795160
      8          1           0        0.000000    0.726081   -1.590320
      9          1           0       -0.000000   -0.726081   -1.590320
     10          1           0        0.000000   -0.000000   -2.385480
 ---------------------------------------------------------------------

 SCF Done:  E(RHF) =  -4.80064297597     A.U. after    8 cycles
 E2 =    -0.1029534635D+00 EUMP2 =    -0.49035964395087D+01

 The electronic state is 1-AG.
 Alpha  occ. eigenvalues --   -0.85080  -0.72906  -0.52298  -0.37763  -0.24704
 Alpha virt. eigenvalues --   -0.03700   0.20401   0.29947   0.56578   0.62609

 Mulliken charges:
               1
     1  H    0.265605
     2  H   -0.288781
     3  H   -0.283013
     4  H    0.265605
     5  H    0.040584
     6  H    0.040584
     7  H   -0.283013
     8  H    0.265605
     9  H    0.265605
    10  H   -0.288781
 Sum of Mulliken charges =   0.00000

 Dipole moment (field-independent basis, Debye):
    X=             -0.0000    Y=              0.0000    Z=              0.0000  Tot=              0.0000
 Quadrupole moment (field-independent basis, Debye-Ang):
   XX=            -12.8301   YY=            -11.0230   ZZ=            -20.9776
   XY=              0.0000   XZ=              0.0000   YZ=              0.0000

 Normal termination of Gaussian 09 at Thu Feb  9 15:37:02 2017.
