 Gaussian 09, Revision E.01,
 Gaussian 09:  ES64L-G09RevE.01 30-Nov-2015

 ----------------------------------------------------------------------
 #rhf/gen scf(symm,tight,novaracc,noincfock,fulldiag) stable(crhf) geom
 =nocrowd test
 ----------------------------------------------------------------------

 hf stability analysis of h10 triangular lattice, y= 0.4866092985008095
 8
 ----------------------------------------------------------------------
 Symbolic Z-matrix:
 Charge =  0 Multiplicity = 1

                         Standard orientation:
 ---------------------------------------------------------------------
 Center     Atomic      Atomic             Coordinates (Angstroms)
 Number     Number       Type             X           Y           Z
 ---------------------------------------------------------------------
      1          1           0        0.000000    0.486609    2.372952
      2          1           0       -0.000000    0.000000    3.559428
      3          1           0       -0.000000    0.000000    1.186476
      4          1           0       -0.000000   -0.486609    2.372952
      5          1           0       -0.000000    0.486609    0.000000
      6          1           0       -0.000000   -0.486609    0.000000
      7          1           0        0.000000   -0.000000   -1.186476
      8          1           0        0.000000    0.486609   -2.372952
      9          1           0       -0.000000   -0.486609   -2.372952
     10          1           0        0.000000   -0.000000   -3.559428
 ---------------------------------------------------------------------

 SCF Done:  E(RHF) =  -4.85033503064     A.U. after    9 cycles
 E2 =    -0.9570408421D-01 EUMP2 =    -0.49460391148515D+01

 The electronic state is 1-AG.
 Alpha  occ. eigenvalues --   -0.77478  -0.71793  -0.63189  -0.34315  -0.19499
 Alpha virt. eigenvalues --    0.12703   0.17877   0.18347   0.24517   0.36906

 Mulliken charges:
               1
     1  H    0.219158
     2  H   -0.367817
     3  H   -0.187804
     4  H    0.219158
     5  H    0.117305
     6  H    0.117305
     7  H   -0.187804
     8  H    0.219158
     9  H    0.219158
    10  H   -0.367817
 Sum of Mulliken charges =  -0.00000

 Dipole moment (field-independent basis, Debye):
    X=             -0.0000    Y=              0.0000    Z=             -0.0000  Tot=              0.0000
 Quadrupole moment (field-independent basis, Debye-Ang):
   XX=            -13.1375   YY=            -10.1625   ZZ=            -41.7591
   XY=              0.0000   XZ=              0.0000   YZ=              0.0000

 Normal termination of Gaussian 09 at Thu Feb  9 15:54:27 2017.
