 Gaussian 09, Revision E.01,
 Gaussian 09:  ES64L-G09RevE.01 30-Nov-2015

 ----------------------------------------------------------------------
 #rhf/gen scf(symm,tight,novaracc,noincfock,fulldiag) stable(crhf) geom
 =nocrowd test
 ----------------------------------------------------------------------

 hf stability analysis of h10 triangular lattice, y= 0.5453026111479248
 9
 ----------------------------------------------------------------------
 Symbolic Z-matrix:
 Charge =  0 Multiplicity = 1

                         Standard orientation:
 ---------------------------------------------------------------------
 Center     Atomic      Atomic             Coordinates (Angstroms)
 Number     Number       Type             X           Y           Z
 ---------------------------------------------------------------------
      1          1           0       -0.000000    0.545303    2.117541
      2          1           0       -0.000000   -0.000000    3.176311
      3          1           0       -0.000000   -0.000000    1.058770
      4          1           0       -0.000000   -0.545303    2.117541
      5          1           0       -0.000000    0.545303    0.000000
      6          1           0       -0.000000   -0.545303   -0.000000
      7          1           0        0.000000    0.000000   -1.058770
      8          1           0        0.000000    0.545303   -2.117541
      9          1           0       -0.000000   -0.545303   -2.117541
     10          1           0        0.000000    0.000000   -3.176311
 ---------------------------------------------------------------------

 SCF Done:  E(RHF) =  -4.70874255372     A.U. after    9 cycles
 E2 =    -0.1707826429D+00 EUMP2 =    -0.48795251966226D+01

 The electronic state is 1-AG.
 Alpha  occ. eigenvalues --   -0.76989  -0.71538  -0.57308  -0.31632  -0.15945
 Alpha virt. eigenvalues --    0.03861   0.07539   0.22811   0.31254   0.59008

 Mulliken charges:
               1
     1  H    0.090651
     2  H   -0.015892
     3  H   -0.139383
     4  H    0.090651
     5  H   -0.026028
     6  H   -0.026028
     7  H   -0.139383
     8  H    0.090651
     9  H    0.090651
    10  H   -0.015892
 Sum of Mulliken charges =   0.00000

 Dipole moment (field-independent basis, Debye):
    X=             -0.0000    Y=              0.0000    Z=              0.0000  Tot=              0.0000
 Quadrupole moment (field-independent basis, Debye-Ang):
   XX=            -13.2328   YY=            -14.5705   ZZ=             -9.3953
   XY=             -0.0000   XZ=             -0.0000   YZ=              0.0000

 Normal termination of Gaussian 09 at Thu Feb  9 15:50:11 2017.
