 Gaussian 09, Revision E.01,
 Gaussian 09:  ES64L-G09RevE.01 30-Nov-2015

 ----------------------------------------------------------------------
 #rhf/gen scf(symm,tight,novaracc,noincfock,fulldiag) stable(crhf) geom
 =nocrowd test
 ----------------------------------------------------------------------

 hf stability analysis of h10 triangular lattice, y= 0.3974231564426181
 1
 ----------------------------------------------------------------------
 Symbolic Z-matrix:
 Charge =  0 Multiplicity = 1

                         Standard orientation:
 ---------------------------------------------------------------------
 Center     Atomic      Atomic             Coordinates (Angstroms)
 Number     Number       Type             X           Y           Z
 ---------------------------------------------------------------------
      1          1           0        0.000000    0.397423    2.905469
      2          1           0        0.000000    0.000000    4.358203
      3          1           0        0.000000    0.000000    1.452734
      4          1           0       -0.000000   -0.397423    2.905469
      5          1           0        0.000000    0.397423   -0.000000
      6          1           0       -0.000000   -0.397423    0.000000
      7          1           0        0.000000   -0.000000   -1.452734
      8          1           0        0.000000    0.397423   -2.905469
      9          1           0       -0.000000   -0.397423   -2.905469
     10          1           0        0.000000   -0.000000   -4.358203
 ---------------------------------------------------------------------

 SCF Done:  E(RHF) =  -4.89526125822     A.U. after    9 cycles
 E2 =    -0.1445531121D+00 EUMP2 =    -0.50398143703453D+01

 The electronic state is 1-AG.
 Alpha  occ. eigenvalues --   -0.72668  -0.70161  -0.65987  -0.31968  -0.23459
 Alpha virt. eigenvalues --    0.02345   0.12647   0.27926   0.30246   0.33996

 Mulliken charges:
               1
     1  H    0.120183
     2  H   -0.206032
     3  H   -0.089202
     4  H    0.120183
     5  H    0.054868
     6  H    0.054868
     7  H   -0.089202
     8  H    0.120183
     9  H    0.120183
    10  H   -0.206032
 Sum of Mulliken charges =   0.00000

 Dipole moment (field-independent basis, Debye):
    X=             -0.0000    Y=              0.0000    Z=              0.0000  Tot=              0.0000
 Quadrupole moment (field-independent basis, Debye-Ang):
   XX=            -13.5062   YY=            -11.6774   ZZ=            -36.3496
   XY=              0.0000   XZ=              0.0000   YZ=             -0.0000

 Normal termination of Gaussian 09 at Thu Feb  9 16:00:22 2017.
