 Gaussian 09, Revision E.01,
 Gaussian 09:  ES64L-G09RevE.01 30-Nov-2015

 ----------------------------------------------------------------------
 #rhf/gen scf(symm,tight,novaracc,noincfock,fulldiag) stable(crhf) geom
 =nocrowd test
 ----------------------------------------------------------------------

 hf stability analysis of h10 triangular lattice, y= 0.7337491795890599
 4
 ----------------------------------------------------------------------
 Symbolic Z-matrix:
 Charge =  0 Multiplicity = 1

                         Standard orientation:
 ---------------------------------------------------------------------
 Center     Atomic      Atomic             Coordinates (Angstroms)
 Number     Number       Type             X           Y           Z
 ---------------------------------------------------------------------
      1          1           0        0.000000    0.733749    1.573699
      2          1           0        0.000000    0.000000    2.360549
      3          1           0        0.000000    0.000000    0.786850
      4          1           0       -0.000000   -0.733749    1.573699
      5          1           0       -0.000000    0.733749    0.000000
      6          1           0       -0.000000   -0.733749   -0.000000
      7          1           0        0.000000    0.000000   -0.786850
      8          1           0        0.000000    0.733749   -1.573699
      9          1           0       -0.000000   -0.733749   -1.573699
     10          1           0        0.000000    0.000000   -2.360549
 ---------------------------------------------------------------------

 SCF Done:  E(RHF) =  -4.81708658264     A.U. after    8 cycles
 E2 =    -0.9850492280D-01 EUMP2 =    -0.49155915054386D+01

 The electronic state is 1-AG.
 Alpha  occ. eigenvalues --   -0.89926  -0.74378  -0.52872  -0.44159  -0.26275
 Alpha virt. eigenvalues --   -0.03913   0.14560   0.30973   0.54764   0.56400

 Mulliken charges:
               1
     1  H   -0.225315
     2  H    0.254271
     3  H    0.173896
     4  H   -0.225315
     5  H    0.022464
     6  H    0.022464
     7  H    0.173896
     8  H   -0.225315
     9  H   -0.225315
    10  H    0.254271
 Sum of Mulliken charges =  -0.00000

 Dipole moment (field-independent basis, Debye):
    X=              0.0000    Y=              0.0000    Z=             -0.0000  Tot=              0.0000
 Quadrupole moment (field-independent basis, Debye-Ang):
   XX=            -13.0187   YY=            -18.8748   ZZ=             -9.7560
   XY=             -0.0000   XZ=             -0.0000   YZ=              0.0000

 Normal termination of Gaussian 09 at Thu Feb  9 15:36:31 2017.
