 Gaussian 09, Revision E.01,
 Gaussian 09:  ES64L-G09RevE.01 30-Nov-2015

 ----------------------------------------------------------------------
 #rhf/gen scf(symm,tight,novaracc,noincfock,fulldiag) stable(crhf) geom
 =nocrowd test
 ----------------------------------------------------------------------

 hf stability analysis of h10 triangular lattice, y= 0.5936464617390019
 3
 ----------------------------------------------------------------------
 Symbolic Z-matrix:
 Charge =  0 Multiplicity = 1

                         Standard orientation:
 ---------------------------------------------------------------------
 Center     Atomic      Atomic             Coordinates (Angstroms)
 Number     Number       Type             X           Y           Z
 ---------------------------------------------------------------------
      1          1           0        0.000000    0.593646    1.945098
      2          1           0        0.000000    0.000000    2.917647
      3          1           0        0.000000    0.000000    0.972549
      4          1           0       -0.000000   -0.593646    1.945098
      5          1           0       -0.000000    0.593646    0.000000
      6          1           0       -0.000000   -0.593646   -0.000000
      7          1           0        0.000000    0.000000   -0.972549
      8          1           0        0.000000    0.593646   -1.945098
      9          1           0       -0.000000   -0.593646   -1.945098
     10          1           0        0.000000    0.000000   -2.917647
 ---------------------------------------------------------------------

 SCF Done:  E(RHF) =  -4.78151654205     A.U. after    9 cycles
 E2 =    -0.1425560664D+00 EUMP2 =    -0.49240726084412D+01

 The electronic state is 1-AG.
 Alpha  occ. eigenvalues --   -0.79769  -0.72645  -0.56696  -0.31166  -0.22880
 Alpha virt. eigenvalues --    0.03534   0.10272   0.21027   0.40303   0.67332

 Mulliken charges:
               1
     1  H    0.146966
     2  H   -0.097042
     3  H   -0.202403
     4  H    0.146966
     5  H    0.005514
     6  H    0.005514
     7  H   -0.202403
     8  H    0.146966
     9  H    0.146966
    10  H   -0.097042
 Sum of Mulliken charges =   0.00000

 Dipole moment (field-independent basis, Debye):
    X=             -0.0000    Y=              0.0000    Z=              0.0000  Tot=              0.0000
 Quadrupole moment (field-independent basis, Debye-Ang):
   XX=            -13.1302   YY=            -13.7504   ZZ=            -13.9042
   XY=              0.0000   XZ=              0.0000   YZ=              0.0000

 Normal termination of Gaussian 09 at Thu Feb  9 15:46:34 2017.
