 Gaussian 09, Revision E.01,
 Gaussian 09:  ES64L-G09RevE.01 30-Nov-2015

 ----------------------------------------------------------------------
 #rhf/gen scf(symm,tight,novaracc,noincfock,fulldiag) stable(crhf) geom
 =nocrowd test
 ----------------------------------------------------------------------

 hf stability analysis of h10 triangular lattice, y= 0.4344043754822976
 6
 ----------------------------------------------------------------------
 Symbolic Z-matrix:
 Charge =  0 Multiplicity = 1

                         Standard orientation:
 ---------------------------------------------------------------------
 Center     Atomic      Atomic             Coordinates (Angstroms)
 Number     Number       Type             X           Y           Z
 ---------------------------------------------------------------------
      1          1           0        0.000000    0.434404    2.658124
      2          1           0        0.000000   -0.000000    3.987185
      3          1           0        0.000000   -0.000000    1.329062
      4          1           0       -0.000000   -0.434404    2.658124
      5          1           0       -0.000000    0.434404    0.000000
      6          1           0       -0.000000   -0.434404   -0.000000
      7          1           0        0.000000    0.000000   -1.329062
      8          1           0        0.000000    0.434404   -2.658124
      9          1           0       -0.000000   -0.434404   -2.658124
     10          1           0        0.000000    0.000000   -3.987185
 ---------------------------------------------------------------------

 SCF Done:  E(RHF) =  -4.90349153371     A.U. after    8 cycles
 E2 =    -0.1165406542D+00 EUMP2 =    -0.50200321878860D+01

 The electronic state is 1-AG.
 Alpha  occ. eigenvalues --   -0.74594  -0.70814  -0.64942  -0.33327  -0.22233
 Alpha virt. eigenvalues --    0.08329   0.21187   0.22228   0.24753   0.29439

 Mulliken charges:
               1
     1  H    0.162605
     2  H   -0.275472
     3  H   -0.130141
     4  H    0.162605
     5  H    0.080403
     6  H    0.080403
     7  H   -0.130141
     8  H    0.162605
     9  H    0.162605
    10  H   -0.275472
 Sum of Mulliken charges =  -0.00000

 Dipole moment (field-independent basis, Debye):
    X=             -0.0000    Y=             -0.0000    Z=             -0.0000  Tot=              0.0000
 Quadrupole moment (field-independent basis, Debye-Ang):
   XX=            -13.3774   YY=            -11.1114   ZZ=            -39.3661
   XY=              0.0000   XZ=              0.0000   YZ=              0.0000

 Normal termination of Gaussian 09 at Thu Feb  9 15:58:01 2017.
