 Gaussian 09, Revision E.01,
 Gaussian 09:  ES64L-G09RevE.01 30-Nov-2015

 ----------------------------------------------------------------------
 #rhf/gen scf(symm,tight,novaracc,noincfock,fulldiag) stable(crhf) geom
 =nocrowd test
 ----------------------------------------------------------------------

 hf stability analysis of h10 triangular lattice, y= 0.4477609637842111
 5
 ----------------------------------------------------------------------
 Symbolic Z-matrix:
 Charge =  0 Multiplicity = 1

                         Standard orientation:
 ---------------------------------------------------------------------
 Center     Atomic      Atomic             Coordinates (Angstroms)
 Number     Number       Type             X           Y           Z
 ---------------------------------------------------------------------
      1          1           0        0.000000    0.447761    2.578833
      2          1           0        0.000000   -0.000000    3.868249
      3          1           0        0.000000   -0.000000    1.289416
      4          1           0       -0.000000   -0.447761    2.578833
      5          1           0        0.000000    0.447761    0.000000
      6          1           0       -0.000000   -0.447761   -0.000000
      7          1           0        0.000000    0.000000   -1.289416
      8          1           0        0.000000    0.447761   -2.578833
      9          1           0       -0.000000   -0.447761   -2.578833
     10          1           0        0.000000    0.000000   -3.868249
 ---------------------------------------------------------------------

 SCF Done:  E(RHF) =  -4.89685365381     A.U. after    9 cycles
 E2 =    -0.1095456061D+00 EUMP2 =    -0.50063992599326D+01

 The electronic state is 1-AG.
 Alpha  occ. eigenvalues --   -0.75332  -0.71068  -0.64528  -0.33692  -0.21650
 Alpha virt. eigenvalues --    0.10665   0.18904   0.22974   0.25905   0.28020

 Mulliken charges:
               1
     1  H    0.177549
     2  H   -0.299935
     3  H   -0.144978
     4  H    0.177549
     5  H    0.089816
     6  H    0.089816
     7  H   -0.144978
     8  H    0.177549
     9  H    0.177549
    10  H   -0.299935
 Sum of Mulliken charges =   0.00000

 Dipole moment (field-independent basis, Debye):
    X=             -0.0000    Y=             -0.0000    Z=              0.0000  Tot=              0.0000
 Quadrupole moment (field-independent basis, Debye-Ang):
   XX=            -13.3213   YY=            -10.8837   ZZ=            -40.1675
   XY=              0.0000   XZ=              0.0000   YZ=              0.0000

 Normal termination of Gaussian 09 at Thu Feb  9 15:57:08 2017.
