 Gaussian 09, Revision E.01,
 Gaussian 09:  ES64L-G09RevE.01 30-Nov-2015

 ----------------------------------------------------------------------
 #rhf/gen scf(symm,tight,novaracc,noincfock,fulldiag) stable(crhf) geom
 =nocrowd test
 ----------------------------------------------------------------------

 hf stability analysis of h10 triangular lattice, y= 0.4872139175685437
 6
 ----------------------------------------------------------------------
 Symbolic Z-matrix:
 Charge =  0 Multiplicity = 1

                         Standard orientation:
 ---------------------------------------------------------------------
 Center     Atomic      Atomic             Coordinates (Angstroms)
 Number     Number       Type             X           Y           Z
 ---------------------------------------------------------------------
      1          1           0        0.000000    0.487214    2.370007
      2          1           0        0.000000    0.000000    3.555011
      3          1           0        0.000000    0.000000    1.185004
      4          1           0       -0.000000   -0.487214    2.370007
      5          1           0       -0.000000    0.487214   -0.000000
      6          1           0       -0.000000   -0.487214    0.000000
      7          1           0        0.000000   -0.000000   -1.185004
      8          1           0        0.000000    0.487214   -2.370007
      9          1           0       -0.000000   -0.487214   -2.370007
     10          1           0        0.000000   -0.000000   -3.555011
 ---------------------------------------------------------------------

 SCF Done:  E(RHF) =  -4.84930507729     A.U. after    9 cycles
 E2 =    -0.9555124087D-01 EUMP2 =    -0.49448563181658D+01

 The electronic state is 1-AG.
 Alpha  occ. eigenvalues --   -0.77511  -0.71803  -0.63167  -0.34319  -0.19460
 Alpha virt. eigenvalues --    0.12611   0.17993   0.18281   0.24469   0.37077

 Mulliken charges:
               1
     1  H    0.219781
     2  H   -0.368829
     3  H   -0.188465
     4  H    0.219781
     5  H    0.117732
     6  H    0.117732
     7  H   -0.188465
     8  H    0.219781
     9  H    0.219781
    10  H   -0.368829
 Sum of Mulliken charges =  -0.00000

 Dipole moment (field-independent basis, Debye):
    X=             -0.0000    Y=              0.0000    Z=              0.0000  Tot=              0.0000
 Quadrupole moment (field-independent basis, Debye-Ang):
   XX=            -13.1344   YY=            -10.1507   ZZ=            -41.7763
   XY=              0.0000   XZ=              0.0000   YZ=             -0.0000

 Normal termination of Gaussian 09 at Thu Feb  9 15:54:24 2017.
