 Gaussian 09, Revision E.01,
 Gaussian 09:  ES64L-G09RevE.01 30-Nov-2015

 ----------------------------------------------------------------------
 #rhf/gen scf(symm,tight,novaracc,noincfock,fulldiag) stable(crhf) geom
 =nocrowd test
 ----------------------------------------------------------------------

 hf stability analysis of h10 triangular lattice, y= 0.3318666256799156
 5
 ----------------------------------------------------------------------
 Symbolic Z-matrix:
 Charge =  0 Multiplicity = 1

                         Standard orientation:
 ---------------------------------------------------------------------
 Center     Atomic      Atomic             Coordinates (Angstroms)
 Number     Number       Type             X           Y           Z
 ---------------------------------------------------------------------
      1          1           0        0.000000    0.331867    3.479411
      2          1           0        0.000000    0.000000    5.219117
      3          1           0        0.000000    0.000000    1.739706
      4          1           0       -0.000000   -0.331867    3.479411
      5          1           0        0.000000    0.331867    0.000000
      6          1           0       -0.000000   -0.331867    0.000000
      7          1           0        0.000000   -0.000000   -1.739706
      8          1           0        0.000000    0.331867   -3.479411
      9          1           0       -0.000000   -0.331867   -3.479411
     10          1           0        0.000000   -0.000000   -5.219117
 ---------------------------------------------------------------------

 SCF Done:  E(RHF) =  -4.77623294465     A.U. after    9 cycles
 E2 =    -0.2469623887D+00 EUMP2 =    -0.50231953333708D+01

 The electronic state is 1-AG.
 Alpha  occ. eigenvalues --   -0.70394  -0.69590  -0.67779  -0.28793  -0.24410
 Alpha virt. eigenvalues --   -0.06140  -0.01166   0.41396   0.42224   0.44382

 Mulliken charges:
               1
     1  H    0.048522
     2  H   -0.089530
     3  H   -0.023905
     4  H    0.048522
     5  H    0.016392
     6  H    0.016392
     7  H   -0.023905
     8  H    0.048522
     9  H    0.048522
    10  H   -0.089530
 Sum of Mulliken charges =  -0.00000

 Dipole moment (field-independent basis, Debye):
    X=             -0.0000    Y=             -0.0000    Z=             -0.0000  Tot=              0.0000
 Quadrupole moment (field-independent basis, Debye-Ang):
   XX=            -13.6102   YY=            -12.4101   ZZ=            -28.1843
   XY=              0.0000   XZ=              0.0000   YZ=             -0.0000

 Normal termination of Gaussian 09 at Thu Feb  9 16:03:32 2017.
