 Gaussian 09, Revision E.01,
 Gaussian 09:  ES64L-G09RevE.01 30-Nov-2015

 ----------------------------------------------------------------------
 #rhf/gen scf(symm,tight,novaracc,noincfock,fulldiag) stable(crhf) geom
 =nocrowd test
 ----------------------------------------------------------------------

 hf stability analysis of h10 triangular lattice, y= 0.5412083873838112
 7
 ----------------------------------------------------------------------
 Symbolic Z-matrix:
 Charge =  0 Multiplicity = 1

                         Standard orientation:
 ---------------------------------------------------------------------
 Center     Atomic      Atomic             Coordinates (Angstroms)
 Number     Number       Type             X           Y           Z
 ---------------------------------------------------------------------
      1          1           0        0.000000    0.541208    2.133560
      2          1           0        0.000000    0.000000    3.200340
      3          1           0        0.000000    0.000000    1.066780
      4          1           0       -0.000000   -0.541208    2.133560
      5          1           0        0.000000    0.541208   -0.000000
      6          1           0       -0.000000   -0.541208    0.000000
      7          1           0        0.000000   -0.000000   -1.066780
      8          1           0        0.000000    0.541208   -2.133560
      9          1           0       -0.000000   -0.541208   -2.133560
     10          1           0        0.000000   -0.000000   -3.200340
 ---------------------------------------------------------------------

 SCF Done:  E(RHF) =  -4.70054567065     A.U. after    9 cycles
 E2 =    -0.1737084919D+00 EUMP2 =    -0.48742541625969D+01

 The electronic state is 1-AG.
 Alpha  occ. eigenvalues --   -0.76737  -0.71420  -0.57334  -0.31624  -0.15312
 Alpha virt. eigenvalues --    0.03349   0.07921   0.23009   0.30465   0.58106

 Mulliken charges:
               1
     1  H    0.085638
     2  H   -0.008886
     3  H   -0.133304
     4  H    0.085638
     5  H   -0.029086
     6  H   -0.029086
     7  H   -0.133304
     8  H    0.085638
     9  H    0.085638
    10  H   -0.008886
 Sum of Mulliken charges =   0.00000

 Dipole moment (field-independent basis, Debye):
    X=             -0.0000    Y=             -0.0000    Z=             -0.0000  Tot=              0.0000
 Quadrupole moment (field-independent basis, Debye-Ang):
   XX=            -13.2409   YY=            -14.6336   ZZ=             -8.9486
   XY=             -0.0000   XZ=             -0.0000   YZ=             -0.0000

 Normal termination of Gaussian 09 at Thu Feb  9 15:50:28 2017.
