 Gaussian 09, Revision E.01,
 Gaussian 09:  ES64L-G09RevE.01 30-Nov-2015

 ----------------------------------------------------------------------
 #rhf/gen scf(symm,tight,novaracc,noincfock,fulldiag) stable(crhf) geom
 =nocrowd test
 ----------------------------------------------------------------------

 hf stability analysis of h10 triangular lattice, y= 0.5464714502241846
 4
 ----------------------------------------------------------------------
 Symbolic Z-matrix:
 Charge =  0 Multiplicity = 1

                         Standard orientation:
 ---------------------------------------------------------------------
 Center     Atomic      Atomic             Coordinates (Angstroms)
 Number     Number       Type             X           Y           Z
 ---------------------------------------------------------------------
      1          1           0        0.000000    0.546471    2.113012
      2          1           0        0.000000    0.000000    3.169517
      3          1           0        0.000000    0.000000    1.056506
      4          1           0       -0.000000   -0.546471    2.113012
      5          1           0        0.000000    0.546471   -0.000000
      6          1           0       -0.000000   -0.546471    0.000000
      7          1           0        0.000000   -0.000000   -1.056506
      8          1           0        0.000000    0.546471   -2.113012
      9          1           0       -0.000000   -0.546471   -2.113012
     10          1           0        0.000000   -0.000000   -3.169517
 ---------------------------------------------------------------------

 SCF Done:  E(RHF) =  -4.71102041157     A.U. after    9 cycles
 E2 =    -0.1699650712D+00 EUMP2 =    -0.48809854827517D+01

 The electronic state is 1-AG.
 Alpha  occ. eigenvalues --   -0.77061  -0.71571  -0.57299  -0.31633  -0.16125
 Alpha virt. eigenvalues --    0.04008   0.07431   0.22755   0.31479   0.59261

 Mulliken charges:
               1
     1  H    0.092076
     2  H   -0.017890
     3  H   -0.141097
     4  H    0.092076
     5  H   -0.025165
     6  H   -0.025165
     7  H   -0.141097
     8  H    0.092076
     9  H    0.092076
    10  H   -0.017890
 Sum of Mulliken charges =  -0.00000

 Dipole moment (field-independent basis, Debye):
    X=             -0.0000    Y=             -0.0000    Z=              0.0000  Tot=              0.0000
 Quadrupole moment (field-independent basis, Debye-Ang):
   XX=            -13.2305   YY=            -14.5523   ZZ=             -9.5208
   XY=             -0.0000   XZ=             -0.0000   YZ=             -0.0000

 Normal termination of Gaussian 09 at Thu Feb  9 15:50:05 2017.
