 Gaussian 09, Revision E.01,
 Gaussian 09:  ES64L-G09RevE.01 30-Nov-2015

 ----------------------------------------------------------------------
 #rhf/gen scf(symm,tight,novaracc,noincfock,fulldiag) stable(crhf) geom
 =nocrowd test
 ----------------------------------------------------------------------

 hf stability analysis of h10 triangular lattice, y= 0.2662511995880488
 8
 ----------------------------------------------------------------------
 Symbolic Z-matrix:
 Charge =  0 Multiplicity = 1

                         Standard orientation:
 ---------------------------------------------------------------------
 Center     Atomic      Atomic             Coordinates (Angstroms)
 Number     Number       Type             X           Y           Z
 ---------------------------------------------------------------------
      1          1           0        0.000000    0.266251    4.336884
      2          1           0       -0.000000    0.000000    6.505326
      3          1           0       -0.000000    0.000000    2.168442
      4          1           0       -0.000000   -0.266251    4.336884
      5          1           0        0.000000    0.266251   -0.000000
      6          1           0       -0.000000   -0.266251    0.000000
      7          1           0        0.000000   -0.000000   -2.168442
      8          1           0        0.000000    0.266251   -4.336884
      9          1           0       -0.000000   -0.266251   -4.336884
     10          1           0        0.000000   -0.000000   -6.505326
 ---------------------------------------------------------------------

 SCF Done:  E(RHF) =  -4.48038705609     A.U. after   11 cycles
 E2 =    -0.4602759445D+00 EUMP2 =    -0.49406630006070D+01

 The electronic state is 1-AG.
 Alpha  occ. eigenvalues --   -0.71058  -0.70920  -0.70524  -0.25745  -0.24226
 Alpha virt. eigenvalues --   -0.11442  -0.09821   0.56329   0.56524   0.57182

 Mulliken charges:
               1
     1  H    0.005092
     2  H   -0.016907
     3  H    0.007523
     4  H    0.005092
     5  H   -0.000800
     6  H   -0.000800
     7  H    0.007523
     8  H    0.005092
     9  H    0.005092
    10  H   -0.016907
 Sum of Mulliken charges =   0.00000

 Dipole moment (field-independent basis, Debye):
    X=             -0.0000    Y=              0.0000    Z=              0.0000  Tot=              0.0000
 Quadrupole moment (field-independent basis, Debye-Ang):
   XX=            -13.5883   YY=            -12.8308   ZZ=            -19.3186
   XY=              0.0000   XZ=              0.0000   YZ=             -0.0000

 Normal termination of Gaussian 09 at Thu Feb  9 16:06:04 2017.
