 Gaussian 09, Revision E.01,
 Gaussian 09:  ES64L-G09RevE.01 30-Nov-2015

 ----------------------------------------------------------------------
 #rhf/gen scf(symm,tight,novaracc,noincfock,fulldiag) stable(crhf) geom
 =nocrowd test
 ----------------------------------------------------------------------

 hf stability analysis of h10 triangular lattice, y= 0.3779943793519920
 4
 ----------------------------------------------------------------------
 Symbolic Z-matrix:
 Charge =  0 Multiplicity = 1

                         Standard orientation:
 ---------------------------------------------------------------------
 Center     Atomic      Atomic             Coordinates (Angstroms)
 Number     Number       Type             X           Y           Z
 ---------------------------------------------------------------------
      1          1           0        0.000000    0.377994    3.054809
      2          1           0        0.000000    0.000000    4.582213
      3          1           0        0.000000    0.000000    1.527404
      4          1           0       -0.000000   -0.377994    3.054809
      5          1           0        0.000000    0.377994   -0.000000
      6          1           0       -0.000000   -0.377994    0.000000
      7          1           0        0.000000   -0.000000   -1.527404
      8          1           0        0.000000    0.377994   -3.054809
      9          1           0       -0.000000   -0.377994   -3.054809
     10          1           0        0.000000   -0.000000   -4.582213
 ---------------------------------------------------------------------

 SCF Done:  E(RHF) =  -4.87456920995     A.U. after    9 cycles
 E2 =    -0.1661934262D+00 EUMP2 =    -0.50407626361121D+01

 The electronic state is 1-AG.
 Alpha  occ. eigenvalues --   -0.71791  -0.69884  -0.66501  -0.31091  -0.23890
 Alpha virt. eigenvalues --   -0.00475   0.08077   0.31717   0.33493   0.36772

 Mulliken charges:
               1
     1  H    0.097835
     2  H   -0.169572
     3  H   -0.068235
     4  H    0.097835
     5  H    0.042136
     6  H    0.042136
     7  H   -0.068235
     8  H    0.097835
     9  H    0.097835
    10  H   -0.169572
 Sum of Mulliken charges =  -0.00000

 Dipole moment (field-independent basis, Debye):
    X=             -0.0000    Y=             -0.0000    Z=              0.0000  Tot=              0.0000
 Quadrupole moment (field-independent basis, Debye-Ang):
   XX=            -13.5548   YY=            -11.9325   ZZ=            -34.2718
   XY=              0.0000   XZ=              0.0000   YZ=             -0.0000

 Normal termination of Gaussian 09 at Thu Feb  9 16:01:26 2017.
