 Gaussian 09, Revision E.01,
 Gaussian 09:  ES64L-G09RevE.01 30-Nov-2015

 ----------------------------------------------------------------------
 #rhf/gen scf(symm,tight,novaracc,noincfock,fulldiag) stable(crhf) geom
 =nocrowd test
 ----------------------------------------------------------------------

 hf stability analysis of h10 triangular lattice, y= 0.5429637039987178
 5
 ----------------------------------------------------------------------
 Symbolic Z-matrix:
 Charge =  0 Multiplicity = 1

                         Standard orientation:
 ---------------------------------------------------------------------
 Center     Atomic      Atomic             Coordinates (Angstroms)
 Number     Number       Type             X           Y           Z
 ---------------------------------------------------------------------
      1          1           0        0.000000    0.542964    2.126662
      2          1           0        0.000000    0.000000    3.189994
      3          1           0        0.000000    0.000000    1.063331
      4          1           0       -0.000000   -0.542964    2.126662
      5          1           0        0.000000    0.542964    0.000000
      6          1           0       -0.000000   -0.542964    0.000000
      7          1           0        0.000000   -0.000000   -1.063331
      8          1           0        0.000000    0.542964   -2.126662
      9          1           0       -0.000000   -0.542964   -2.126662
     10          1           0        0.000000   -0.000000   -3.189994
 ---------------------------------------------------------------------

 SCF Done:  E(RHF) =  -4.70410165723     A.U. after    9 cycles
 E2 =    -0.1724421257D+00 EUMP2 =    -0.48765437828979D+01

 The electronic state is 1-AG.
 Alpha  occ. eigenvalues --   -0.76845  -0.71471  -0.57323  -0.31628  -0.15585
 Alpha virt. eigenvalues --    0.03568   0.07756   0.22923   0.30803   0.58496

 Mulliken charges:
               1
     1  H    0.087791
     2  H   -0.011891
     3  H   -0.135924
     4  H    0.087791
     5  H   -0.027768
     6  H   -0.027768
     7  H   -0.135924
     8  H    0.087791
     9  H    0.087791
    10  H   -0.011891
 Sum of Mulliken charges =   0.00000

 Dipole moment (field-independent basis, Debye):
    X=             -0.0000    Y=             -0.0000    Z=              0.0000  Tot=              0.0000
 Quadrupole moment (field-independent basis, Debye-Ang):
   XX=            -13.2374   YY=            -14.6067   ZZ=             -9.1415
   XY=             -0.0000   XZ=             -0.0000   YZ=             -0.0000

 Normal termination of Gaussian 09 at Thu Feb  9 15:50:21 2017.
