 Gaussian 09, Revision E.01,
 Gaussian 09:  ES64L-G09RevE.01 30-Nov-2015

 ----------------------------------------------------------------------
 #rhf/gen scf(symm,tight,novaracc,noincfock,fulldiag) stable(crhf) geom
 =nocrowd test
 ----------------------------------------------------------------------

 hf stability analysis of h10 triangular lattice, y= 0.6530218537283970
 5
 ----------------------------------------------------------------------
 Symbolic Z-matrix:
 Charge =  0 Multiplicity = 1

                         Standard orientation:
 ---------------------------------------------------------------------
 Center     Atomic      Atomic             Coordinates (Angstroms)
 Number     Number       Type             X           Y           Z
 ---------------------------------------------------------------------
      1          1           0        0.000000    0.653022    1.768242
      2          1           0        0.000000    0.000000    2.652363
      3          1           0        0.000000    0.000000    0.884121
      4          1           0       -0.000000   -0.653022    1.768242
      5          1           0       -0.000000    0.653022   -0.000000
      6          1           0       -0.000000   -0.653022   -0.000000
      7          1           0        0.000000   -0.000000   -0.884121
      8          1           0        0.000000    0.653022   -1.768242
      9          1           0       -0.000000   -0.653022   -1.768242
     10          1           0        0.000000   -0.000000   -2.652363
 ---------------------------------------------------------------------

 SCF Done:  E(RHF) =  -4.81877767356     A.U. after    9 cycles
 E2 =    -0.1196394573D+00 EUMP2 =    -0.49384171308835D+01

 The electronic state is 1-AG.
 Alpha  occ. eigenvalues --   -0.82586  -0.73255  -0.55183  -0.30189  -0.29162
 Alpha virt. eigenvalues --   -0.00281   0.18892   0.20075   0.49732   0.69987

 Mulliken charges:
               1
     1  H    0.207418
     2  H   -0.189812
     3  H   -0.256183
     4  H    0.207418
     5  H    0.031158
     6  H    0.031158
     7  H   -0.256183
     8  H    0.207418
     9  H    0.207418
    10  H   -0.189812
 Sum of Mulliken charges =   0.00000

 Dipole moment (field-independent basis, Debye):
    X=             -0.0000    Y=              0.0000    Z=              0.0000  Tot=              0.0000
 Quadrupole moment (field-independent basis, Debye-Ang):
   XX=            -12.9950   YY=            -12.5869   ZZ=            -17.8409
   XY=              0.0000   XZ=              0.0000   YZ=             -0.0000

 Normal termination of Gaussian 09 at Thu Feb  9 15:42:09 2017.
