 Gaussian 09, Revision E.01,
 Gaussian 09:  ES64L-G09RevE.01 30-Nov-2015

 ----------------------------------------------------------------------
 #rhf/gen scf(symm,tight,novaracc,noincfock,fulldiag) stable(crhf) geom
 =nocrowd test
 ----------------------------------------------------------------------

 hf stability analysis of h10 triangular lattice, y= 0.5235896030510884
 8
 ----------------------------------------------------------------------
 Symbolic Z-matrix:
 Charge =  0 Multiplicity = 1

                         Standard orientation:
 ---------------------------------------------------------------------
 Center     Atomic      Atomic             Coordinates (Angstroms)
 Number     Number       Type             X           Y           Z
 ---------------------------------------------------------------------
      1          1           0        0.000000    0.523590    2.205354
      2          1           0        0.000000   -0.000000    3.308031
      3          1           0        0.000000   -0.000000    1.102677
      4          1           0       -0.000000   -0.523590    2.205354
      5          1           0        0.000000    0.523590    0.000000
      6          1           0       -0.000000   -0.523590   -0.000000
      7          1           0        0.000000    0.000000   -1.102677
      8          1           0        0.000000    0.523590   -2.205354
      9          1           0       -0.000000   -0.523590   -2.205354
     10          1           0        0.000000    0.000000   -3.308031
 ---------------------------------------------------------------------

 SCF Done:  E(RHF) =  -4.77137264547     A.U. after    8 cycles
 E2 =    -0.8912932815D-01 EUMP2 =    -0.48605019736212D+01

 The electronic state is 1-AG.
 Alpha  occ. eigenvalues --   -0.79401  -0.72376  -0.61709  -0.34268  -0.16806
 Alpha virt. eigenvalues --    0.07384   0.14598   0.21959   0.25132   0.47125

 Mulliken charges:
               1
     1  H    0.255751
     2  H   -0.427041
     3  H   -0.227678
     4  H    0.255751
     5  H    0.143218
     6  H    0.143218
     7  H   -0.227678
     8  H    0.255751
     9  H    0.255751
    10  H   -0.427041
 Sum of Mulliken charges =  -0.00000

 Dipole moment (field-independent basis, Debye):
    X=             -0.0000    Y=              0.0000    Z=             -0.0000  Tot=              0.0000
 Quadrupole moment (field-independent basis, Debye-Ang):
   XX=            -12.9437   YY=             -9.4084   ZZ=            -42.4603
   XY=              0.0000   XZ=              0.0000   YZ=              0.0000

 Normal termination of Gaussian 09 at Thu Feb  9 15:51:46 2017.
