 Gaussian 09, Revision E.01,
 Gaussian 09:  ES64L-G09RevE.01 30-Nov-2015

 ----------------------------------------------------------------------
 #rhf/gen scf(symm,tight,novaracc,noincfock,fulldiag) stable(crhf) geom
 =nocrowd test
 ----------------------------------------------------------------------

 hf stability analysis of h10 triangular lattice, y= 0.5651302228367602
 9
 ----------------------------------------------------------------------
 Symbolic Z-matrix:
 Charge =  0 Multiplicity = 1

                         Standard orientation:
 ---------------------------------------------------------------------
 Center     Atomic      Atomic             Coordinates (Angstroms)
 Number     Number       Type             X           Y           Z
 ---------------------------------------------------------------------
      1          1           0       -0.000000    0.565130    2.043247
      2          1           0       -0.000000   -0.000000    3.064870
      3          1           0       -0.000000   -0.000000    1.021623
      4          1           0       -0.000000   -0.565130    2.043247
      5          1           0        0.000000    0.565130    0.000000
      6          1           0       -0.000000   -0.565130   -0.000000
      7          1           0        0.000000    0.000000   -1.021623
      8          1           0        0.000000    0.565130   -2.043247
      9          1           0       -0.000000   -0.565130   -2.043247
     10          1           0        0.000000    0.000000   -3.064870
 ---------------------------------------------------------------------

 SCF Done:  E(RHF) =  -4.74376500623     A.U. after    9 cycles
 E2 =    -0.1578987074D+00 EUMP2 =    -0.49016637136302D+01

 The electronic state is 1-AG.
 Alpha  occ. eigenvalues --   -0.78176  -0.72057  -0.57125  -0.31567  -0.18907
 Alpha virt. eigenvalues --    0.05787   0.06412   0.21958   0.35042   0.62987

 Mulliken charges:
               1
     1  H    0.114415
     2  H   -0.049588
     3  H   -0.167197
     4  H    0.114415
     5  H   -0.012045
     6  H   -0.012045
     7  H   -0.167197
     8  H    0.114415
     9  H    0.114415
    10  H   -0.049588
 Sum of Mulliken charges =  -0.00000

 Dipole moment (field-independent basis, Debye):
    X=             -0.0000    Y=              0.0000    Z=             -0.0000  Tot=              0.0000
 Quadrupole moment (field-independent basis, Debye-Ang):
   XX=            -13.1921   YY=            -14.2504   ZZ=            -11.4087
   XY=             -0.0000   XZ=              0.0000   YZ=              0.0000

 Normal termination of Gaussian 09 at Thu Feb  9 15:48:43 2017.
