 Gaussian 09, Revision E.01,
 Gaussian 09:  ES64L-G09RevE.01 30-Nov-2015

 ----------------------------------------------------------------------
 #rhf/gen scf(symm,tight,novaracc,noincfock,fulldiag) stable(crhf) geom
 =nocrowd test
 ----------------------------------------------------------------------

 hf stability analysis of h10 triangular lattice, y= 0.3933198989211816
 9
 ----------------------------------------------------------------------
 Symbolic Z-matrix:
 Charge =  0 Multiplicity = 1

                         Standard orientation:
 ---------------------------------------------------------------------
 Center     Atomic      Atomic             Coordinates (Angstroms)
 Number     Number       Type             X           Y           Z
 ---------------------------------------------------------------------
      1          1           0        0.000000    0.393320    2.935780
      2          1           0        0.000000    0.000000    4.403669
      3          1           0        0.000000    0.000000    1.467890
      4          1           0       -0.000000   -0.393320    2.935780
      5          1           0        0.000000    0.393320   -0.000000
      6          1           0       -0.000000   -0.393320    0.000000
      7          1           0        0.000000   -0.000000   -1.467890
      8          1           0        0.000000    0.393320   -2.935780
      9          1           0       -0.000000   -0.393320   -2.935780
     10          1           0        0.000000   -0.000000   -4.403669
 ---------------------------------------------------------------------

 SCF Done:  E(RHF) =  -4.89185547414     A.U. after    9 cycles
 E2 =    -0.1486523190D+00 EUMP2 =    -0.50405077931246D+01

 The electronic state is 1-AG.
 Alpha  occ. eigenvalues --   -0.72473  -0.70098  -0.66097  -0.31791  -0.23562
 Alpha virt. eigenvalues --    0.01730   0.11652   0.28712   0.30910   0.34560

 Mulliken charges:
               1
     1  H    0.115442
     2  H   -0.198287
     3  H   -0.084721
     4  H    0.115442
     5  H    0.052123
     6  H    0.052123
     7  H   -0.084721
     8  H    0.115442
     9  H    0.115442
    10  H   -0.198287
 Sum of Mulliken charges =   0.00000

 Dipole moment (field-independent basis, Debye):
    X=             -0.0000    Y=              0.0000    Z=              0.0000  Tot=              0.0000
 Quadrupole moment (field-independent basis, Debye-Ang):
   XX=            -13.5177   YY=            -11.7339   ZZ=            -35.9390
   XY=              0.0000   XZ=              0.0000   YZ=             -0.0000

 Normal termination of Gaussian 09 at Thu Feb  9 16:00:36 2017.
