 Gaussian 09, Revision E.01,
 Gaussian 09:  ES64L-G09RevE.01 30-Nov-2015

 ----------------------------------------------------------------------
 #rhf/gen scf(symm,tight,novaracc,noincfock,fulldiag) stable(crhf) geom
 =nocrowd test
 ----------------------------------------------------------------------

 hf stability analysis of h10 triangular lattice, y= 0.5117594215854040
 0
 ----------------------------------------------------------------------
 Symbolic Z-matrix:
 Charge =  0 Multiplicity = 1

                         Standard orientation:
 ---------------------------------------------------------------------
 Center     Atomic      Atomic             Coordinates (Angstroms)
 Number     Number       Type             X           Y           Z
 ---------------------------------------------------------------------
      1          1           0        0.000000    0.511759    2.256335
      2          1           0        0.000000    0.000000    3.384502
      3          1           0        0.000000    0.000000    1.128167
      4          1           0       -0.000000   -0.511759    2.256335
      5          1           0        0.000000    0.511759   -0.000000
      6          1           0       -0.000000   -0.511759    0.000000
      7          1           0        0.000000   -0.000000   -1.128167
      8          1           0        0.000000    0.511759   -2.256335
      9          1           0       -0.000000   -0.511759   -2.256335
     10          1           0        0.000000   -0.000000   -3.384502
 ---------------------------------------------------------------------

 SCF Done:  E(RHF) =  -4.80006644568     A.U. after    9 cycles
 E2 =    -0.9065724104D-01 EUMP2 =    -0.48907236867130D+01

 The electronic state is 1-AG.
 Alpha  occ. eigenvalues --   -0.78806  -0.72207  -0.62205  -0.34352  -0.17736
 Alpha virt. eigenvalues --    0.09025   0.15735   0.22702   0.22786   0.43944

 Mulliken charges:
               1
     1  H    0.244386
     2  H   -0.408702
     3  H   -0.215059
     4  H    0.244386
     5  H    0.134989
     6  H    0.134989
     7  H   -0.215059
     8  H    0.244386
     9  H    0.244386
    10  H   -0.408702
 Sum of Mulliken charges =   0.00000

 Dipole moment (field-independent basis, Debye):
    X=             -0.0000    Y=              0.0000    Z=              0.0000  Tot=              0.0000
 Quadrupole moment (field-independent basis, Debye-Ang):
   XX=            -13.0070   YY=             -9.6558   ZZ=            -42.3073
   XY=              0.0000   XZ=              0.0000   YZ=             -0.0000

 Normal termination of Gaussian 09 at Thu Feb  9 15:52:38 2017.
