 Gaussian 09, Revision E.01,
 Gaussian 09:  ES64L-G09RevE.01 30-Nov-2015

 ----------------------------------------------------------------------
 #rhf/gen scf(symm,tight,novaracc,noincfock,fulldiag) stable(crhf) geom
 =nocrowd test
 ----------------------------------------------------------------------

 hf stability analysis of h10 triangular lattice, y= 0.5081941205937157
 1
 ----------------------------------------------------------------------
 Symbolic Z-matrix:
 Charge =  0 Multiplicity = 1

                         Standard orientation:
 ---------------------------------------------------------------------
 Center     Atomic      Atomic             Coordinates (Angstroms)
 Number     Number       Type             X           Y           Z
 ---------------------------------------------------------------------
      1          1           0        0.000000    0.508194    2.272164
      2          1           0        0.000000    0.000000    3.408246
      3          1           0        0.000000    0.000000    1.136082
      4          1           0       -0.000000   -0.508194    2.272164
      5          1           0        0.000000    0.508194    0.000000
      6          1           0       -0.000000   -0.508194    0.000000
      7          1           0        0.000000    0.000000   -1.136082
      8          1           0        0.000000    0.508194   -2.272164
      9          1           0       -0.000000   -0.508194   -2.272164
     10          1           0        0.000000    0.000000   -3.408246
 ---------------------------------------------------------------------

 SCF Done:  E(RHF) =  -4.80809681861     A.U. after    9 cycles
 E2 =    -0.9121844905D-01 EUMP2 =    -0.48993152676591D+01

 The electronic state is 1-AG.
 Alpha  occ. eigenvalues --   -0.78623  -0.72152  -0.62350  -0.34364  -0.18004
 Alpha virt. eigenvalues --    0.09530   0.16089   0.22083   0.22939   0.42964

 Mulliken charges:
               1
     1  H    0.240897
     2  H   -0.403062
     3  H   -0.211227
     4  H    0.240897
     5  H    0.132495
     6  H    0.132495
     7  H   -0.211227
     8  H    0.240897
     9  H    0.240897
    10  H   -0.403062
 Sum of Mulliken charges =   0.00000

 Dipole moment (field-independent basis, Debye):
    X=             -0.0000    Y=              0.0000    Z=             -0.0000  Tot=              0.0000
 Quadrupole moment (field-independent basis, Debye-Ang):
   XX=            -13.0259   YY=             -9.7293   ZZ=            -42.2489
   XY=              0.0000   XZ=              0.0000   YZ=              0.0000

 Normal termination of Gaussian 09 at Thu Feb  9 15:52:53 2017.
