 Gaussian 09, Revision E.01,
 Gaussian 09:  ES64L-G09RevE.01 30-Nov-2015

 ----------------------------------------------------------------------
 #rhf/gen scf(symm,tight,novaracc,noincfock,fulldiag) stable(crhf) geom
 =nocrowd test
 ----------------------------------------------------------------------

 hf stability analysis of h10 triangular lattice, y= 0.4841876090184593
 6
 ----------------------------------------------------------------------
 Symbolic Z-matrix:
 Charge =  0 Multiplicity = 1

                         Standard orientation:
 ---------------------------------------------------------------------
 Center     Atomic      Atomic             Coordinates (Angstroms)
 Number     Number       Type             X           Y           Z
 ---------------------------------------------------------------------
      1          1           0       -0.000000    0.484188    2.384821
      2          1           0       -0.000000    0.000000    3.577231
      3          1           0       -0.000000    0.000000    1.192410
      4          1           0       -0.000000   -0.484188    2.384821
      5          1           0       -0.000000    0.484188    0.000000
      6          1           0       -0.000000   -0.484188   -0.000000
      7          1           0        0.000000    0.000000   -1.192410
      8          1           0        0.000000    0.484188   -2.384821
      9          1           0       -0.000000   -0.484188   -2.384821
     10          1           0        0.000000    0.000000   -3.577231
 ---------------------------------------------------------------------

 SCF Done:  E(RHF) =  -4.85436953081     A.U. after    9 cycles
 E2 =    -0.9633314001D-01 EUMP2 =    -0.49507026708154D+01

 The electronic state is 1-AG.
 Alpha  occ. eigenvalues --   -0.77347  -0.71750  -0.63279  -0.34296  -0.19653
 Alpha virt. eigenvalues --    0.13070   0.17412   0.18613   0.24710   0.36217

 Mulliken charges:
               1
     1  H    0.216655
     2  H   -0.363747
     3  H   -0.185156
     4  H    0.216655
     5  H    0.115594
     6  H    0.115594
     7  H   -0.185156
     8  H    0.216655
     9  H    0.216655
    10  H   -0.363747
 Sum of Mulliken charges =  -0.00000

 Dipole moment (field-independent basis, Debye):
    X=             -0.0000    Y=              0.0000    Z=             -0.0000  Tot=              0.0000
 Quadrupole moment (field-independent basis, Debye-Ang):
   XX=            -13.1496   YY=            -10.2098   ZZ=            -41.6884
   XY=              0.0000   XZ=              0.0000   YZ=              0.0000

 Normal termination of Gaussian 09 at Thu Feb  9 15:54:37 2017.
