 Gaussian 09, Revision E.01,
 Gaussian 09:  ES64L-G09RevE.01 30-Nov-2015

 ----------------------------------------------------------------------
 #rhf/gen scf(symm,tight,novaracc,noincfock,fulldiag) stable(crhf) geom
 =nocrowd test
 ----------------------------------------------------------------------

 hf stability analysis of h10 triangular lattice, y= 0.7165872321299139
 3
 ----------------------------------------------------------------------
 Symbolic Z-matrix:
 Charge =  0 Multiplicity = 1

                         Standard orientation:
 ---------------------------------------------------------------------
 Center     Atomic      Atomic             Coordinates (Angstroms)
 Number     Number       Type             X           Y           Z
 ---------------------------------------------------------------------
      1          1           0        0.000000    0.716587    1.611389
      2          1           0        0.000000    0.000000    2.417083
      3          1           0        0.000000    0.000000    0.805694
      4          1           0       -0.000000   -0.716587    1.611389
      5          1           0       -0.000000    0.716587   -0.000000
      6          1           0       -0.000000   -0.716587    0.000000
      7          1           0        0.000000   -0.000000   -0.805694
      8          1           0        0.000000    0.716587   -1.611389
      9          1           0       -0.000000   -0.716587   -1.611389
     10          1           0        0.000000   -0.000000   -2.417083
 ---------------------------------------------------------------------

 SCF Done:  E(RHF) =  -4.80656975823     A.U. after    9 cycles
 E2 =    -0.1045698441D+00 EUMP2 =    -0.49111396023067D+01

 The electronic state is 1-AG.
 Alpha  occ. eigenvalues --   -0.84814  -0.73015  -0.52728  -0.36850  -0.25394
 Alpha virt. eigenvalues --   -0.03320   0.20280   0.28522   0.56039   0.64025

 Mulliken charges:
               1
     1  H    0.259109
     2  H   -0.276941
     3  H   -0.281984
     4  H    0.259109
     5  H    0.040707
     6  H    0.040707
     7  H   -0.281984
     8  H    0.259109
     9  H    0.259109
    10  H   -0.276941
 Sum of Mulliken charges =   0.00000

 Dipole moment (field-independent basis, Debye):
    X=             -0.0000    Y=              0.0000    Z=             -0.0000  Tot=              0.0000
 Quadrupole moment (field-independent basis, Debye-Ang):
   XX=            -12.8510   YY=            -11.2299   ZZ=            -20.6501
   XY=              0.0000   XZ=              0.0000   YZ=             -0.0000

 Normal termination of Gaussian 09 at Thu Feb  9 15:37:41 2017.
