 Gaussian 09, Revision E.01,
 Gaussian 09:  ES64L-G09RevE.01 30-Nov-2015

 ----------------------------------------------------------------------
 #rhf/gen scf(symm,tight,novaracc,noincfock,fulldiag) stable(crhf) geom
 =nocrowd test
 ----------------------------------------------------------------------

 hf stability analysis of h10 triangular lattice, y= 0.6117350346159162
 7
 ----------------------------------------------------------------------
 Symbolic Z-matrix:
 Charge =  0 Multiplicity = 1

                         Standard orientation:
 ---------------------------------------------------------------------
 Center     Atomic      Atomic             Coordinates (Angstroms)
 Number     Number       Type             X           Y           Z
 ---------------------------------------------------------------------
      1          1           0        0.000000    0.611735    1.887583
      2          1           0        0.000000   -0.000000    2.831374
      3          1           0        0.000000   -0.000000    0.943791
      4          1           0       -0.000000   -0.611735    1.887583
      5          1           0       -0.000000    0.611735    0.000000
      6          1           0       -0.000000   -0.611735   -0.000000
      7          1           0        0.000000    0.000000   -0.943791
      8          1           0        0.000000    0.611735   -1.887583
      9          1           0       -0.000000   -0.611735   -1.887583
     10          1           0        0.000000    0.000000   -2.831374
 ---------------------------------------------------------------------

 SCF Done:  E(RHF) =  -4.79842979256     A.U. after    9 cycles
 E2 =    -0.1344361905D+00 EUMP2 =    -0.49328659830579D+01

 The electronic state is 1-AG.
 Alpha  occ. eigenvalues --   -0.80702  -0.72919  -0.56322  -0.30721  -0.25236
 Alpha virt. eigenvalues --    0.02255   0.12826   0.20603   0.43445   0.69095

 Mulliken charges:
               1
     1  H    0.166505
     2  H   -0.126292
     3  H   -0.221682
     4  H    0.166505
     5  H    0.014965
     6  H    0.014965
     7  H   -0.221682
     8  H    0.166505
     9  H    0.166505
    10  H   -0.126292
 Sum of Mulliken charges =   0.00000

 Dipole moment (field-independent basis, Debye):
    X=             -0.0000    Y=             -0.0000    Z=             -0.0000  Tot=              0.0000
 Quadrupole moment (field-independent basis, Debye-Ang):
   XX=            -13.0895   YY=            -13.4115   ZZ=            -15.2684
   XY=              0.0000   XZ=              0.0000   YZ=             -0.0000

 Normal termination of Gaussian 09 at Thu Feb  9 15:45:12 2017.
