 Gaussian 09, Revision E.01,
 Gaussian 09:  ES64L-G09RevE.01 30-Nov-2015

 ----------------------------------------------------------------------
 #rhf/gen scf(symm,tight,novaracc,noincfock,fulldiag) stable(crhf) geom
 =nocrowd test
 ----------------------------------------------------------------------

 hf stability analysis of h10 triangular lattice, y= 0.6105656064210403
 0
 ----------------------------------------------------------------------
 Symbolic Z-matrix:
 Charge =  0 Multiplicity = 1

                         Standard orientation:
 ---------------------------------------------------------------------
 Center     Atomic      Atomic             Coordinates (Angstroms)
 Number     Number       Type             X           Y           Z
 ---------------------------------------------------------------------
      1          1           0       -0.000000    0.610566    1.891198
      2          1           0       -0.000000   -0.000000    2.836797
      3          1           0       -0.000000   -0.000000    0.945599
      4          1           0       -0.000000   -0.610566    1.891198
      5          1           0       -0.000000    0.610566    0.000000
      6          1           0       -0.000000   -0.610566   -0.000000
      7          1           0        0.000000    0.000000   -0.945599
      8          1           0        0.000000    0.610566   -1.891198
      9          1           0       -0.000000   -0.610566   -1.891198
     10          1           0        0.000000    0.000000   -2.836797
 ---------------------------------------------------------------------

 SCF Done:  E(RHF) =  -4.79749153461     A.U. after    9 cycles
 E2 =    -0.1349277264D+00 EUMP2 =    -0.49324192610526D+01

 The electronic state is 1-AG.
 Alpha  occ. eigenvalues --   -0.80643  -0.72904  -0.56349  -0.30754  -0.25087
 Alpha virt. eigenvalues --    0.02335   0.12658   0.20627   0.43248   0.69006

 Mulliken charges:
               1
     1  H    0.165269
     2  H   -0.124424
     3  H   -0.220510
     4  H    0.165269
     5  H    0.014395
     6  H    0.014395
     7  H   -0.220510
     8  H    0.165269
     9  H    0.165269
    10  H   -0.124424
 Sum of Mulliken charges =   0.00000

 Dipole moment (field-independent basis, Debye):
    X=             -0.0000    Y=              0.0000    Z=              0.0000  Tot=              0.0000
 Quadrupole moment (field-independent basis, Debye-Ang):
   XX=            -13.0922   YY=            -13.4338   ZZ=            -15.1850
   XY=              0.0000   XZ=              0.0000   YZ=              0.0000

 Normal termination of Gaussian 09 at Thu Feb  9 15:45:17 2017.
