 Gaussian 09, Revision E.01,
 Gaussian 09:  ES64L-G09RevE.01 30-Nov-2015

 ----------------------------------------------------------------------
 #rhf/gen scf(symm,tight,novaracc,noincfock,fulldiag) stable(crhf) geom
 =nocrowd test
 ----------------------------------------------------------------------

 hf stability analysis of h10 triangular lattice, y= 0.3723030219932718
 7
 ----------------------------------------------------------------------
 Symbolic Z-matrix:
 Charge =  0 Multiplicity = 1

                         Standard orientation:
 ---------------------------------------------------------------------
 Center     Atomic      Atomic             Coordinates (Angstroms)
 Number     Number       Type             X           Y           Z
 ---------------------------------------------------------------------
      1          1           0        0.000000    0.372303    3.101507
      2          1           0       -0.000000    0.000000    4.652261
      3          1           0       -0.000000    0.000000    1.550754
      4          1           0       -0.000000   -0.372303    3.101507
      5          1           0        0.000000    0.372303    0.000000
      6          1           0       -0.000000   -0.372303   -0.000000
      7          1           0        0.000000    0.000000   -1.550754
      8          1           0        0.000000    0.372303   -3.101507
      9          1           0       -0.000000   -0.372303   -3.101507
     10          1           0        0.000000    0.000000   -4.652261
 ---------------------------------------------------------------------

 SCF Done:  E(RHF) =  -4.86628013798     A.U. after    9 cycles
 E2 =    -0.1737057767D+00 EUMP2 =    -0.50399859146818D+01

 The electronic state is 1-AG.
 Alpha  occ. eigenvalues --   -0.71560  -0.69816  -0.66650  -0.30820  -0.23991
 Alpha virt. eigenvalues --   -0.01254   0.06809   0.32861   0.34493   0.37635

 Mulliken charges:
               1
     1  H    0.091374
     2  H   -0.159056
     3  H   -0.062252
     4  H    0.091374
     5  H    0.038559
     6  H    0.038559
     7  H   -0.062252
     8  H    0.091374
     9  H    0.091374
    10  H   -0.159056
 Sum of Mulliken charges =  -0.00000

 Dipole moment (field-independent basis, Debye):
    X=             -0.0000    Y=             -0.0000    Z=              0.0000  Tot=              0.0000
 Quadrupole moment (field-independent basis, Debye-Ang):
   XX=            -13.5663   YY=            -12.0013   ZZ=            -33.6009
   XY=              0.0000   XZ=              0.0000   YZ=             -0.0000

 Normal termination of Gaussian 09 at Thu Feb  9 16:01:42 2017.
