 Gaussian 09, Revision E.01,
 Gaussian 09:  ES64L-G09RevE.01 30-Nov-2015

 ----------------------------------------------------------------------
 #rhf/gen scf(symm,tight,novaracc,noincfock,fulldiag) stable(crhf) geom
 =nocrowd test
 ----------------------------------------------------------------------

 hf stability analysis of h10 triangular lattice, y= 0.4521619835073459
 3
 ----------------------------------------------------------------------
 Symbolic Z-matrix:
 Charge =  0 Multiplicity = 1

                         Standard orientation:
 ---------------------------------------------------------------------
 Center     Atomic      Atomic             Coordinates (Angstroms)
 Number     Number       Type             X           Y           Z
 ---------------------------------------------------------------------
      1          1           0       -0.000000    0.452162    2.553732
      2          1           0       -0.000000    0.000000    3.830598
      3          1           0       -0.000000    0.000000    1.276866
      4          1           0       -0.000000   -0.452162    2.553732
      5          1           0       -0.000000    0.452162   -0.000000
      6          1           0       -0.000000   -0.452162    0.000000
      7          1           0        0.000000   -0.000000   -1.276866
      8          1           0        0.000000    0.452162   -2.553732
      9          1           0       -0.000000   -0.452162   -2.553732
     10          1           0        0.000000   -0.000000   -3.830598
 ---------------------------------------------------------------------

 SCF Done:  E(RHF) =  -4.89358931438     A.U. after    9 cycles
 E2 =    -0.1075256744D+00 EUMP2 =    -0.50011149888084D+01

 The electronic state is 1-AG.
 Alpha  occ. eigenvalues --   -0.75576  -0.71152  -0.64387  -0.33796  -0.21440
 Alpha virt. eigenvalues --    0.11452   0.18169   0.22410   0.27134   0.27577

 Mulliken charges:
               1
     1  H    0.182408
     2  H   -0.307885
     3  H   -0.149859
     4  H    0.182408
     5  H    0.092927
     6  H    0.092927
     7  H   -0.149859
     8  H    0.182408
     9  H    0.182408
    10  H   -0.307885
 Sum of Mulliken charges =   0.00000

 Dipole moment (field-independent basis, Debye):
    X=             -0.0000    Y=              0.0000    Z=             -0.0000  Tot=              0.0000
 Quadrupole moment (field-independent basis, Debye-Ang):
   XX=            -13.3019   YY=            -10.8062   ZZ=            -40.4008
   XY=              0.0000   XZ=              0.0000   YZ=             -0.0000

 Normal termination of Gaussian 09 at Thu Feb  9 15:56:50 2017.
