 Gaussian 09, Revision E.01,
 Gaussian 09:  ES64L-G09RevE.01 30-Nov-2015

 ----------------------------------------------------------------------
 #rhf/gen scf(symm,tight,novaracc,noincfock,fulldiag) stable(crhf) geom
 =nocrowd test
 ----------------------------------------------------------------------

 hf stability analysis of h10 triangular lattice, y= 0.7065658449557921
 1
 ----------------------------------------------------------------------
 Symbolic Z-matrix:
 Charge =  0 Multiplicity = 1

                         Standard orientation:
 ---------------------------------------------------------------------
 Center     Atomic      Atomic             Coordinates (Angstroms)
 Number     Number       Type             X           Y           Z
 ---------------------------------------------------------------------
      1          1           0        0.000000    0.706566    1.634243
      2          1           0        0.000000   -0.000000    2.451365
      3          1           0        0.000000   -0.000000    0.817122
      4          1           0       -0.000000   -0.706566    1.634243
      5          1           0       -0.000000    0.706566    0.000000
      6          1           0       -0.000000   -0.706566   -0.000000
      7          1           0        0.000000    0.000000   -0.817122
      8          1           0        0.000000    0.706566   -1.634243
      9          1           0       -0.000000   -0.706566   -1.634243
     10          1           0        0.000000    0.000000   -2.451365
 ---------------------------------------------------------------------

 SCF Done:  E(RHF) =  -4.81171253176     A.U. after    9 cycles
 E2 =    -0.1064377774D+00 EUMP2 =    -0.49181503091186D+01

 The electronic state is 1-AG.
 Alpha  occ. eigenvalues --   -0.84515  -0.73110  -0.53166  -0.35866  -0.26089
 Alpha virt. eigenvalues --   -0.02900   0.20176   0.27007   0.55355   0.65409

 Mulliken charges:
               1
     1  H    0.251909
     2  H   -0.264116
     3  H   -0.280121
     4  H    0.251909
     5  H    0.040419
     6  H    0.040419
     7  H   -0.280121
     8  H    0.251909
     9  H    0.251909
    10  H   -0.264116
 Sum of Mulliken charges =  -0.00000

 Dipole moment (field-independent basis, Debye):
    X=             -0.0000    Y=              0.0000    Z=              0.0000  Tot=              0.0000
 Quadrupole moment (field-independent basis, Debye-Ang):
   XX=            -12.8733   YY=            -11.4477   ZZ=            -20.2818
   XY=              0.0000   XZ=              0.0000   YZ=             -0.0000

 Normal termination of Gaussian 09 at Thu Feb  9 15:38:22 2017.
