 Gaussian 09, Revision E.01,
 Gaussian 09:  ES64L-G09RevE.01 30-Nov-2015

 ----------------------------------------------------------------------
 #rhf/gen scf(symm,tight,novaracc,noincfock,fulldiag) stable(crhf) geom
 =nocrowd test
 ----------------------------------------------------------------------

 hf stability analysis of h10 triangular lattice, y= 0.5306529471566099
 3
 ----------------------------------------------------------------------
 Symbolic Z-matrix:
 Charge =  0 Multiplicity = 1

                         Standard orientation:
 ---------------------------------------------------------------------
 Center     Atomic      Atomic             Coordinates (Angstroms)
 Number     Number       Type             X           Y           Z
 ---------------------------------------------------------------------
      1          1           0        0.000000    0.530653    2.175999
      2          1           0        0.000000    0.000000    3.263999
      3          1           0        0.000000    0.000000    1.088000
      4          1           0       -0.000000   -0.530653    2.175999
      5          1           0       -0.000000    0.530653   -0.000000
      6          1           0       -0.000000   -0.530653    0.000000
      7          1           0        0.000000   -0.000000   -1.088000
      8          1           0        0.000000    0.530653   -2.175999
      9          1           0       -0.000000   -0.530653   -2.175999
     10          1           0        0.000000   -0.000000   -3.263999
 ---------------------------------------------------------------------

 SCF Done:  E(RHF) =  -4.75278235363     A.U. after    8 cycles
 E2 =    -0.8845225524D-01 EUMP2 =    -0.48412346088700D+01

 The electronic state is 1-AG.
 Alpha  occ. eigenvalues --   -0.79746  -0.72468  -0.61402  -0.34188  -0.16220
 Alpha virt. eigenvalues --    0.06430   0.13946   0.21548   0.26538   0.48964

 Mulliken charges:
               1
     1  H    0.262378
     2  H   -0.437714
     3  H   -0.235133
     4  H    0.262378
     5  H    0.148091
     6  H    0.148091
     7  H   -0.235133
     8  H    0.262378
     9  H    0.262378
    10  H   -0.437714
 Sum of Mulliken charges =   0.00000

 Dipole moment (field-independent basis, Debye):
    X=             -0.0000    Y=              0.0000    Z=             -0.0000  Tot=              0.0000
 Quadrupole moment (field-independent basis, Debye-Ang):
   XX=            -12.9055   YY=             -9.2582   ZZ=            -42.5238
   XY=              0.0000   XZ=              0.0000   YZ=             -0.0000

 Normal termination of Gaussian 09 at Thu Feb  9 15:51:15 2017.
