 Gaussian 09, Revision E.01,
 Gaussian 09:  ES64L-G09RevE.01 30-Nov-2015

 ----------------------------------------------------------------------
 #rhf/gen scf(symm,tight,novaracc,noincfock,fulldiag) stable(crhf) geom
 =nocrowd test
 ----------------------------------------------------------------------

 hf stability analysis of h10 triangular lattice, y= 0.7414871909265424
 7
 ----------------------------------------------------------------------
 Symbolic Z-matrix:
 Charge =  0 Multiplicity = 1

                         Standard orientation:
 ---------------------------------------------------------------------
 Center     Atomic      Atomic             Coordinates (Angstroms)
 Number     Number       Type             X           Y           Z
 ---------------------------------------------------------------------
      1          1           0        0.000000    0.741487    1.557276
      2          1           0        0.000000   -0.000000    2.335915
      3          1           0        0.000000   -0.000000    0.778638
      4          1           0       -0.000000   -0.741487    1.557276
      5          1           0       -0.000000    0.741487    0.000000
      6          1           0       -0.000000   -0.741487   -0.000000
      7          1           0        0.000000    0.000000   -0.778638
      8          1           0        0.000000    0.741487   -1.557276
      9          1           0       -0.000000   -0.741487   -1.557276
     10          1           0        0.000000    0.000000   -2.335915
 ---------------------------------------------------------------------

 SCF Done:  E(RHF) =  -4.82964338157     A.U. after    8 cycles
 E2 =    -0.9816188976D-01 EUMP2 =    -0.49278052713272D+01

 The electronic state is 1-AG.
 Alpha  occ. eigenvalues --   -0.90270  -0.74484  -0.52587  -0.44822  -0.26697
 Alpha virt. eigenvalues --   -0.03344   0.14719   0.32080   0.54962   0.55095

 Mulliken charges:
               1
     1  H   -0.220372
     2  H    0.246432
     3  H    0.166855
     4  H   -0.220372
     5  H    0.027457
     6  H    0.027457
     7  H    0.166855
     8  H   -0.220372
     9  H   -0.220372
    10  H    0.246432
 Sum of Mulliken charges =   0.00000

 Dipole moment (field-independent basis, Debye):
    X=              0.0000    Y=             -0.0000    Z=              0.0000  Tot=              0.0000
 Quadrupole moment (field-independent basis, Debye-Ang):
   XX=            -13.0141   YY=            -18.7849   ZZ=            -10.1609
   XY=             -0.0000   XZ=             -0.0000   YZ=              0.0000

 Normal termination of Gaussian 09 at Thu Feb  9 15:36:00 2017.
