 Gaussian 09, Revision E.01,
 Gaussian 09:  ES64L-G09RevE.01 30-Nov-2015

 ----------------------------------------------------------------------
 #rhf/gen scf(symm,tight,novaracc,noincfock,fulldiag) stable(crhf) geom
 =nocrowd test
 ----------------------------------------------------------------------

 hf stability analysis of h10 triangular lattice, y= 0.6006400760937612
 4
 ----------------------------------------------------------------------
 Symbolic Z-matrix:
 Charge =  0 Multiplicity = 1

                         Standard orientation:
 ---------------------------------------------------------------------
 Center     Atomic      Atomic             Coordinates (Angstroms)
 Number     Number       Type             X           Y           Z
 ---------------------------------------------------------------------
      1          1           0        0.000000    0.600640    1.922450
      2          1           0        0.000000    0.000000    2.883675
      3          1           0        0.000000    0.000000    0.961225
      4          1           0       -0.000000   -0.600640    1.922450
      5          1           0       -0.000000    0.600640   -0.000000
      6          1           0       -0.000000   -0.600640    0.000000
      7          1           0        0.000000   -0.000000   -0.961225
      8          1           0        0.000000    0.600640   -1.922450
      9          1           0       -0.000000   -0.600640   -1.922450
     10          1           0        0.000000   -0.000000   -2.883675
 ---------------------------------------------------------------------

 SCF Done:  E(RHF) =  -4.78867228897     A.U. after    9 cycles
 E2 =    -0.1392822020D+00 EUMP2 =    -0.49279544910114D+01

 The electronic state is 1-AG.
 Alpha  occ. eigenvalues --   -0.80137  -0.72760  -0.56561  -0.31011  -0.23805
 Alpha virt. eigenvalues --    0.03027   0.11250   0.20848   0.41540   0.68110

 Mulliken charges:
               1
     1  H    0.154628
     2  H   -0.108440
     3  H   -0.210146
     4  H    0.154628
     5  H    0.009330
     6  H    0.009330
     7  H   -0.210146
     8  H    0.154628
     9  H    0.154628
    10  H   -0.108440
 Sum of Mulliken charges =  -0.00000

 Dipole moment (field-independent basis, Debye):
    X=             -0.0000    Y=              0.0000    Z=             -0.0000  Tot=              0.0000
 Quadrupole moment (field-independent basis, Debye-Ang):
   XX=            -13.1146   YY=            -13.6212   ZZ=            -14.4505
   XY=              0.0000   XZ=              0.0000   YZ=             -0.0000

 Normal termination of Gaussian 09 at Thu Feb  9 15:46:02 2017.
