 Gaussian 09, Revision E.01,
 Gaussian 09:  ES64L-G09RevE.01 30-Nov-2015

 ----------------------------------------------------------------------
 #rhf/gen scf(symm,tight,novaracc,noincfock,fulldiag) stable(crhf) geom
 =nocrowd test
 ----------------------------------------------------------------------

 hf stability analysis of h10 triangular lattice, y= 0.7210052279144877
 3
 ----------------------------------------------------------------------
 Symbolic Z-matrix:
 Charge =  0 Multiplicity = 1

                         Standard orientation:
 ---------------------------------------------------------------------
 Center     Atomic      Atomic             Coordinates (Angstroms)
 Number     Number       Type             X           Y           Z
 ---------------------------------------------------------------------
      1          1           0        0.000000    0.721005    1.601515
      2          1           0        0.000000   -0.000000    2.402272
      3          1           0        0.000000   -0.000000    0.800757
      4          1           0       -0.000000   -0.721005    1.601515
      5          1           0       -0.000000    0.721005    0.000000
      6          1           0       -0.000000   -0.721005   -0.000000
      7          1           0        0.000000    0.000000   -0.800757
      8          1           0        0.000000    0.721005   -1.601515
      9          1           0       -0.000000   -0.721005   -1.601515
     10          1           0        0.000000    0.000000   -2.402272
 ---------------------------------------------------------------------

 SCF Done:  E(RHF) =  -4.80393817454     A.U. after    8 cycles
 E2 =    -0.1037995344D+00 EUMP2 =    -0.49077377089247D+01

 The electronic state is 1-AG.
 Alpha  occ. eigenvalues --   -0.84940  -0.72966  -0.52529  -0.37277  -0.25076
 Alpha virt. eigenvalues --   -0.03499   0.20334   0.29186   0.56303   0.63377

 Mulliken charges:
               1
     1  H    0.262171
     2  H   -0.282488
     3  H   -0.282551
     4  H    0.262171
     5  H    0.040697
     6  H    0.040697
     7  H   -0.282551
     8  H    0.262171
     9  H    0.262171
    10  H   -0.282488
 Sum of Mulliken charges =  -0.00000

 Dipole moment (field-independent basis, Debye):
    X=             -0.0000    Y=             -0.0000    Z=              0.0000  Tot=              0.0000
 Quadrupole moment (field-independent basis, Debye-Ang):
   XX=            -12.8413   YY=            -11.1336   ZZ=            -20.8050
   XY=              0.0000   XZ=              0.0000   YZ=             -0.0000

 Normal termination of Gaussian 09 at Thu Feb  9 15:37:23 2017.
