 Gaussian 09, Revision E.01,
 Gaussian 09:  ES64L-G09RevE.01 30-Nov-2015

 ----------------------------------------------------------------------
 #rhf/gen scf(symm,tight,novaracc,noincfock,fulldiag) stable(crhf) geom
 =nocrowd test
 ----------------------------------------------------------------------

 hf stability analysis of h10 triangular lattice, y= 0.7565274741654608
 4
 ----------------------------------------------------------------------
 Symbolic Z-matrix:
 Charge =  0 Multiplicity = 1

                         Standard orientation:
 ---------------------------------------------------------------------
 Center     Atomic      Atomic             Coordinates (Angstroms)
 Number     Number       Type             X           Y           Z
 ---------------------------------------------------------------------
      1          1           0       -0.000000    0.756527    1.526317
      2          1           0        0.000000    0.000000    2.289475
      3          1           0        0.000000    0.000000    0.763158
      4          1           0       -0.000000   -0.756527    1.526317
      5          1           0       -0.000000    0.756527    0.000000
      6          1           0       -0.000000   -0.756527   -0.000000
      7          1           0        0.000000    0.000000   -0.763158
      8          1           0        0.000000    0.756527   -1.526317
      9          1           0       -0.000000   -0.756527   -1.526317
     10          1           0        0.000000    0.000000   -2.289475
 ---------------------------------------------------------------------

 SCF Done:  E(RHF) =  -4.85244839237     A.U. after    8 cycles
 E2 =    -0.9758193003D-01 EUMP2 =    -0.49500303224009D+01

 The electronic state is 1-AG.
 Alpha  occ. eigenvalues --   -0.90908  -0.74656  -0.52012  -0.46070  -0.27472
 Alpha virt. eigenvalues --   -0.02192   0.15073   0.34210   0.52452   0.55159

 Mulliken charges:
               1
     1  H   -0.211024
     2  H    0.231264
     3  H    0.154366
     4  H   -0.211024
     5  H    0.036418
     6  H    0.036418
     7  H    0.154366
     8  H   -0.211024
     9  H   -0.211024
    10  H    0.231264
 Sum of Mulliken charges =  -0.00000

 Dipole moment (field-independent basis, Debye):
    X=              0.0000    Y=             -0.0000    Z=              0.0000  Tot=              0.0000
 Quadrupole moment (field-independent basis, Debye-Ang):
   XX=            -13.0049   YY=            -18.6068   ZZ=            -10.9147
   XY=             -0.0000   XZ=             -0.0000   YZ=             -0.0000

 Normal termination of Gaussian 09 at Thu Feb  9 15:34:59 2017.
