 Gaussian 09, Revision E.01,
 Gaussian 09:  ES64L-G09RevE.01 30-Nov-2015

 ----------------------------------------------------------------------
 #rhf/gen scf(symm,tight,novaracc,noincfock,fulldiag) stable(crhf) geom
 =nocrowd test
 ----------------------------------------------------------------------

 hf stability analysis of h10 triangular lattice, y= 0.2902176732539744
 1
 ----------------------------------------------------------------------
 Symbolic Z-matrix:
 Charge =  0 Multiplicity = 1

                         Standard orientation:
 ---------------------------------------------------------------------
 Center     Atomic      Atomic             Coordinates (Angstroms)
 Number     Number       Type             X           Y           Z
 ---------------------------------------------------------------------
      1          1           0        0.000000    0.290218    3.978740
      2          1           0        0.000000    0.000000    5.968109
      3          1           0        0.000000    0.000000    1.989370
      4          1           0       -0.000000   -0.290218    3.978740
      5          1           0       -0.000000    0.290218   -0.000000
      6          1           0       -0.000000   -0.290218    0.000000
      7          1           0        0.000000   -0.000000   -1.989370
      8          1           0        0.000000    0.290218   -3.978740
      9          1           0       -0.000000   -0.290218   -3.978740
     10          1           0        0.000000   -0.000000   -5.968109
 ---------------------------------------------------------------------

 SCF Done:  E(RHF) =  -4.61569763570     A.U. after    9 cycles
 E2 =    -0.3684402373D+00 EUMP2 =    -0.49841378730113D+01

 The electronic state is 1-AG.
 Alpha  occ. eigenvalues --   -0.70384  -0.70109  -0.69323  -0.26777  -0.24396
 Alpha virt. eigenvalues --   -0.09886  -0.07289   0.50782   0.51133   0.52283

 Mulliken charges:
               1
     1  H    0.015889
     2  H   -0.035903
     3  H    0.001611
     4  H    0.015889
     5  H    0.002513
     6  H    0.002513
     7  H    0.001611
     8  H    0.015889
     9  H    0.015889
    10  H   -0.035903
 Sum of Mulliken charges =  -0.00000

 Dipole moment (field-independent basis, Debye):
    X=             -0.0000    Y=              0.0000    Z=             -0.0000  Tot=              0.0000
 Quadrupole moment (field-independent basis, Debye-Ang):
   XX=            -13.6012   YY=            -12.7013   ZZ=            -22.2541
   XY=              0.0000   XZ=              0.0000   YZ=             -0.0000

 Normal termination of Gaussian 09 at Thu Feb  9 16:05:13 2017.
