 Gaussian 09, Revision E.01,
 Gaussian 09:  ES64L-G09RevE.01 30-Nov-2015

 ----------------------------------------------------------------------
 #rhf/gen scf(symm,tight,novaracc,noincfock,fulldiag) stable(crhf) geom
 =nocrowd test
 ----------------------------------------------------------------------

 hf stability analysis of h10 triangular lattice, y= 0.6512341754231607
 5
 ----------------------------------------------------------------------
 Symbolic Z-matrix:
 Charge =  0 Multiplicity = 1

                         Standard orientation:
 ---------------------------------------------------------------------
 Center     Atomic      Atomic             Coordinates (Angstroms)
 Number     Number       Type             X           Y           Z
 ---------------------------------------------------------------------
      1          1           0        0.000000    0.651234    1.773096
      2          1           0        0.000000   -0.000000    2.659644
      3          1           0        0.000000   -0.000000    0.886548
      4          1           0       -0.000000   -0.651234    1.773096
      5          1           0       -0.000000    0.651234    0.000000
      6          1           0       -0.000000   -0.651234   -0.000000
      7          1           0        0.000000    0.000000   -0.886548
      8          1           0        0.000000    0.651234   -1.773096
      9          1           0       -0.000000   -0.651234   -1.773096
     10          1           0        0.000000    0.000000   -2.659644
 ---------------------------------------------------------------------

 SCF Done:  E(RHF) =  -4.81838766390     A.U. after    9 cycles
 E2 =    -0.1201866818D+00 EUMP2 =    -0.49385743456707D+01

 The electronic state is 1-AG.
 Alpha  occ. eigenvalues --   -0.82512  -0.73249  -0.55240  -0.29985  -0.29244
 Alpha virt. eigenvalues --   -0.00181   0.18624   0.20086   0.49491   0.70037

 Mulliken charges:
               1
     1  H    0.205761
     2  H   -0.187167
     3  H   -0.254973
     4  H    0.205761
     5  H    0.030618
     6  H    0.030618
     7  H   -0.254973
     8  H    0.205761
     9  H    0.205761
    10  H   -0.187167
 Sum of Mulliken charges =   0.00000

 Dipole moment (field-independent basis, Debye):
    X=             -0.0000    Y=              0.0000    Z=              0.0000  Tot=              0.0000
 Quadrupole moment (field-independent basis, Debye-Ang):
   XX=            -12.9991   YY=            -12.6238   ZZ=            -17.7435
   XY=              0.0000   XZ=              0.0000   YZ=              0.0000

 Normal termination of Gaussian 09 at Thu Feb  9 15:42:16 2017.
