 Gaussian 09, Revision E.01,
 Gaussian 09:  ES64L-G09RevE.01 30-Nov-2015

 ----------------------------------------------------------------------
 #rhf/gen scf(symm,tight,novaracc,noincfock,fulldiag) stable(crhf) geom
 =nocrowd test
 ----------------------------------------------------------------------

 hf stability analysis of h10 triangular lattice, y= 0.7466864790071482
 4
 ----------------------------------------------------------------------
 Symbolic Z-matrix:
 Charge =  0 Multiplicity = 1

                         Standard orientation:
 ---------------------------------------------------------------------
 Center     Atomic      Atomic             Coordinates (Angstroms)
 Number     Number       Type             X           Y           Z
 ---------------------------------------------------------------------
      1          1           0        0.000000    0.746686    1.546433
      2          1           0        0.000000    0.000000    2.319649
      3          1           0        0.000000    0.000000    0.773216
      4          1           0       -0.000000   -0.746686    1.546433
      5          1           0       -0.000000    0.746686    0.000000
      6          1           0       -0.000000   -0.746686    0.000000
      7          1           0        0.000000    0.000000   -0.773216
      8          1           0        0.000000    0.746686   -1.546433
      9          1           0       -0.000000   -0.746686   -1.546433
     10          1           0        0.000000    0.000000   -2.319649
 ---------------------------------------------------------------------

 SCF Done:  E(RHF) =  -4.83776461037     A.U. after    8 cycles
 E2 =    -0.9794865111D-01 EUMP2 =    -0.49357132614782D+01

 The electronic state is 1-AG.
 Alpha  occ. eigenvalues --   -0.90495  -0.74548  -0.52392  -0.45259  -0.26971
 Alpha virt. eigenvalues --   -0.02953   0.14835   0.32821   0.54195   0.55058

 Mulliken charges:
               1
     1  H   -0.217101
     2  H    0.241178
     3  H    0.162361
     4  H   -0.217101
     5  H    0.030665
     6  H    0.030665
     7  H    0.162361
     8  H   -0.217101
     9  H   -0.217101
    10  H    0.241178
 Sum of Mulliken charges =   0.00000

 Dipole moment (field-independent basis, Debye):
    X=              0.0000    Y=             -0.0000    Z=             -0.0000  Tot=              0.0000
 Quadrupole moment (field-independent basis, Debye-Ang):
   XX=            -13.0109   YY=            -18.7238   ZZ=            -10.4264
   XY=             -0.0000   XZ=             -0.0000   YZ=             -0.0000

 Normal termination of Gaussian 09 at Thu Feb  9 15:35:39 2017.
