 Gaussian 09, Revision E.01,
 Gaussian 09:  ES64L-G09RevE.01 30-Nov-2015

 ----------------------------------------------------------------------
 #rhf/gen scf(symm,tight,novaracc,noincfock,fulldiag) stable(crhf) geom
 =nocrowd test
 ----------------------------------------------------------------------

 hf stability analysis of h10 triangular lattice, y= 0.5093834580084353
 2
 ----------------------------------------------------------------------
 Symbolic Z-matrix:
 Charge =  0 Multiplicity = 1

                         Standard orientation:
 ---------------------------------------------------------------------
 Center     Atomic      Atomic             Coordinates (Angstroms)
 Number     Number       Type             X           Y           Z
 ---------------------------------------------------------------------
      1          1           0        0.000000    0.509383    2.266859
      2          1           0        0.000000    0.000000    3.400289
      3          1           0        0.000000    0.000000    1.133430
      4          1           0       -0.000000   -0.509383    2.266859
      5          1           0        0.000000    0.509383    0.000000
      6          1           0       -0.000000   -0.509383    0.000000
      7          1           0        0.000000   -0.000000   -1.133430
      8          1           0        0.000000    0.509383   -2.266859
      9          1           0       -0.000000   -0.509383   -2.266859
     10          1           0        0.000000   -0.000000   -3.400289
 ---------------------------------------------------------------------

 SCF Done:  E(RHF) =  -4.80545032390     A.U. after    9 cycles
 E2 =    -0.9102589551D-01 EUMP2 =    -0.48964762194129D+01

 The electronic state is 1-AG.
 Alpha  occ. eigenvalues --   -0.78684  -0.72170  -0.62302  -0.34361  -0.17915
 Alpha virt. eigenvalues --    0.09361   0.15970   0.22317   0.22859   0.43292

 Mulliken charges:
               1
     1  H    0.242064
     2  H   -0.404949
     3  H   -0.212506
     4  H    0.242064
     5  H    0.133327
     6  H    0.133327
     7  H   -0.212506
     8  H    0.242064
     9  H    0.242064
    10  H   -0.404949
 Sum of Mulliken charges =  -0.00000

 Dipole moment (field-independent basis, Debye):
    X=             -0.0000    Y=              0.0000    Z=              0.0000  Tot=              0.0000
 Quadrupole moment (field-independent basis, Debye-Ang):
   XX=            -13.0196   YY=             -9.7048   ZZ=            -42.2691
   XY=              0.0000   XZ=              0.0000   YZ=             -0.0000

 Normal termination of Gaussian 09 at Thu Feb  9 15:52:48 2017.
