 Gaussian 09, Revision E.01,
 Gaussian 09:  ES64L-G09RevE.01 30-Nov-2015

 ----------------------------------------------------------------------
 #rhf/gen scf(symm,tight,novaracc,noincfock,fulldiag) stable(crhf) geom
 =nocrowd test
 ----------------------------------------------------------------------

 hf stability analysis of h10 triangular lattice, y= 0.7350339100741684
 1
 ----------------------------------------------------------------------
 Symbolic Z-matrix:
 Charge =  0 Multiplicity = 1

                         Standard orientation:
 ---------------------------------------------------------------------
 Center     Atomic      Atomic             Coordinates (Angstroms)
 Number     Number       Type             X           Y           Z
 ---------------------------------------------------------------------
      1          1           0       -0.000000    0.735034    1.570949
      2          1           0       -0.000000    0.000000    2.356423
      3          1           0       -0.000000    0.000000    0.785474
      4          1           0       -0.000000   -0.735034    1.570949
      5          1           0       -0.000000    0.735034    0.000000
      6          1           0       -0.000000   -0.735034    0.000000
      7          1           0        0.000000   -0.000000   -0.785474
      8          1           0        0.000000    0.735034   -1.570949
      9          1           0       -0.000000   -0.735034   -1.570949
     10          1           0        0.000000   -0.000000   -2.356423
 ---------------------------------------------------------------------

 SCF Done:  E(RHF) =  -4.81921053562     A.U. after    8 cycles
 E2 =    -0.9844581018D-01 EUMP2 =    -0.49176563458010D+01

 The electronic state is 1-AG.
 Alpha  occ. eigenvalues --   -0.89984  -0.74396  -0.52825  -0.44270  -0.26346
 Alpha virt. eigenvalues --   -0.03819   0.14586   0.31157   0.54801   0.56187

 Mulliken charges:
               1
     1  H   -0.224488
     2  H    0.252968
     3  H    0.172698
     4  H   -0.224488
     5  H    0.023311
     6  H    0.023311
     7  H    0.172698
     8  H   -0.224488
     9  H   -0.224488
    10  H    0.252968
 Sum of Mulliken charges =   0.00000

 Dipole moment (field-independent basis, Debye):
    X=              0.0000    Y=              0.0000    Z=             -0.0000  Tot=              0.0000
 Quadrupole moment (field-independent basis, Debye-Ang):
   XX=            -13.0179   YY=            -18.8600   ZZ=             -9.8240
   XY=             -0.0000   XZ=             -0.0000   YZ=              0.0000

 Normal termination of Gaussian 09 at Thu Feb  9 15:36:26 2017.
