 Gaussian 09, Revision E.01,
 Gaussian 09:  ES64L-G09RevE.01 30-Nov-2015

 ----------------------------------------------------------------------
 #rhf/gen scf(symm,tight,novaracc,noincfock,fulldiag) stable(crhf) geom
 =nocrowd test
 ----------------------------------------------------------------------

 hf stability analysis of h10 triangular lattice, y= 0.7324663818149885
 8
 ----------------------------------------------------------------------
 Symbolic Z-matrix:
 Charge =  0 Multiplicity = 1

                         Standard orientation:
 ---------------------------------------------------------------------
 Center     Atomic      Atomic             Coordinates (Angstroms)
 Number     Number       Type             X           Y           Z
 ---------------------------------------------------------------------
      1          1           0        0.000000    0.732466    1.576455
      2          1           0        0.000000    0.000000    2.364683
      3          1           0        0.000000    0.000000    0.788228
      4          1           0       -0.000000   -0.732466    1.576455
      5          1           0       -0.000000    0.732466   -0.000000
      6          1           0       -0.000000   -0.732466    0.000000
      7          1           0        0.000000   -0.000000   -0.788228
      8          1           0        0.000000    0.732466   -1.576455
      9          1           0       -0.000000   -0.732466   -1.576455
     10          1           0        0.000000   -0.000000   -2.364683
 ---------------------------------------------------------------------

 SCF Done:  E(RHF) =  -4.81495018872     A.U. after    8 cycles
 E2 =    -0.9856481505D-01 EUMP2 =    -0.49135150037690D+01

 The electronic state is 1-AG.
 Alpha  occ. eigenvalues --   -0.89868  -0.74359  -0.52919  -0.44048  -0.26203
 Alpha virt. eigenvalues --   -0.04005   0.14536   0.30789   0.54724   0.56612

 Mulliken charges:
               1
     1  H   -0.226143
     2  H    0.255572
     3  H    0.175104
     4  H   -0.226143
     5  H    0.021611
     6  H    0.021611
     7  H    0.175104
     8  H   -0.226143
     9  H   -0.226143
    10  H    0.255572
 Sum of Mulliken charges =  -0.00000

 Dipole moment (field-independent basis, Debye):
    X=              0.0000    Y=             -0.0000    Z=              0.0000  Tot=              0.0000
 Quadrupole moment (field-independent basis, Debye-Ang):
   XX=            -13.0194   YY=            -18.8896   ZZ=             -9.6877
   XY=             -0.0000   XZ=             -0.0000   YZ=              0.0000

 Normal termination of Gaussian 09 at Thu Feb  9 15:36:36 2017.
