 Gaussian 09, Revision E.01,
 Gaussian 09:  ES64L-G09RevE.01 30-Nov-2015

 ----------------------------------------------------------------------
 #rhf/gen scf(symm,tight,novaracc,noincfock,fulldiag) stable(crhf) geom
 =nocrowd test
 ----------------------------------------------------------------------

 hf stability analysis of h10 triangular lattice, y= 0.6524257390947205
 7
 ----------------------------------------------------------------------
 Symbolic Z-matrix:
 Charge =  0 Multiplicity = 1

                         Standard orientation:
 ---------------------------------------------------------------------
 Center     Atomic      Atomic             Coordinates (Angstroms)
 Number     Number       Type             X           Y           Z
 ---------------------------------------------------------------------
      1          1           0        0.000000    0.652426    1.769857
      2          1           0       -0.000000   -0.000000    2.654786
      3          1           0       -0.000000   -0.000000    0.884929
      4          1           0       -0.000000   -0.652426    1.769857
      5          1           0       -0.000000    0.652426    0.000000
      6          1           0       -0.000000   -0.652426   -0.000000
      7          1           0        0.000000    0.000000   -0.884929
      8          1           0        0.000000    0.652426   -1.769857
      9          1           0       -0.000000   -0.652426   -1.769857
     10          1           0        0.000000    0.000000   -2.654786
 ---------------------------------------------------------------------

 SCF Done:  E(RHF) =  -4.81865234498     A.U. after    9 cycles
 E2 =    -0.1198210792D+00 EUMP2 =    -0.49384734242001D+01

 The electronic state is 1-AG.
 Alpha  occ. eigenvalues --   -0.82561  -0.73253  -0.55202  -0.30121  -0.29189
 Alpha virt. eigenvalues --   -0.00248   0.18803   0.20079   0.49652   0.70005

 Mulliken charges:
               1
     1  H    0.206867
     2  H   -0.188931
     3  H   -0.255782
     4  H    0.206867
     5  H    0.030980
     6  H    0.030980
     7  H   -0.255782
     8  H    0.206867
     9  H    0.206867
    10  H   -0.188931
 Sum of Mulliken charges =   0.00000

 Dipole moment (field-independent basis, Debye):
    X=             -0.0000    Y=              0.0000    Z=             -0.0000  Tot=              0.0000
 Quadrupole moment (field-independent basis, Debye-Ang):
   XX=            -12.9964   YY=            -12.5992   ZZ=            -17.8085
   XY=              0.0000   XZ=              0.0000   YZ=             -0.0000

 Normal termination of Gaussian 09 at Thu Feb  9 15:42:11 2017.
