 Gaussian 09, Revision E.01,
 Gaussian 09:  ES64L-G09RevE.01 30-Nov-2015

 ----------------------------------------------------------------------
 #rhf/gen scf(symm,tight,novaracc,noincfock,fulldiag) stable(crhf) geom
 =nocrowd test
 ----------------------------------------------------------------------

 hf stability analysis of h10 triangular lattice, y= 0.2793936671309633
 6
 ----------------------------------------------------------------------
 Symbolic Z-matrix:
 Charge =  0 Multiplicity = 1

                         Standard orientation:
 ---------------------------------------------------------------------
 Center     Atomic      Atomic             Coordinates (Angstroms)
 Number     Number       Type             X           Y           Z
 ---------------------------------------------------------------------
      1          1           0        0.000000    0.279394    4.132880
      2          1           0       -0.000000    0.000000    6.199320
      3          1           0       -0.000000    0.000000    2.066440
      4          1           0       -0.000000   -0.279394    4.132880
      5          1           0       -0.000000    0.279394    0.000000
      6          1           0       -0.000000   -0.279394    0.000000
      7          1           0        0.000000   -0.000000   -2.066440
      8          1           0        0.000000    0.279394   -4.132880
      9          1           0       -0.000000   -0.279394   -4.132880
     10          1           0        0.000000   -0.000000   -6.199320
 ---------------------------------------------------------------------

 SCF Done:  E(RHF) =  -4.55929303342     A.U. after   10 cycles
 E2 =    -0.4081392228D+00 EUMP2 =    -0.49674322562159D+01

 The electronic state is 1-AG.
 Alpha  occ. eigenvalues --   -0.70625  -0.70423  -0.69833  -0.26297  -0.24333
 Alpha virt. eigenvalues --   -0.10641  -0.08519   0.53278   0.53550   0.54464

 Mulliken charges:
               1
     1  H    0.010249
     2  H   -0.026201
     3  H    0.005064
     4  H    0.010249
     5  H    0.000638
     6  H    0.000638
     7  H    0.005064
     8  H    0.010249
     9  H    0.010249
    10  H   -0.026201
 Sum of Mulliken charges =   0.00000

 Dipole moment (field-independent basis, Debye):
    X=             -0.0000    Y=             -0.0000    Z=              0.0000  Tot=              0.0000
 Quadrupole moment (field-independent basis, Debye-Ang):
   XX=            -13.5952   YY=            -12.7619   ZZ=            -20.8567
   XY=              0.0000   XZ=              0.0000   YZ=             -0.0000

 Normal termination of Gaussian 09 at Thu Feb  9 16:05:36 2017.
