 Gaussian 09, Revision E.01,
 Gaussian 09:  ES64L-G09RevE.01 30-Nov-2015

 ----------------------------------------------------------------------
 #rhf/gen scf(symm,tight,novaracc,noincfock,fulldiag) stable(crhf) geom
 =nocrowd test
 ----------------------------------------------------------------------

 hf stability analysis of h10 triangular lattice, y= 0.5528935177554830
 1
 ----------------------------------------------------------------------
 Symbolic Z-matrix:
 Charge =  0 Multiplicity = 1

                         Standard orientation:
 ---------------------------------------------------------------------
 Center     Atomic      Atomic             Coordinates (Angstroms)
 Number     Number       Type             X           Y           Z
 ---------------------------------------------------------------------
      1          1           0       -0.000000    0.552894    2.088468
      2          1           0       -0.000000   -0.000000    3.132702
      3          1           0       -0.000000   -0.000000    1.044234
      4          1           0       -0.000000   -0.552894    2.088468
      5          1           0       -0.000000    0.552894    0.000000
      6          1           0       -0.000000   -0.552894   -0.000000
      7          1           0        0.000000    0.000000   -1.044234
      8          1           0        0.000000    0.552894   -2.088468
      9          1           0       -0.000000   -0.552894   -2.088468
     10          1           0        0.000000    0.000000   -3.132702
 ---------------------------------------------------------------------

 SCF Done:  E(RHF) =  -4.72305083529     A.U. after    9 cycles
 E2 =    -0.1656079259D+00 EUMP2 =    -0.48886587611566D+01

 The electronic state is 1-AG.
 Alpha  occ. eigenvalues --   -0.77451  -0.71747  -0.57248  -0.31627  -0.17100
 Alpha virt. eigenvalues --    0.04824   0.06849   0.22463   0.32712   0.60612

 Mulliken charges:
               1
     1  H    0.099852
     2  H   -0.028843
     3  H   -0.150350
     4  H    0.099852
     5  H   -0.020511
     6  H   -0.020511
     7  H   -0.150350
     8  H    0.099852
     9  H    0.099852
    10  H   -0.028843
 Sum of Mulliken charges =   0.00000

 Dipole moment (field-independent basis, Debye):
    X=             -0.0000    Y=             -0.0000    Z=             -0.0000  Tot=              0.0000
 Quadrupole moment (field-independent basis, Debye-Ang):
   XX=            -13.2175   YY=            -14.4508   ZZ=            -10.1949
   XY=             -0.0000   XZ=              0.0000   YZ=             -0.0000

 Normal termination of Gaussian 09 at Thu Feb  9 15:49:37 2017.
