 Gaussian 09, Revision E.01,
 Gaussian 09:  ES64L-G09RevE.01 30-Nov-2015

 ----------------------------------------------------------------------
 #rhf/gen scf(symm,tight,novaracc,noincfock,fulldiag) stable(crhf) geom
 =nocrowd test
 ----------------------------------------------------------------------

 hf stability analysis of h10 triangular lattice, y= 0.6813233830939169
 3
 ----------------------------------------------------------------------
 Symbolic Z-matrix:
 Charge =  0 Multiplicity = 1

                         Standard orientation:
 ---------------------------------------------------------------------
 Center     Atomic      Atomic             Coordinates (Angstroms)
 Number     Number       Type             X           Y           Z
 ---------------------------------------------------------------------
      1          1           0        0.000000    0.681323    1.694791
      2          1           0        0.000000    0.000000    2.542186
      3          1           0        0.000000    0.000000    0.847395
      4          1           0       -0.000000   -0.681323    1.694791
      5          1           0       -0.000000    0.681323   -0.000000
      6          1           0       -0.000000   -0.681323    0.000000
      7          1           0        0.000000   -0.000000   -0.847395
      8          1           0        0.000000    0.681323   -1.694791
      9          1           0       -0.000000   -0.681323   -1.694791
     10          1           0        0.000000   -0.000000   -2.542186
 ---------------------------------------------------------------------

 SCF Done:  E(RHF) =  -4.81944514905     A.U. after    8 cycles
 E2 =    -0.1119391482D+00 EUMP2 =    -0.49313842972301D+01

 The electronic state is 1-AG.
 Alpha  occ. eigenvalues --   -0.83677  -0.73258  -0.54187  -0.33283  -0.27677
 Alpha virt. eigenvalues --   -0.01749   0.20028   0.23172   0.53106   0.68246

 Mulliken charges:
               1
     1  H    0.232194
     2  H   -0.230295
     3  H   -0.271799
     4  H    0.232194
     5  H    0.037707
     6  H    0.037707
     7  H   -0.271799
     8  H    0.232194
     9  H    0.232194
    10  H   -0.230295
 Sum of Mulliken charges =  -0.00000

 Dipole moment (field-independent basis, Debye):
    X=             -0.0000    Y=              0.0000    Z=              0.0000  Tot=              0.0000
 Quadrupole moment (field-independent basis, Debye-Ang):
   XX=            -12.9302   YY=            -11.9914   ZZ=            -19.2389
   XY=              0.0000   XZ=              0.0000   YZ=             -0.0000

 Normal termination of Gaussian 09 at Thu Feb  9 15:40:06 2017.
