 Gaussian 09, Revision E.01,
 Gaussian 09:  ES64L-G09RevE.01 30-Nov-2015

 ----------------------------------------------------------------------
 #rhf/gen scf(symm,tight,novaracc,noincfock,fulldiag) stable(crhf) geom
 =nocrowd test
 ----------------------------------------------------------------------

 hf stability analysis of h10 triangular lattice, y= 0.4829747999860826
 7
 ----------------------------------------------------------------------
 Symbolic Z-matrix:
 Charge =  0 Multiplicity = 1

                         Standard orientation:
 ---------------------------------------------------------------------
 Center     Atomic      Atomic             Coordinates (Angstroms)
 Number     Number       Type             X           Y           Z
 ---------------------------------------------------------------------
      1          1           0       -0.000000    0.482975    2.390809
      2          1           0       -0.000000    0.000000    3.586214
      3          1           0       -0.000000    0.000000    1.195405
      4          1           0       -0.000000   -0.482975    2.390809
      5          1           0       -0.000000    0.482975    0.000000
      6          1           0       -0.000000   -0.482975   -0.000000
      7          1           0        0.000000    0.000000   -1.195405
      8          1           0        0.000000    0.482975   -2.390809
      9          1           0       -0.000000   -0.482975   -2.390809
     10          1           0        0.000000    0.000000   -3.586214
 ---------------------------------------------------------------------

 SCF Done:  E(RHF) =  -4.85633521340     A.U. after    9 cycles
 E2 =    -0.9665846399D-01 EUMP2 =    -0.49529936773886D+01

 The electronic state is 1-AG.
 Alpha  occ. eigenvalues --   -0.77281  -0.71728  -0.63324  -0.34285  -0.19729
 Alpha virt. eigenvalues --    0.13256   0.17180   0.18748   0.24808   0.35872

 Mulliken charges:
               1
     1  H    0.215396
     2  H   -0.361700
     3  H   -0.183828
     4  H    0.215396
     5  H    0.114736
     6  H    0.114736
     7  H   -0.183828
     8  H    0.215396
     9  H    0.215396
    10  H   -0.361700
 Sum of Mulliken charges =  -0.00000

 Dipole moment (field-independent basis, Debye):
    X=             -0.0000    Y=             -0.0000    Z=             -0.0000  Tot=              0.0000
 Quadrupole moment (field-independent basis, Debye-Ang):
   XX=            -13.1557   YY=            -10.2333   ZZ=            -41.6516
   XY=              0.0000   XZ=              0.0000   YZ=              0.0000

 Normal termination of Gaussian 09 at Thu Feb  9 15:54:42 2017.
