 Gaussian 09, Revision E.01,
 Gaussian 09:  ES64L-G09RevE.01 30-Nov-2015

 ----------------------------------------------------------------------
 #rhf/gen scf(symm,tight,novaracc,noincfock,fulldiag) stable(crhf) geom
 =nocrowd test
 ----------------------------------------------------------------------

 hf stability analysis of h10 triangular lattice, y= 0.4168485496705611
 2
 ----------------------------------------------------------------------
 Symbolic Z-matrix:
 Charge =  0 Multiplicity = 1

                         Standard orientation:
 ---------------------------------------------------------------------
 Center     Atomic      Atomic             Coordinates (Angstroms)
 Number     Number       Type             X           Y           Z
 ---------------------------------------------------------------------
      1          1           0        0.000000    0.416849    2.770072
      2          1           0        0.000000    0.000000    4.155108
      3          1           0        0.000000    0.000000    1.385036
      4          1           0       -0.000000   -0.416849    2.770072
      5          1           0       -0.000000    0.416849    0.000000
      6          1           0       -0.000000   -0.416849    0.000000
      7          1           0        0.000000   -0.000000   -1.385036
      8          1           0        0.000000    0.416849   -2.770072
      9          1           0       -0.000000   -0.416849   -2.770072
     10          1           0        0.000000   -0.000000   -4.155108
 ---------------------------------------------------------------------

 SCF Done:  E(RHF) =  -4.90455424994     A.U. after    8 cycles
 E2 =    -0.1280360239D+00 EUMP2 =    -0.50325902738408D+01

 The electronic state is 1-AG.
 Alpha  occ. eigenvalues --   -0.73650  -0.70490  -0.65454  -0.32741  -0.22885
 Alpha virt. eigenvalues --    0.05394   0.17553   0.24309   0.27252   0.31485

 Mulliken charges:
               1
     1  H    0.142597
     2  H   -0.242703
     3  H   -0.110636
     4  H    0.142597
     5  H    0.068144
     6  H    0.068144
     7  H   -0.110636
     8  H    0.142597
     9  H    0.142597
    10  H   -0.242703
 Sum of Mulliken charges =  -0.00000

 Dipole moment (field-independent basis, Debye):
    X=             -0.0000    Y=              0.0000    Z=             -0.0000  Tot=              0.0000
 Quadrupole moment (field-independent basis, Debye-Ang):
   XX=            -13.4439   YY=            -11.3925   ZZ=            -38.0858
   XY=              0.0000   XZ=              0.0000   YZ=              0.0000

 Normal termination of Gaussian 09 at Thu Feb  9 15:59:10 2017.
