 Gaussian 09, Revision E.01,
 Gaussian 09:  ES64L-G09RevE.01 30-Nov-2015

 ----------------------------------------------------------------------
 #rhf/gen scf(symm,tight,novaracc,noincfock,fulldiag) stable(crhf) geom
 =nocrowd test
 ----------------------------------------------------------------------

 hf stability analysis of h10 triangular lattice, y= 0.3049481341986059
 5
 ----------------------------------------------------------------------
 Symbolic Z-matrix:
 Charge =  0 Multiplicity = 1

                         Standard orientation:
 ---------------------------------------------------------------------
 Center     Atomic      Atomic             Coordinates (Angstroms)
 Number     Number       Type             X           Y           Z
 ---------------------------------------------------------------------
      1          1           0        0.000000    0.304948    3.786547
      2          1           0        0.000000   -0.000000    5.679821
      3          1           0        0.000000   -0.000000    1.893274
      4          1           0       -0.000000   -0.304948    3.786547
      5          1           0        0.000000    0.304948    0.000000
      6          1           0       -0.000000   -0.304948   -0.000000
      7          1           0        0.000000    0.000000   -1.893274
      8          1           0        0.000000    0.304948   -3.786547
      9          1           0       -0.000000   -0.304948   -3.786547
     10          1           0        0.000000    0.000000   -5.679821
 ---------------------------------------------------------------------

 SCF Done:  E(RHF) =  -4.68180951437     A.U. after    9 cycles
 E2 =    -0.3196589180D+00 EUMP2 =    -0.50014684323365D+01

 The electronic state is 1-AG.
 Alpha  occ. eigenvalues --   -0.70223  -0.69809  -0.68708  -0.27463  -0.24445
 Alpha virt. eigenvalues --   -0.08715  -0.05376   0.47414   0.47899   0.49395

 Mulliken charges:
               1
     1  H    0.025573
     2  H   -0.052073
     3  H   -0.005272
     4  H    0.025573
     5  H    0.006198
     6  H    0.006198
     7  H   -0.005272
     8  H    0.025573
     9  H    0.025573
    10  H   -0.052073
 Sum of Mulliken charges =  -0.00000

 Dipole moment (field-independent basis, Debye):
    X=             -0.0000    Y=              0.0000    Z=             -0.0000  Tot=              0.0000
 Quadrupole moment (field-independent basis, Debye-Ang):
   XX=            -13.6083   YY=            -12.6105   ZZ=            -24.2935
   XY=              0.0000   XZ=              0.0000   YZ=             -0.0000

 Normal termination of Gaussian 09 at Thu Feb  9 16:04:39 2017.
