 Gaussian 09, Revision E.01,
 Gaussian 09:  ES64L-G09RevE.01 30-Nov-2015

 ----------------------------------------------------------------------
 #rhf/gen scf(symm,tight,novaracc,noincfock,fulldiag) stable(crhf) geom
 =nocrowd test
 ----------------------------------------------------------------------

 hf stability analysis of h10 triangular lattice, y= 0.5761867236721630
 6
 ----------------------------------------------------------------------
 Symbolic Z-matrix:
 Charge =  0 Multiplicity = 1

                         Standard orientation:
 ---------------------------------------------------------------------
 Center     Atomic      Atomic             Coordinates (Angstroms)
 Number     Number       Type             X           Y           Z
 ---------------------------------------------------------------------
      1          1           0       -0.000000    0.576187    2.004039
      2          1           0       -0.000000    0.000000    3.006058
      3          1           0       -0.000000    0.000000    1.002019
      4          1           0       -0.000000   -0.576187    2.004039
      5          1           0       -0.000000    0.576187   -0.000000
      6          1           0       -0.000000   -0.576187    0.000000
      7          1           0        0.000000   -0.000000   -1.002019
      8          1           0        0.000000    0.576187   -2.004039
      9          1           0       -0.000000   -0.576187   -2.004039
     10          1           0        0.000000   -0.000000   -3.006058
 ---------------------------------------------------------------------

 SCF Done:  E(RHF) =  -4.76009281168     A.U. after    9 cycles
 E2 =    -0.1515434781D+00 EUMP2 =    -0.49116362897358D+01

 The electronic state is 1-AG.
 Alpha  occ. eigenvalues --   -0.78811  -0.72307  -0.56982  -0.31455  -0.20486
 Alpha virt. eigenvalues --    0.04878   0.07883   0.21557   0.37117   0.64883

 Mulliken charges:
               1
     1  H    0.127275
     2  H   -0.068155
     3  H   -0.181529
     4  H    0.127275
     5  H   -0.004867
     6  H   -0.004867
     7  H   -0.181529
     8  H    0.127275
     9  H    0.127275
    10  H   -0.068155
 Sum of Mulliken charges =   0.00000

 Dipole moment (field-independent basis, Debye):
    X=             -0.0000    Y=             -0.0000    Z=             -0.0000  Tot=              0.0000
 Quadrupole moment (field-independent basis, Debye-Ang):
   XX=            -13.1685   YY=            -14.0618   ZZ=            -12.4295
   XY=             -0.0000   XZ=              0.0000   YZ=             -0.0000

 Normal termination of Gaussian 09 at Thu Feb  9 15:47:53 2017.
