 Gaussian 09, Revision E.01,
 Gaussian 09:  ES64L-G09RevE.01 30-Nov-2015

 ----------------------------------------------------------------------
 #rhf/gen scf(symm,tight,novaracc,noincfock,fulldiag) stable(crhf) geom
 =nocrowd test
 ----------------------------------------------------------------------

 hf stability analysis of h10 triangular lattice, y= 0.7140720412789977
 0
 ----------------------------------------------------------------------
 Symbolic Z-matrix:
 Charge =  0 Multiplicity = 1

                         Standard orientation:
 ---------------------------------------------------------------------
 Center     Atomic      Atomic             Coordinates (Angstroms)
 Number     Number       Type             X           Y           Z
 ---------------------------------------------------------------------
      1          1           0        0.000000    0.714072    1.617064
      2          1           0        0.000000    0.000000    2.425597
      3          1           0        0.000000    0.000000    0.808532
      4          1           0       -0.000000   -0.714072    1.617064
      5          1           0       -0.000000    0.714072   -0.000000
      6          1           0       -0.000000   -0.714072    0.000000
      7          1           0        0.000000   -0.000000   -0.808532
      8          1           0        0.000000    0.714072   -1.617064
      9          1           0       -0.000000   -0.714072   -1.617064
     10          1           0        0.000000   -0.000000   -2.425597
 ---------------------------------------------------------------------

 SCF Done:  E(RHF) =  -4.80796880111     A.U. after    9 cycles
 E2 =    -0.1050227389D+00 EUMP2 =    -0.49129915400554D+01

 The electronic state is 1-AG.
 Alpha  occ. eigenvalues --   -0.84740  -0.73041  -0.52839  -0.36605  -0.25572
 Alpha virt. eigenvalues --   -0.03217   0.20252   0.28142   0.55879   0.64384

 Mulliken charges:
               1
     1  H    0.257335
     2  H   -0.273754
     3  H   -0.281592
     4  H    0.257335
     5  H    0.040676
     6  H    0.040676
     7  H   -0.281592
     8  H    0.257335
     9  H    0.257335
    10  H   -0.273754
 Sum of Mulliken charges =  -0.00000

 Dipole moment (field-independent basis, Debye):
    X=             -0.0000    Y=             -0.0000    Z=              0.0000  Tot=              0.0000
 Quadrupole moment (field-independent basis, Debye-Ang):
   XX=            -12.8566   YY=            -11.2846   ZZ=            -20.5600
   XY=              0.0000   XZ=              0.0000   YZ=             -0.0000

 Normal termination of Gaussian 09 at Thu Feb  9 15:37:51 2017.
