 Gaussian 09, Revision E.01,
 Gaussian 09:  ES64L-G09RevE.01 30-Nov-2015

 ----------------------------------------------------------------------
 #rhf/gen scf(symm,tight,novaracc,noincfock,fulldiag) stable(crhf) geom
 =nocrowd test
 ----------------------------------------------------------------------

 hf stability analysis of h10 triangular lattice, y= 0.4471302515952339
 5
 ----------------------------------------------------------------------
 Symbolic Z-matrix:
 Charge =  0 Multiplicity = 1

                         Standard orientation:
 ---------------------------------------------------------------------
 Center     Atomic      Atomic             Coordinates (Angstroms)
 Number     Number       Type             X           Y           Z
 ---------------------------------------------------------------------
      1          1           0       -0.000000    0.447130    2.582470
      2          1           0        0.000000    0.000000    3.873705
      3          1           0        0.000000    0.000000    1.291235
      4          1           0       -0.000000   -0.447130    2.582470
      5          1           0       -0.000000    0.447130    0.000000
      6          1           0       -0.000000   -0.447130    0.000000
      7          1           0        0.000000    0.000000   -1.291235
      8          1           0        0.000000    0.447130   -2.582470
      9          1           0       -0.000000   -0.447130   -2.582470
     10          1           0        0.000000    0.000000   -3.873705
 ---------------------------------------------------------------------

 SCF Done:  E(RHF) =  -4.89727812834     A.U. after    9 cycles
 E2 =    -0.1098460540D+00 EUMP2 =    -0.50071241823288D+01

 The electronic state is 1-AG.
 Alpha  occ. eigenvalues --   -0.75297  -0.71056  -0.64548  -0.33676  -0.21679
 Alpha virt. eigenvalues --    0.10553   0.19010   0.23056   0.25729   0.28084

 Mulliken charges:
               1
     1  H    0.176850
     2  H   -0.298791
     3  H   -0.144278
     4  H    0.176850
     5  H    0.089370
     6  H    0.089370
     7  H   -0.144278
     8  H    0.176850
     9  H    0.176850
    10  H   -0.298791
 Sum of Mulliken charges =  -0.00000

 Dipole moment (field-independent basis, Debye):
    X=             -0.0000    Y=             -0.0000    Z=             -0.0000  Tot=              0.0000
 Quadrupole moment (field-independent basis, Debye-Ang):
   XX=            -13.3241   YY=            -10.8947   ZZ=            -40.1328
   XY=              0.0000   XZ=              0.0000   YZ=              0.0000

 Normal termination of Gaussian 09 at Thu Feb  9 15:57:11 2017.
