 Gaussian 09, Revision E.01,
 Gaussian 09:  ES64L-G09RevE.01 30-Nov-2015

 ----------------------------------------------------------------------
 #rhf/gen scf(symm,tight,novaracc,noincfock,fulldiag) stable(crhf) geom
 =nocrowd test
 ----------------------------------------------------------------------

 hf stability analysis of h10 triangular lattice, y= 0.6770695023340408
 4
 ----------------------------------------------------------------------
 Symbolic Z-matrix:
 Charge =  0 Multiplicity = 1

                         Standard orientation:
 ---------------------------------------------------------------------
 Center     Atomic      Atomic             Coordinates (Angstroms)
 Number     Number       Type             X           Y           Z
 ---------------------------------------------------------------------
      1          1           0        0.000000    0.677069    1.705439
      2          1           0       -0.000000    0.000000    2.558158
      3          1           0       -0.000000    0.000000    0.852719
      4          1           0       -0.000000   -0.677069    1.705439
      5          1           0       -0.000000    0.677069    0.000000
      6          1           0       -0.000000   -0.677069    0.000000
      7          1           0        0.000000    0.000000   -0.852719
      8          1           0        0.000000    0.677069   -1.705439
      9          1           0       -0.000000   -0.677069   -1.705439
     10          1           0        0.000000    0.000000   -2.558158
 ---------------------------------------------------------------------

 SCF Done:  E(RHF) =  -4.81999067089     A.U. after    8 cycles
 E2 =    -0.1129870109D+00 EUMP2 =    -0.49329776817614D+01

 The electronic state is 1-AG.
 Alpha  occ. eigenvalues --   -0.83523  -0.73269  -0.54347  -0.32832  -0.27920
 Alpha virt. eigenvalues --   -0.01541   0.20020   0.22525   0.52654   0.68615

 Mulliken charges:
               1
     1  H    0.228648
     2  H   -0.224381
     3  H   -0.269877
     4  H    0.228648
     5  H    0.036962
     6  H    0.036962
     7  H   -0.269877
     8  H    0.228648
     9  H    0.228648
    10  H   -0.224381
 Sum of Mulliken charges =  -0.00000

 Dipole moment (field-independent basis, Debye):
    X=             -0.0000    Y=              0.0000    Z=              0.0000  Tot=              0.0000
 Quadrupole moment (field-independent basis, Debye-Ang):
   XX=            -12.9399   YY=            -12.0820   ZZ=            -19.0452
   XY=              0.0000   XZ=              0.0000   YZ=              0.0000

 Normal termination of Gaussian 09 at Thu Feb  9 15:40:24 2017.
