 Gaussian 09, Revision E.01,
 Gaussian 09:  ES64L-G09RevE.01 30-Nov-2015

 ----------------------------------------------------------------------
 #rhf/gen scf(symm,tight,novaracc,noincfock,fulldiag) stable(crhf) geom
 =nocrowd test
 ----------------------------------------------------------------------

 hf stability analysis of h10 triangular lattice, y= 0.7427839016799746
 6
 ----------------------------------------------------------------------
 Symbolic Z-matrix:
 Charge =  0 Multiplicity = 1

                         Standard orientation:
 ---------------------------------------------------------------------
 Center     Atomic      Atomic             Coordinates (Angstroms)
 Number     Number       Type             X           Y           Z
 ---------------------------------------------------------------------
      1          1           0        0.000000    0.742784    1.554558
      2          1           0        0.000000    0.000000    2.331837
      3          1           0        0.000000    0.000000    0.777279
      4          1           0       -0.000000   -0.742784    1.554558
      5          1           0       -0.000000    0.742784    0.000000
      6          1           0       -0.000000   -0.742784    0.000000
      7          1           0        0.000000    0.000000   -0.777279
      8          1           0        0.000000    0.742784   -1.554558
      9          1           0       -0.000000   -0.742784   -1.554558
     10          1           0        0.000000    0.000000   -2.331837
 ---------------------------------------------------------------------

 SCF Done:  E(RHF) =  -4.83169248710     A.U. after    8 cycles
 E2 =    -0.9810742514D-01 EUMP2 =    -0.49297999122479D+01

 The electronic state is 1-AG.
 Alpha  occ. eigenvalues --   -0.90326  -0.74500  -0.52539  -0.44931  -0.26766
 Alpha virt. eigenvalues --   -0.03247   0.14747   0.32265   0.54872   0.54989

 Mulliken charges:
               1
     1  H   -0.219552
     2  H    0.245121
     3  H    0.165717
     4  H   -0.219552
     5  H    0.028268
     6  H    0.028268
     7  H    0.165717
     8  H   -0.219552
     9  H   -0.219552
    10  H    0.245121
 Sum of Mulliken charges =   0.00000

 Dipole moment (field-independent basis, Debye):
    X=              0.0000    Y=             -0.0000    Z=             -0.0000  Tot=              0.0000
 Quadrupole moment (field-independent basis, Debye-Ang):
   XX=            -13.0133   YY=            -18.7697   ZZ=            -10.2276
   XY=             -0.0000   XZ=             -0.0000   YZ=              0.0000

 Normal termination of Gaussian 09 at Thu Feb  9 15:35:55 2017.
