 Gaussian 09, Revision E.01,
 Gaussian 09:  ES64L-G09RevE.01 30-Nov-2015

 ----------------------------------------------------------------------
 #rhf/gen scf(symm,tight,novaracc,noincfock,fulldiag) stable(crhf) geom
 =nocrowd test
 ----------------------------------------------------------------------

 hf stability analysis of h10 triangular lattice, y= 0.4890258879954954
 6
 ----------------------------------------------------------------------
 Symbolic Z-matrix:
 Charge =  0 Multiplicity = 1

                         Standard orientation:
 ---------------------------------------------------------------------
 Center     Atomic      Atomic             Coordinates (Angstroms)
 Number     Number       Type             X           Y           Z
 ---------------------------------------------------------------------
      1          1           0        0.000000    0.489026    2.361226
      2          1           0        0.000000    0.000000    3.541839
      3          1           0        0.000000    0.000000    1.180613
      4          1           0       -0.000000   -0.489026    2.361226
      5          1           0        0.000000    0.489026    0.000000
      6          1           0       -0.000000   -0.489026   -0.000000
      7          1           0        0.000000    0.000000   -1.180613
      8          1           0        0.000000    0.489026   -2.361226
      9          1           0       -0.000000   -0.489026   -2.361226
     10          1           0        0.000000    0.000000   -3.541839
 ---------------------------------------------------------------------

 SCF Done:  E(RHF) =  -4.84616445698     A.U. after    9 cycles
 E2 =    -0.9510311422D-01 EUMP2 =    -0.49412675712002D+01

 The electronic state is 1-AG.
 Alpha  occ. eigenvalues --   -0.77609  -0.71835  -0.63099  -0.34331  -0.19342
 Alpha virt. eigenvalues --    0.12338   0.18084   0.18342   0.24328   0.37591

 Mulliken charges:
               1
     1  H    0.221643
     2  H   -0.371855
     3  H   -0.190443
     4  H    0.221643
     5  H    0.119012
     6  H    0.119012
     7  H   -0.190443
     8  H    0.221643
     9  H    0.221643
    10  H   -0.371855
 Sum of Mulliken charges =   0.00000

 Dipole moment (field-independent basis, Debye):
    X=             -0.0000    Y=              0.0000    Z=              0.0000  Tot=              0.0000
 Quadrupole moment (field-independent basis, Debye-Ang):
   XX=            -13.1252   YY=            -10.1150   ZZ=            -41.8264
   XY=              0.0000   XZ=              0.0000   YZ=             -0.0000

 Normal termination of Gaussian 09 at Thu Feb  9 15:54:16 2017.
