 Gaussian 09, Revision E.01,
 Gaussian 09:  ES64L-G09RevE.01 30-Nov-2015

 ----------------------------------------------------------------------
 #rhf/gen scf(symm,tight,novaracc,noincfock,fulldiag) stable(crhf) geom
 =nocrowd test
 ----------------------------------------------------------------------

 hf stability analysis of h10 triangular lattice, y= 0.4161891239538374
 5
 ----------------------------------------------------------------------
 Symbolic Z-matrix:
 Charge =  0 Multiplicity = 1

                         Standard orientation:
 ---------------------------------------------------------------------
 Center     Atomic      Atomic             Coordinates (Angstroms)
 Number     Number       Type             X           Y           Z
 ---------------------------------------------------------------------
      1          1           0        0.000000    0.416189    2.774461
      2          1           0        0.000000    0.000000    4.161692
      3          1           0        0.000000    0.000000    1.387231
      4          1           0       -0.000000   -0.416189    2.774461
      5          1           0       -0.000000    0.416189    0.000000
      6          1           0       -0.000000   -0.416189   -0.000000
      7          1           0        0.000000    0.000000   -1.387231
      8          1           0        0.000000    0.416189   -2.774461
      9          1           0       -0.000000   -0.416189   -2.774461
     10          1           0        0.000000    0.000000   -4.161692
 ---------------------------------------------------------------------

 SCF Done:  E(RHF) =  -4.90442112756     A.U. after    8 cycles
 E2 =    -0.1285260667D+00 EUMP2 =    -0.50329471942906D+01

 The electronic state is 1-AG.
 Alpha  occ. eigenvalues --   -0.73616  -0.70478  -0.65472  -0.32716  -0.22907
 Alpha virt. eigenvalues --    0.05287   0.17381   0.24429   0.27350   0.31566

 Mulliken charges:
               1
     1  H    0.141840
     2  H   -0.241462
     3  H   -0.109904
     4  H    0.141840
     5  H    0.067687
     6  H    0.067687
     7  H   -0.109904
     8  H    0.141840
     9  H    0.141840
    10  H   -0.241462
 Sum of Mulliken charges =   0.00000

 Dipole moment (field-independent basis, Debye):
    X=             -0.0000    Y=             -0.0000    Z=             -0.0000  Tot=              0.0000
 Quadrupole moment (field-independent basis, Debye-Ang):
   XX=            -13.4462   YY=            -11.4026   ZZ=            -38.0324
   XY=              0.0000   XZ=              0.0000   YZ=             -0.0000

 Normal termination of Gaussian 09 at Thu Feb  9 15:59:13 2017.
