 Gaussian 09, Revision E.01,
 Gaussian 09:  ES64L-G09RevE.01 30-Nov-2015

 ----------------------------------------------------------------------
 #rhf/gen scf(symm,tight,novaracc,noincfock,fulldiag) stable(crhf) geom
 =nocrowd test
 ----------------------------------------------------------------------

 hf stability analysis of h10 triangular lattice, y= 0.6625913996779515
 5
 ----------------------------------------------------------------------
 Symbolic Z-matrix:
 Charge =  0 Multiplicity = 1

                         Standard orientation:
 ---------------------------------------------------------------------
 Center     Atomic      Atomic             Coordinates (Angstroms)
 Number     Number       Type             X           Y           Z
 ---------------------------------------------------------------------
      1          1           0        0.000000    0.662591    1.742704
      2          1           0        0.000000    0.000000    2.614056
      3          1           0        0.000000    0.000000    0.871352
      4          1           0       -0.000000   -0.662591    1.742704
      5          1           0       -0.000000    0.662591    0.000000
      6          1           0       -0.000000   -0.662591    0.000000
      7          1           0        0.000000    0.000000   -0.871352
      8          1           0        0.000000    0.662591   -1.742704
      9          1           0       -0.000000   -0.662591   -1.742704
     10          1           0        0.000000    0.000000   -2.614056
 ---------------------------------------------------------------------

 SCF Done:  E(RHF) =  -4.82015005510     A.U. after    9 cycles
 E2 =    -0.1168379579D+00 EUMP2 =    -0.49369880130003D+01

 The electronic state is 1-AG.
 Alpha  occ. eigenvalues --   -0.82973  -0.73276  -0.54865  -0.31260  -0.28696
 Alpha virt. eigenvalues --   -0.00800   0.20033   0.20333   0.50968   0.69594

 Mulliken charges:
               1
     1  H    0.216106
     2  H   -0.203797
     3  H   -0.262208
     4  H    0.216106
     5  H    0.033792
     6  H    0.033792
     7  H   -0.262208
     8  H    0.216106
     9  H    0.216106
    10  H   -0.203797
 Sum of Mulliken charges =   0.00000

 Dipole moment (field-independent basis, Debye):
    X=             -0.0000    Y=              0.0000    Z=              0.0000  Tot=              0.0000
 Quadrupole moment (field-independent basis, Debye-Ang):
   XX=            -12.9730   YY=            -12.3877   ZZ=            -18.3434
   XY=              0.0000   XZ=              0.0000   YZ=             -0.0000

 Normal termination of Gaussian 09 at Thu Feb  9 15:41:28 2017.
