 Gaussian 09, Revision E.01,
 Gaussian 09:  ES64L-G09RevE.01 30-Nov-2015

 ----------------------------------------------------------------------
 #rhf/gen scf(symm,tight,novaracc,noincfock,fulldiag) stable(crhf) geom
 =nocrowd test
 ----------------------------------------------------------------------

 hf stability analysis of h10 triangular lattice, y= 0.6794984670912264
 1
 ----------------------------------------------------------------------
 Symbolic Z-matrix:
 Charge =  0 Multiplicity = 1

                         Standard orientation:
 ---------------------------------------------------------------------
 Center     Atomic      Atomic             Coordinates (Angstroms)
 Number     Number       Type             X           Y           Z
 ---------------------------------------------------------------------
      1          1           0        0.000000    0.679498    1.699342
      2          1           0       -0.000000    0.000000    2.549014
      3          1           0       -0.000000    0.000000    0.849671
      4          1           0       -0.000000   -0.679498    1.699342
      5          1           0       -0.000000    0.679498   -0.000000
      6          1           0       -0.000000   -0.679498    0.000000
      7          1           0        0.000000   -0.000000   -0.849671
      8          1           0        0.000000    0.679498   -1.699342
      9          1           0       -0.000000   -0.679498   -1.699342
     10          1           0        0.000000   -0.000000   -2.549014
 ---------------------------------------------------------------------

 SCF Done:  E(RHF) =  -4.81970651666     A.U. after    8 cycles
 E2 =    -0.1123841889D+00 EUMP2 =    -0.49320907055592D+01

 The electronic state is 1-AG.
 Alpha  occ. eigenvalues --   -0.83611  -0.73263  -0.54256  -0.33090  -0.27782
 Alpha virt. eigenvalues --   -0.01661   0.20024   0.22894   0.52915   0.68408

 Mulliken charges:
               1
     1  H    0.230680
     2  H   -0.227766
     3  H   -0.270993
     4  H    0.230680
     5  H    0.037398
     6  H    0.037398
     7  H   -0.270993
     8  H    0.230680
     9  H    0.230680
    10  H   -0.227766
 Sum of Mulliken charges =  -0.00000

 Dipole moment (field-independent basis, Debye):
    X=             -0.0000    Y=              0.0000    Z=             -0.0000  Tot=              0.0000
 Quadrupole moment (field-independent basis, Debye-Ang):
   XX=            -12.9344   YY=            -12.0303   ZZ=            -19.1565
   XY=              0.0000   XZ=              0.0000   YZ=             -0.0000

 Normal termination of Gaussian 09 at Thu Feb  9 15:40:14 2017.
