 Gaussian 09, Revision E.01,
 Gaussian 09:  ES64L-G09RevE.01 30-Nov-2015

 ----------------------------------------------------------------------
 #rhf/gen scf(symm,tight,novaracc,noincfock,fulldiag) stable(crhf) geom
 =nocrowd test
 ----------------------------------------------------------------------

 hf stability analysis of h10 triangular lattice, y= 0.5147244765178601
 3
 ----------------------------------------------------------------------
 Symbolic Z-matrix:
 Charge =  0 Multiplicity = 1

                         Standard orientation:
 ---------------------------------------------------------------------
 Center     Atomic      Atomic             Coordinates (Angstroms)
 Number     Number       Type             X           Y           Z
 ---------------------------------------------------------------------
      1          1           0       -0.000000    0.514724    2.243337
      2          1           0        0.000000    0.000000    3.365006
      3          1           0        0.000000    0.000000    1.121669
      4          1           0       -0.000000   -0.514724    2.243337
      5          1           0       -0.000000    0.514724   -0.000000
      6          1           0       -0.000000   -0.514724    0.000000
      7          1           0        0.000000   -0.000000   -1.121669
      8          1           0        0.000000    0.514724   -2.243337
      9          1           0       -0.000000   -0.514724   -2.243337
     10          1           0        0.000000   -0.000000   -3.365006
 ---------------------------------------------------------------------

 SCF Done:  E(RHF) =  -4.79316793801     A.U. after    9 cycles
 E2 =    -0.9022669161D-01 EUMP2 =    -0.48833946296172D+01

 The electronic state is 1-AG.
 Alpha  occ. eigenvalues --   -0.78957  -0.72251  -0.62082  -0.34337  -0.17509
 Alpha virt. eigenvalues --    0.08608   0.15445   0.22509   0.23373   0.44752

 Mulliken charges:
               1
     1  H    0.247265
     2  H   -0.413353
     3  H   -0.218236
     4  H    0.247265
     5  H    0.137058
     6  H    0.137058
     7  H   -0.218236
     8  H    0.247265
     9  H    0.247265
    10  H   -0.413353
 Sum of Mulliken charges =  -0.00000

 Dipole moment (field-independent basis, Debye):
    X=             -0.0000    Y=             -0.0000    Z=             -0.0000  Tot=              0.0000
 Quadrupole moment (field-independent basis, Debye-Ang):
   XX=            -12.9913   YY=             -9.5943   ZZ=            -42.3515
   XY=              0.0000   XZ=              0.0000   YZ=             -0.0000

 Normal termination of Gaussian 09 at Thu Feb  9 15:52:24 2017.
