 Gaussian 09, Revision E.01,
 Gaussian 09:  ES64L-G09RevE.01 30-Nov-2015

 ----------------------------------------------------------------------
 #rhf/gen scf(symm,tight,novaracc,noincfock,fulldiag) stable(crhf) geom
 =nocrowd test
 ----------------------------------------------------------------------

 hf stability analysis of h10 triangular lattice, y= 0.5253576655421984
 3
 ----------------------------------------------------------------------
 Symbolic Z-matrix:
 Charge =  0 Multiplicity = 1

                         Standard orientation:
 ---------------------------------------------------------------------
 Center     Atomic      Atomic             Coordinates (Angstroms)
 Number     Number       Type             X           Y           Z
 ---------------------------------------------------------------------
      1          1           0        0.000000    0.525358    2.197932
      2          1           0        0.000000    0.000000    3.296898
      3          1           0        0.000000    0.000000    1.098966
      4          1           0       -0.000000   -0.525358    2.197932
      5          1           0        0.000000    0.525358    0.000000
      6          1           0       -0.000000   -0.525358    0.000000
      7          1           0        0.000000    0.000000   -1.098966
      8          1           0        0.000000    0.525358   -2.197932
      9          1           0       -0.000000   -0.525358   -2.197932
     10          1           0        0.000000    0.000000   -3.296898
 ---------------------------------------------------------------------

 SCF Done:  E(RHF) =  -4.76681971643     A.U. after    8 cycles
 E2 =    -0.8894369432D-01 EUMP2 =    -0.48557634107588D+01

 The electronic state is 1-AG.
 Alpha  occ. eigenvalues --   -0.79489  -0.72400  -0.61633  -0.34250  -0.16661
 Alpha virt. eigenvalues --    0.07143   0.14433   0.21854   0.25484   0.47590

 Mulliken charges:
               1
     1  H    0.257421
     2  H   -0.429732
     3  H   -0.229550
     4  H    0.257421
     5  H    0.144441
     6  H    0.144441
     7  H   -0.229550
     8  H    0.257421
     9  H    0.257421
    10  H   -0.429732
 Sum of Mulliken charges =  -0.00000

 Dipole moment (field-independent basis, Debye):
    X=             -0.0000    Y=              0.0000    Z=              0.0000  Tot=              0.0000
 Quadrupole moment (field-independent basis, Debye-Ang):
   XX=            -12.9342   YY=             -9.3710   ZZ=            -42.4781
   XY=              0.0000   XZ=              0.0000   YZ=             -0.0000

 Normal termination of Gaussian 09 at Thu Feb  9 15:51:38 2017.
