 Gaussian 09, Revision E.01,
 Gaussian 09:  ES64L-G09RevE.01 30-Nov-2015

 ----------------------------------------------------------------------
 #rhf/gen scf(symm,tight,novaracc,noincfock,fulldiag) stable(crhf) geom
 =nocrowd test
 ----------------------------------------------------------------------

 hf stability analysis of h10 triangular lattice, y= 0.7034550797265067
 8
 ----------------------------------------------------------------------
 Symbolic Z-matrix:
 Charge =  0 Multiplicity = 1

                         Standard orientation:
 ---------------------------------------------------------------------
 Center     Atomic      Atomic             Coordinates (Angstroms)
 Number     Number       Type             X           Y           Z
 ---------------------------------------------------------------------
      1          1           0        0.000000    0.703455    1.641470
      2          1           0        0.000000   -0.000000    2.462205
      3          1           0        0.000000   -0.000000    0.820735
      4          1           0       -0.000000   -0.703455    1.641470
      5          1           0       -0.000000    0.703455    0.000000
      6          1           0       -0.000000   -0.703455   -0.000000
      7          1           0        0.000000    0.000000   -0.820735
      8          1           0        0.000000    0.703455   -1.641470
      9          1           0       -0.000000   -0.703455   -1.641470
     10          1           0        0.000000    0.000000   -2.462205
 ---------------------------------------------------------------------

 SCF Done:  E(RHF) =  -4.81307296591     A.U. after    9 cycles
 E2 =    -0.1070527012D+00 EUMP2 =    -0.49201256671354D+01

 The electronic state is 1-AG.
 Alpha  occ. eigenvalues --   -0.84418  -0.73136  -0.53298  -0.35556  -0.26297
 Alpha virt. eigenvalues --   -0.02766   0.20149   0.26535   0.55118   0.65812

 Mulliken charges:
               1
     1  H    0.249602
     2  H   -0.260066
     3  H   -0.279378
     4  H    0.249602
     5  H    0.040241
     6  H    0.040241
     7  H   -0.279378
     8  H    0.249602
     9  H    0.249602
    10  H   -0.260066
 Sum of Mulliken charges =  -0.00000

 Dipole moment (field-independent basis, Debye):
    X=             -0.0000    Y=              0.0000    Z=              0.0000  Tot=              0.0000
 Quadrupole moment (field-independent basis, Debye-Ang):
   XX=            -12.8803   YY=            -11.5151   ZZ=            -20.1625
   XY=              0.0000   XZ=              0.0000   YZ=             -0.0000

 Normal termination of Gaussian 09 at Thu Feb  9 15:38:35 2017.
