 Gaussian 09, Revision E.01,
 Gaussian 09:  ES64L-G09RevE.01 30-Nov-2015

 ----------------------------------------------------------------------
 #rhf/gen scf(symm,tight,novaracc,noincfock,fulldiag) stable(crhf) geom
 =nocrowd test
 ----------------------------------------------------------------------

 hf stability analysis of h10 triangular lattice, y= 0.6807147699477958
 9
 ----------------------------------------------------------------------
 Symbolic Z-matrix:
 Charge =  0 Multiplicity = 1

                         Standard orientation:
 ---------------------------------------------------------------------
 Center     Atomic      Atomic             Coordinates (Angstroms)
 Number     Number       Type             X           Y           Z
 ---------------------------------------------------------------------
      1          1           0        0.000000    0.680715    1.696306
      2          1           0       -0.000000   -0.000000    2.544459
      3          1           0       -0.000000   -0.000000    0.848153
      4          1           0       -0.000000   -0.680715    1.696306
      5          1           0       -0.000000    0.680715    0.000000
      6          1           0       -0.000000   -0.680715   -0.000000
      7          1           0        0.000000    0.000000   -0.848153
      8          1           0        0.000000    0.680715   -1.696306
      9          1           0       -0.000000   -0.680715   -1.696306
     10          1           0        0.000000    0.000000   -2.544459
 ---------------------------------------------------------------------

 SCF Done:  E(RHF) =  -4.81953686742     A.U. after    8 cycles
 E2 =    -0.1120868253D+00 EUMP2 =    -0.49316236927211D+01

 The electronic state is 1-AG.
 Alpha  occ. eigenvalues --   -0.83655  -0.73259  -0.54210  -0.33218  -0.27712
 Alpha virt. eigenvalues --   -0.01720   0.20027   0.23079   0.53043   0.68301

 Mulliken charges:
               1
     1  H    0.231690
     2  H   -0.229453
     3  H   -0.271533
     4  H    0.231690
     5  H    0.037606
     6  H    0.037606
     7  H   -0.271533
     8  H    0.231690
     9  H    0.231690
    10  H   -0.229453
 Sum of Mulliken charges =   0.00000

 Dipole moment (field-independent basis, Debye):
    X=             -0.0000    Y=              0.0000    Z=              0.0000  Tot=              0.0000
 Quadrupole moment (field-independent basis, Debye-Ang):
   XX=            -12.9316   YY=            -12.0044   ZZ=            -19.2115
   XY=              0.0000   XZ=              0.0000   YZ=             -0.0000

 Normal termination of Gaussian 09 at Thu Feb  9 15:40:08 2017.
