 Gaussian 09, Revision E.01,
 Gaussian 09:  ES64L-G09RevE.01 30-Nov-2015

 ----------------------------------------------------------------------
 #rhf/gen scf(symm,tight,novaracc,noincfock,fulldiag) stable(crhf) geom
 =nocrowd test
 ----------------------------------------------------------------------

 hf stability analysis of h10 triangular lattice, y= 0.3083215094072432
 3
 ----------------------------------------------------------------------
 Symbolic Z-matrix:
 Charge =  0 Multiplicity = 1

                         Standard orientation:
 ---------------------------------------------------------------------
 Center     Atomic      Atomic             Coordinates (Angstroms)
 Number     Number       Type             X           Y           Z
 ---------------------------------------------------------------------
      1          1           0        0.000000    0.308322    3.745118
      2          1           0        0.000000   -0.000000    5.617678
      3          1           0        0.000000   -0.000000    1.872559
      4          1           0       -0.000000   -0.308322    3.745118
      5          1           0       -0.000000    0.308322    0.000000
      6          1           0       -0.000000   -0.308322   -0.000000
      7          1           0        0.000000    0.000000   -1.872559
      8          1           0        0.000000    0.308322   -3.745118
      9          1           0       -0.000000   -0.308322   -3.745118
     10          1           0        0.000000    0.000000   -5.617678
 ---------------------------------------------------------------------

 SCF Done:  E(RHF) =  -4.69540090442     A.U. after    9 cycles
 E2 =    -0.3093804376D+00 EUMP2 =    -0.50047813420013D+01

 The electronic state is 1-AG.
 Alpha  occ. eigenvalues --   -0.70213  -0.69760  -0.68579  -0.27625  -0.24449
 Alpha virt. eigenvalues --   -0.08423  -0.04899   0.46648   0.47169   0.48748

 Mulliken charges:
               1
     1  H    0.028100
     2  H   -0.056237
     3  H   -0.007197
     4  H    0.028100
     5  H    0.007234
     6  H    0.007234
     7  H   -0.007197
     8  H    0.028100
     9  H    0.028100
    10  H   -0.056237
 Sum of Mulliken charges =   0.00000

 Dipole moment (field-independent basis, Debye):
    X=             -0.0000    Y=             -0.0000    Z=             -0.0000  Tot=              0.0000
 Quadrupole moment (field-independent basis, Debye-Ang):
   XX=            -13.6095   YY=            -12.5880   ZZ=            -24.7755
   XY=              0.0000   XZ=              0.0000   YZ=             -0.0000

 Normal termination of Gaussian 09 at Thu Feb  9 16:04:31 2017.
