 Gaussian 09, Revision E.01,
 Gaussian 09:  ES64L-G09RevE.01 30-Nov-2015

 ----------------------------------------------------------------------
 #rhf/gen scf(symm,tight,novaracc,noincfock,fulldiag) stable(crhf) geom
 =nocrowd test
 ----------------------------------------------------------------------

 hf stability analysis of h10 triangular lattice, y= 0.5470557228682959
 6
 ----------------------------------------------------------------------
 Symbolic Z-matrix:
 Charge =  0 Multiplicity = 1

                         Standard orientation:
 ---------------------------------------------------------------------
 Center     Atomic      Atomic             Coordinates (Angstroms)
 Number     Number       Type             X           Y           Z
 ---------------------------------------------------------------------
      1          1           0        0.000000    0.547056    2.110755
      2          1           0        0.000000    0.000000    3.166132
      3          1           0        0.000000    0.000000    1.055377
      4          1           0       -0.000000   -0.547056    2.110755
      5          1           0       -0.000000    0.547056    0.000000
      6          1           0       -0.000000   -0.547056    0.000000
      7          1           0        0.000000    0.000000   -1.055377
      8          1           0        0.000000    0.547056   -2.110755
      9          1           0       -0.000000   -0.547056   -2.110755
     10          1           0        0.000000    0.000000   -3.166132
 ---------------------------------------------------------------------

 SCF Done:  E(RHF) =  -4.71214877835     A.U. after    9 cycles
 E2 =    -0.1695592786D+00 EUMP2 =    -0.48817080569060D+01

 The electronic state is 1-AG.
 Alpha  occ. eigenvalues --   -0.77097  -0.71587  -0.57295  -0.31633  -0.16214
 Alpha virt. eigenvalues --    0.04082   0.07377   0.22728   0.31591   0.59387

 Mulliken charges:
               1
     1  H    0.092787
     2  H   -0.018888
     3  H   -0.141951
     4  H    0.092787
     5  H   -0.024736
     6  H   -0.024736
     7  H   -0.141951
     8  H    0.092787
     9  H    0.092787
    10  H   -0.018888
 Sum of Mulliken charges =   0.00000

 Dipole moment (field-independent basis, Debye):
    X=             -0.0000    Y=             -0.0000    Z=             -0.0000  Tot=              0.0000
 Quadrupole moment (field-independent basis, Debye-Ang):
   XX=            -13.2293   YY=            -14.5432   ZZ=             -9.5832
   XY=             -0.0000   XZ=             -0.0000   YZ=             -0.0000

 Normal termination of Gaussian 09 at Thu Feb  9 15:50:03 2017.
