 Gaussian 09, Revision E.01,
 Gaussian 09:  ES64L-G09RevE.01 30-Nov-2015

 ----------------------------------------------------------------------
 #rhf/gen scf(symm,tight,novaracc,noincfock,fulldiag) stable(crhf) geom
 =nocrowd test
 ----------------------------------------------------------------------

 hf stability analysis of h10 triangular lattice, y= 0.4021720260252033
 0
 ----------------------------------------------------------------------
 Symbolic Z-matrix:
 Charge =  0 Multiplicity = 1

                         Standard orientation:
 ---------------------------------------------------------------------
 Center     Atomic      Atomic             Coordinates (Angstroms)
 Number     Number       Type             X           Y           Z
 ---------------------------------------------------------------------
      1          1           0       -0.000000    0.402172    2.871161
      2          1           0        0.000000    0.000000    4.306741
      3          1           0        0.000000    0.000000    1.435580
      4          1           0       -0.000000   -0.402172    2.871161
      5          1           0        0.000000    0.402172   -0.000000
      6          1           0       -0.000000   -0.402172   -0.000000
      7          1           0        0.000000    0.000000   -1.435580
      8          1           0        0.000000    0.402172   -2.871161
      9          1           0       -0.000000   -0.402172   -2.871161
     10          1           0        0.000000    0.000000   -4.306741
 ---------------------------------------------------------------------

 SCF Done:  E(RHF) =  -4.89856890196     A.U. after    8 cycles
 E2 =    -0.1400919202D+00 EUMP2 =    -0.50386608221934D+01

 The electronic state is 1-AG.
 Alpha  occ. eigenvalues --   -0.72900  -0.70238  -0.65859  -0.32168  -0.23332
 Alpha virt. eigenvalues --    0.03070   0.13818   0.27026   0.29491   0.33358

 Mulliken charges:
               1
     1  H    0.125673
     2  H   -0.215006
     3  H   -0.094414
     4  H    0.125673
     5  H    0.058075
     6  H    0.058075
     7  H   -0.094414
     8  H    0.125673
     9  H    0.125673
    10  H   -0.215006
 Sum of Mulliken charges =  -0.00000

 Dipole moment (field-independent basis, Debye):
    X=             -0.0000    Y=              0.0000    Z=              0.0000  Tot=              0.0000
 Quadrupole moment (field-independent basis, Debye-Ang):
   XX=            -13.4922   YY=            -11.6104   ZZ=            -36.8057
   XY=              0.0000   XZ=              0.0000   YZ=              0.0000

 Normal termination of Gaussian 09 at Thu Feb  9 16:00:06 2017.
