 Gaussian 09, Revision E.01,
 Gaussian 09:  ES64L-G09RevE.01 30-Nov-2015

 ----------------------------------------------------------------------
 #rhf/gen scf(symm,tight,novaracc,noincfock,fulldiag) stable(crhf) geom
 =nocrowd test
 ----------------------------------------------------------------------

 hf stability analysis of h10 triangular lattice, y= 0.6734349324996222
 7
 ----------------------------------------------------------------------
 Symbolic Z-matrix:
 Charge =  0 Multiplicity = 1

                         Standard orientation:
 ---------------------------------------------------------------------
 Center     Atomic      Atomic             Coordinates (Angstroms)
 Number     Number       Type             X           Y           Z
 ---------------------------------------------------------------------
      1          1           0        0.000000    0.673435    1.714643
      2          1           0        0.000000   -0.000000    2.571965
      3          1           0        0.000000   -0.000000    0.857322
      4          1           0       -0.000000   -0.673435    1.714643
      5          1           0       -0.000000    0.673435    0.000000
      6          1           0       -0.000000   -0.673435   -0.000000
      7          1           0        0.000000    0.000000   -0.857322
      8          1           0        0.000000    0.673435   -1.714643
      9          1           0       -0.000000   -0.673435   -1.714643
     10          1           0        0.000000    0.000000   -2.571965
 ---------------------------------------------------------------------

 SCF Done:  E(RHF) =  -4.82027903353     A.U. after    8 cycles
 E2 =    -0.1139117336D+00 EUMP2 =    -0.49341907671575D+01

 The electronic state is 1-AG.
 Alpha  occ. eigenvalues --   -0.83389  -0.73275  -0.54481  -0.32443  -0.28123
 Alpha virt. eigenvalues --   -0.01360   0.20018   0.21974   0.52253   0.68902

 Mulliken charges:
               1
     1  H    0.225569
     2  H   -0.219280
     3  H   -0.268116
     4  H    0.225569
     5  H    0.036258
     6  H    0.036258
     7  H   -0.268116
     8  H    0.225569
     9  H    0.225569
    10  H   -0.219280
 Sum of Mulliken charges =  -0.00000

 Dipole moment (field-independent basis, Debye):
    X=             -0.0000    Y=             -0.0000    Z=             -0.0000  Tot=              0.0000
 Quadrupole moment (field-independent basis, Debye-Ang):
   XX=            -12.9482   YY=            -12.1592   ZZ=            -18.8754
   XY=              0.0000   XZ=              0.0000   YZ=             -0.0000

 Normal termination of Gaussian 09 at Thu Feb  9 15:40:40 2017.
