 Gaussian 09, Revision E.01,
 Gaussian 09:  ES64L-G09RevE.01 30-Nov-2015

 ----------------------------------------------------------------------
 #rhf/gen scf(symm,tight,novaracc,noincfock,fulldiag) stable(crhf) geom
 =nocrowd test
 ----------------------------------------------------------------------

 hf stability analysis of h10 triangular lattice, y= 0.3124923861548579
 2
 ----------------------------------------------------------------------
 Symbolic Z-matrix:
 Charge =  0 Multiplicity = 1

                         Standard orientation:
 ---------------------------------------------------------------------
 Center     Atomic      Atomic             Coordinates (Angstroms)
 Number     Number       Type             X           Y           Z
 ---------------------------------------------------------------------
      1          1           0       -0.000000    0.312492    3.695132
      2          1           0       -0.000000    0.000000    5.542698
      3          1           0       -0.000000    0.000000    1.847566
      4          1           0       -0.000000   -0.312492    3.695132
      5          1           0       -0.000000    0.312492   -0.000000
      6          1           0       -0.000000   -0.312492    0.000000
      7          1           0        0.000000   -0.000000   -1.847566
      8          1           0        0.000000    0.312492   -3.695132
      9          1           0       -0.000000   -0.312492   -3.695132
     10          1           0        0.000000   -0.000000   -5.542698
 ---------------------------------------------------------------------

 SCF Done:  E(RHF) =  -4.71146738476     A.U. after   10 cycles
 E2 =    -0.2971390488D+00 EUMP2 =    -0.50086064335987D+01

 The electronic state is 1-AG.
 Alpha  occ. eigenvalues --   -0.70213  -0.69709  -0.68426  -0.27828  -0.24452
 Alpha virt. eigenvalues --   -0.08050  -0.04289   0.45706   0.46274   0.47954

 Mulliken charges:
               1
     1  H    0.031375
     2  H   -0.061611
     3  H   -0.009751
     4  H    0.031375
     5  H    0.008612
     6  H    0.008612
     7  H   -0.009751
     8  H    0.031375
     9  H    0.031375
    10  H   -0.061611
 Sum of Mulliken charges =   0.00000

 Dipole moment (field-independent basis, Debye):
    X=             -0.0000    Y=             -0.0000    Z=              0.0000  Tot=              0.0000
 Quadrupole moment (field-independent basis, Debye-Ang):
   XX=            -13.6107   YY=            -12.5593   ZZ=            -25.3763
   XY=              0.0000   XZ=              0.0000   YZ=             -0.0000

 Normal termination of Gaussian 09 at Thu Feb  9 16:04:21 2017.
