 Gaussian 09, Revision E.01,
 Gaussian 09:  ES64L-G09RevE.01 30-Nov-2015

 ----------------------------------------------------------------------
 #rhf/gen scf(symm,tight,novaracc,noincfock,fulldiag) stable(crhf) geom
 =nocrowd test
 ----------------------------------------------------------------------

 hf stability analysis of h10 triangular lattice, y= 0.3562845674507317
 8
 ----------------------------------------------------------------------
 Symbolic Z-matrix:
 Charge =  0 Multiplicity = 1

                         Standard orientation:
 ---------------------------------------------------------------------
 Center     Atomic      Atomic             Coordinates (Angstroms)
 Number     Number       Type             X           Y           Z
 ---------------------------------------------------------------------
      1          1           0       -0.000000    0.356285    3.240950
      2          1           0        0.000000    0.000000    4.861425
      3          1           0        0.000000    0.000000    1.620475
      4          1           0       -0.000000   -0.356285    3.240950
      5          1           0       -0.000000    0.356285   -0.000000
      6          1           0       -0.000000   -0.356285    0.000000
      7          1           0        0.000000   -0.000000   -1.620475
      8          1           0        0.000000    0.356285   -3.240950
      9          1           0       -0.000000   -0.356285   -3.240950
     10          1           0        0.000000   -0.000000   -4.861425
 ---------------------------------------------------------------------

 SCF Done:  E(RHF) =  -4.83732623429     A.U. after    9 cycles
 E2 =    -0.1982271712D+00 EUMP2 =    -0.50355534054547D+01

 The electronic state is 1-AG.
 Alpha  occ. eigenvalues --   -0.70989  -0.69666  -0.67077  -0.30029  -0.24216
 Alpha virt. eigenvalues --   -0.03330   0.03426   0.36158   0.37427   0.40183

 Mulliken charges:
               1
     1  H    0.073606
     2  H   -0.130195
     3  H   -0.046020
     4  H    0.073606
     5  H    0.029003
     6  H    0.029003
     7  H   -0.046020
     8  H    0.073606
     9  H    0.073606
    10  H   -0.130195
 Sum of Mulliken charges =  -0.00000

 Dipole moment (field-independent basis, Debye):
    X=             -0.0000    Y=             -0.0000    Z=              0.0000  Tot=              0.0000
 Quadrupole moment (field-independent basis, Debye-Ang):
   XX=            -13.5914   YY=            -12.1799   ZZ=            -31.5754
   XY=              0.0000   XZ=              0.0000   YZ=             -0.0000

 Normal termination of Gaussian 09 at Thu Feb  9 16:02:26 2017.
