 Gaussian 09, Revision E.01,
 Gaussian 09:  ES64L-G09RevE.01 30-Nov-2015

 ----------------------------------------------------------------------
 #rhf/gen scf(symm,tight,novaracc,noincfock,fulldiag) stable(crhf) geom
 =nocrowd test
 ----------------------------------------------------------------------

 hf stability analysis of h10 triangular lattice, y= 0.4546661752714826
 8
 ----------------------------------------------------------------------
 Symbolic Z-matrix:
 Charge =  0 Multiplicity = 1

                         Standard orientation:
 ---------------------------------------------------------------------
 Center     Atomic      Atomic             Coordinates (Angstroms)
 Number     Number       Type             X           Y           Z
 ---------------------------------------------------------------------
      1          1           0        0.000000    0.454666    2.539667
      2          1           0        0.000000    0.000000    3.809500
      3          1           0        0.000000    0.000000    1.269833
      4          1           0       -0.000000   -0.454666    2.539667
      5          1           0        0.000000    0.454666    0.000000
      6          1           0       -0.000000   -0.454666    0.000000
      7          1           0        0.000000    0.000000   -1.269833
      8          1           0        0.000000    0.454666   -2.539667
      9          1           0       -0.000000   -0.454666   -2.539667
     10          1           0        0.000000    0.000000   -3.809500
 ---------------------------------------------------------------------

 SCF Done:  E(RHF) =  -4.89149708851     A.U. after    9 cycles
 E2 =    -0.1064343194D+00 EUMP2 =    -0.49979314079521D+01

 The electronic state is 1-AG.
 Alpha  occ. eigenvalues --   -0.75716  -0.71200  -0.64306  -0.33851  -0.21317
 Alpha virt. eigenvalues --    0.11904   0.17755   0.22094   0.27331   0.27837

 Mulliken charges:
               1
     1  H    0.185158
     2  H   -0.312381
     3  H   -0.152634
     4  H    0.185158
     5  H    0.094698
     6  H    0.094698
     7  H   -0.152634
     8  H    0.185158
     9  H    0.185158
    10  H   -0.312381
 Sum of Mulliken charges =  -0.00000

 Dipole moment (field-independent basis, Debye):
    X=             -0.0000    Y=              0.0000    Z=             -0.0000  Tot=              0.0000
 Quadrupole moment (field-independent basis, Debye-Ang):
   XX=            -13.2907   YY=            -10.7617   ZZ=            -40.5271
   XY=              0.0000   XZ=              0.0000   YZ=             -0.0000

 Normal termination of Gaussian 09 at Thu Feb  9 15:56:39 2017.
