 Gaussian 09, Revision E.01,
 Gaussian 09:  ES64L-G09RevE.01 30-Nov-2015

 ----------------------------------------------------------------------
 #rhf/gen scf(symm,tight,novaracc,noincfock,fulldiag) stable(crhf) geom
 =nocrowd test
 ----------------------------------------------------------------------

 hf stability analysis of h10 triangular lattice, y= 0.3182499246038607
 0
 ----------------------------------------------------------------------
 Symbolic Z-matrix:
 Charge =  0 Multiplicity = 1

                         Standard orientation:
 ---------------------------------------------------------------------
 Center     Atomic      Atomic             Coordinates (Angstroms)
 Number     Number       Type             X           Y           Z
 ---------------------------------------------------------------------
      1          1           0        0.000000    0.318250    3.628282
      2          1           0        0.000000    0.000000    5.442423
      3          1           0        0.000000    0.000000    1.814141
      4          1           0       -0.000000   -0.318250    3.628282
      5          1           0        0.000000    0.318250   -0.000000
      6          1           0       -0.000000   -0.318250    0.000000
      7          1           0        0.000000   -0.000000   -1.814141
      8          1           0        0.000000    0.318250   -3.628282
      9          1           0       -0.000000   -0.318250   -3.628282
     10          1           0        0.000000   -0.000000   -5.442423
 ---------------------------------------------------------------------

 SCF Done:  E(RHF) =  -4.73236065284     A.U. after   10 cycles
 E2 =    -0.2810879806D+00 EUMP2 =    -0.50134486334422D+01

 The electronic state is 1-AG.
 Alpha  occ. eigenvalues --   -0.70237  -0.69654  -0.68222  -0.28111  -0.24449
 Alpha virt. eigenvalues --   -0.07513  -0.03410   0.44413   0.45051   0.46873

 Mulliken charges:
               1
     1  H    0.036153
     2  H   -0.069420
     3  H   -0.013578
     4  H    0.036153
     5  H    0.010692
     6  H    0.010692
     7  H   -0.013578
     8  H    0.036153
     9  H    0.036153
    10  H   -0.069420
 Sum of Mulliken charges =  -0.00000

 Dipole moment (field-independent basis, Debye):
    X=             -0.0000    Y=              0.0000    Z=             -0.0000  Tot=              0.0000
 Quadrupole moment (field-independent basis, Debye-Ang):
   XX=            -13.6116   YY=            -12.5178   ZZ=            -26.2110
   XY=              0.0000   XZ=              0.0000   YZ=             -0.0000

 Normal termination of Gaussian 09 at Thu Feb  9 16:04:07 2017.
