 Gaussian 09, Revision E.01,
 Gaussian 09:  ES64L-G09RevE.01 30-Nov-2015

 ----------------------------------------------------------------------
 #rhf/gen scf(symm,tight,novaracc,noincfock,fulldiag) stable(crhf) geom
 =nocrowd test
 ----------------------------------------------------------------------

 hf stability analysis of h10 triangular lattice, y= 0.4652277704132604
 7
 ----------------------------------------------------------------------
 Symbolic Z-matrix:
 Charge =  0 Multiplicity = 1

                         Standard orientation:
 ---------------------------------------------------------------------
 Center     Atomic      Atomic             Coordinates (Angstroms)
 Number     Number       Type             X           Y           Z
 ---------------------------------------------------------------------
      1          1           0       -0.000000    0.465228    2.482011
      2          1           0       -0.000000    0.000000    3.723017
      3          1           0       -0.000000    0.000000    1.241006
      4          1           0       -0.000000   -0.465228    2.482011
      5          1           0       -0.000000    0.465228    0.000000
      6          1           0       -0.000000   -0.465228    0.000000
      7          1           0        0.000000    0.000000   -1.241006
      8          1           0        0.000000    0.465228   -2.482011
      9          1           0       -0.000000   -0.465228   -2.482011
     10          1           0        0.000000    0.000000   -3.723017
 ---------------------------------------------------------------------

 SCF Done:  E(RHF) =  -4.88082462625     A.U. after    9 cycles
 E2 =    -0.1022635955D+00 EUMP2 =    -0.49830882217876D+01

 The electronic state is 1-AG.
 Alpha  occ. eigenvalues --   -0.76303  -0.71401  -0.63953  -0.34055  -0.20767
 Alpha virt. eigenvalues --    0.13838   0.16036   0.20798   0.26334   0.30821

 Mulliken charges:
               1
     1  H    0.196627
     2  H   -0.331116
     3  H   -0.164313
     4  H    0.196627
     5  H    0.102175
     6  H    0.102175
     7  H   -0.164313
     8  H    0.196627
     9  H    0.196627
    10  H   -0.331116
 Sum of Mulliken charges =   0.00000

 Dipole moment (field-independent basis, Debye):
    X=             -0.0000    Y=              0.0000    Z=             -0.0000  Tot=              0.0000
 Quadrupole moment (field-independent basis, Debye-Ang):
   XX=            -13.2420   YY=            -10.5696   ZZ=            -41.0096
   XY=              0.0000   XZ=              0.0000   YZ=              0.0000

 Normal termination of Gaussian 09 at Thu Feb  9 15:55:56 2017.
