 Gaussian 09, Revision E.01,
 Gaussian 09:  ES64L-G09RevE.01 30-Nov-2015

 ----------------------------------------------------------------------
 #rhf/gen scf(symm,tight,novaracc,noincfock,fulldiag) stable(crhf) geom
 =nocrowd test
 ----------------------------------------------------------------------

 hf stability analysis of h10 triangular lattice, y= 0.7578490495659158
 1
 ----------------------------------------------------------------------
 Symbolic Z-matrix:
 Charge =  0 Multiplicity = 1

                         Standard orientation:
 ---------------------------------------------------------------------
 Center     Atomic      Atomic             Coordinates (Angstroms)
 Number     Number       Type             X           Y           Z
 ---------------------------------------------------------------------
      1          1           0       -0.000000    0.757849    1.523655
      2          1           0       -0.000000    0.000000    2.285483
      3          1           0       -0.000000    0.000000    0.761828
      4          1           0       -0.000000   -0.757849    1.523655
      5          1           0       -0.000000    0.757849    0.000000
      6          1           0       -0.000000   -0.757849    0.000000
      7          1           0        0.000000   -0.000000   -0.761828
      8          1           0        0.000000    0.757849   -1.523655
      9          1           0       -0.000000   -0.757849   -1.523655
     10          1           0        0.000000   -0.000000   -2.285483
 ---------------------------------------------------------------------

 SCF Done:  E(RHF) =  -4.85435223659     A.U. after    8 cycles
 E2 =    -0.9753628856D-01 EUMP2 =    -0.49518885251502D+01

 The electronic state is 1-AG.
 Alpha  occ. eigenvalues --   -0.90962  -0.74668  -0.51960  -0.46177  -0.27538
 Alpha virt. eigenvalues --   -0.02088   0.15107   0.34395   0.52215   0.55165

 Mulliken charges:
               1
     1  H   -0.210219
     2  H    0.229936
     3  H    0.153343
     4  H   -0.210219
     5  H    0.037159
     6  H    0.037159
     7  H    0.153343
     8  H   -0.210219
     9  H   -0.210219
    10  H    0.229936
 Sum of Mulliken charges =   0.00000

 Dipole moment (field-independent basis, Debye):
    X=              0.0000    Y=              0.0000    Z=              0.0000  Tot=              0.0000
 Quadrupole moment (field-independent basis, Debye-Ang):
   XX=            -13.0041   YY=            -18.5910   ZZ=            -10.9789
   XY=             -0.0000   XZ=             -0.0000   YZ=              0.0000

 Normal termination of Gaussian 09 at Thu Feb  9 15:34:54 2017.
