 Gaussian 09, Revision E.01,
 Gaussian 09:  ES64L-G09RevE.01 30-Nov-2015

 ----------------------------------------------------------------------
 #rhf/gen scf(symm,tight,novaracc,noincfock,fulldiag) stable(crhf) geom
 =nocrowd test
 ----------------------------------------------------------------------

 hf stability analysis of h10 triangular lattice, y= 0.5135390923077319
 8
 ----------------------------------------------------------------------
 Symbolic Z-matrix:
 Charge =  0 Multiplicity = 1

                         Standard orientation:
 ---------------------------------------------------------------------
 Center     Atomic      Atomic             Coordinates (Angstroms)
 Number     Number       Type             X           Y           Z
 ---------------------------------------------------------------------
      1          1           0        0.000000    0.513539    2.248515
      2          1           0        0.000000   -0.000000    3.372773
      3          1           0        0.000000   -0.000000    1.124258
      4          1           0       -0.000000   -0.513539    2.248515
      5          1           0        0.000000    0.513539    0.000000
      6          1           0       -0.000000   -0.513539   -0.000000
      7          1           0        0.000000    0.000000   -1.124258
      8          1           0        0.000000    0.513539   -2.248515
      9          1           0       -0.000000   -0.513539   -2.248515
     10          1           0        0.000000    0.000000   -3.372773
 ---------------------------------------------------------------------

 SCF Done:  E(RHF) =  -4.79594968190     A.U. after    9 cycles
 E2 =    -0.9039492286D-01 EUMP2 =    -0.48863446047613D+01

 The electronic state is 1-AG.
 Alpha  occ. eigenvalues --   -0.78897  -0.72233  -0.62132  -0.34343  -0.17600
 Alpha virt. eigenvalues --    0.08774   0.15560   0.22586   0.23138   0.44429

 Mulliken charges:
               1
     1  H    0.246117
     2  H   -0.411498
     3  H   -0.216967
     4  H    0.246117
     5  H    0.136231
     6  H    0.136231
     7  H   -0.216967
     8  H    0.246117
     9  H    0.246117
    10  H   -0.411498
 Sum of Mulliken charges =   0.00000

 Dipole moment (field-independent basis, Debye):
    X=             -0.0000    Y=              0.0000    Z=             -0.0000  Tot=              0.0000
 Quadrupole moment (field-independent basis, Debye-Ang):
   XX=            -12.9976   YY=             -9.6189   ZZ=            -42.3343
   XY=              0.0000   XZ=              0.0000   YZ=              0.0000

 Normal termination of Gaussian 09 at Thu Feb  9 15:52:30 2017.
