 Gaussian 09, Revision E.01,
 Gaussian 09:  ES64L-G09RevE.01 30-Nov-2015

 ----------------------------------------------------------------------
 #rhf/gen scf(symm,tight,novaracc,noincfock,fulldiag) stable(crhf) geom
 =nocrowd test
 ----------------------------------------------------------------------

 hf stability analysis of h10 triangular lattice, y= 0.2911029360346469
 9
 ----------------------------------------------------------------------
 Symbolic Z-matrix:
 Charge =  0 Multiplicity = 1

                         Standard orientation:
 ---------------------------------------------------------------------
 Center     Atomic      Atomic             Coordinates (Angstroms)
 Number     Number       Type             X           Y           Z
 ---------------------------------------------------------------------
      1          1           0        0.000000    0.291103    3.966640
      2          1           0        0.000000   -0.000000    5.949960
      3          1           0        0.000000   -0.000000    1.983320
      4          1           0       -0.000000   -0.291103    3.966640
      5          1           0        0.000000    0.291103    0.000000
      6          1           0       -0.000000   -0.291103   -0.000000
      7          1           0        0.000000    0.000000   -1.983320
      8          1           0        0.000000    0.291103   -3.966640
      9          1           0       -0.000000   -0.291103   -3.966640
     10          1           0        0.000000    0.000000   -5.949960
 ---------------------------------------------------------------------

 SCF Done:  E(RHF) =  -4.62000174383     A.U. after    9 cycles
 E2 =    -0.3653334621D+00 EUMP2 =    -0.49853352059047D+01

 The electronic state is 1-AG.
 Alpha  occ. eigenvalues --   -0.70369  -0.70086  -0.69283  -0.26817  -0.24400
 Alpha virt. eigenvalues --   -0.09820  -0.07182   0.50578   0.50936   0.52106

 Mulliken charges:
               1
     1  H    0.016407
     2  H   -0.036779
     3  H    0.001269
     4  H    0.016407
     5  H    0.002697
     6  H    0.002697
     7  H    0.001269
     8  H    0.016407
     9  H    0.016407
    10  H   -0.036779
 Sum of Mulliken charges =  -0.00000

 Dipole moment (field-independent basis, Debye):
    X=             -0.0000    Y=             -0.0000    Z=             -0.0000  Tot=              0.0000
 Quadrupole moment (field-independent basis, Debye-Ang):
   XX=            -13.6017   YY=            -12.6961   ZZ=            -22.3727
   XY=              0.0000   XZ=              0.0000   YZ=             -0.0000

 Normal termination of Gaussian 09 at Thu Feb  9 16:05:11 2017.
