 Gaussian 09, Revision E.01,
 Gaussian 09:  ES64L-G09RevE.01 30-Nov-2015

 ----------------------------------------------------------------------
 #rhf/gen scf(symm,tight,novaracc,noincfock,fulldiag) stable(crhf) geom
 =nocrowd test
 ----------------------------------------------------------------------

 hf stability analysis of h10 triangular lattice, y= 0.3577645550249273
 8
 ----------------------------------------------------------------------
 Symbolic Z-matrix:
 Charge =  0 Multiplicity = 1

                         Standard orientation:
 ---------------------------------------------------------------------
 Center     Atomic      Atomic             Coordinates (Angstroms)
 Number     Number       Type             X           Y           Z
 ---------------------------------------------------------------------
      1          1           0        0.000000    0.357765    3.227543
      2          1           0        0.000000   -0.000000    4.841315
      3          1           0        0.000000   -0.000000    1.613772
      4          1           0       -0.000000   -0.357765    3.227543
      5          1           0       -0.000000    0.357765    0.000000
      6          1           0       -0.000000   -0.357765   -0.000000
      7          1           0        0.000000    0.000000   -1.613772
      8          1           0        0.000000    0.357765   -3.227543
      9          1           0       -0.000000   -0.357765   -3.227543
     10          1           0        0.000000    0.000000   -4.841315
 ---------------------------------------------------------------------

 SCF Done:  E(RHF) =  -4.84035718511     A.U. after    9 cycles
 E2 =    -0.1957356988D+00 EUMP2 =    -0.50360928839569D+01

 The electronic state is 1-AG.
 Alpha  occ. eigenvalues --   -0.71036  -0.69677  -0.67037  -0.30103  -0.24199
 Alpha virt. eigenvalues --   -0.03146   0.03727   0.35849   0.37149   0.39941

 Mulliken charges:
               1
     1  H    0.075215
     2  H   -0.132805
     3  H   -0.047474
     4  H    0.075215
     5  H    0.029849
     6  H    0.029849
     7  H   -0.047474
     8  H    0.075215
     9  H    0.075215
    10  H   -0.132805
 Sum of Mulliken charges =  -0.00000

 Dipole moment (field-independent basis, Debye):
    X=             -0.0000    Y=              0.0000    Z=             -0.0000  Tot=              0.0000
 Quadrupole moment (field-independent basis, Debye-Ang):
   XX=            -13.5895   YY=            -12.1643   ZZ=            -31.7704
   XY=              0.0000   XZ=              0.0000   YZ=              0.0000

 Normal termination of Gaussian 09 at Thu Feb  9 16:02:22 2017.
