 Gaussian 09, Revision E.01,
 Gaussian 09:  ES64L-G09RevE.01 30-Nov-2015

 ----------------------------------------------------------------------
 #rhf/gen scf(symm,tight,novaracc,noincfock,fulldiag) stable(crhf) geom
 =nocrowd test
 ----------------------------------------------------------------------

 hf stability analysis of h10 triangular lattice, y= 0.5552263900115772
 5
 ----------------------------------------------------------------------
 Symbolic Z-matrix:
 Charge =  0 Multiplicity = 1

                         Standard orientation:
 ---------------------------------------------------------------------
 Center     Atomic      Atomic             Coordinates (Angstroms)
 Number     Number       Type             X           Y           Z
 ---------------------------------------------------------------------
      1          1           0        0.000000    0.555226    2.079693
      2          1           0       -0.000000    0.000000    3.119540
      3          1           0       -0.000000    0.000000    1.039847
      4          1           0       -0.000000   -0.555226    2.079693
      5          1           0        0.000000    0.555226   -0.000000
      6          1           0       -0.000000   -0.555226    0.000000
      7          1           0        0.000000   -0.000000   -1.039847
      8          1           0        0.000000    0.555226   -2.079693
      9          1           0       -0.000000   -0.555226   -2.079693
     10          1           0        0.000000   -0.000000   -3.119540
 ---------------------------------------------------------------------

 SCF Done:  E(RHF) =  -4.72722062543     A.U. after    9 cycles
 E2 =    -0.1640798642D+00 EUMP2 =    -0.48913004896185D+01

 The electronic state is 1-AG.
 Alpha  occ. eigenvalues --   -0.77591  -0.71809  -0.57228  -0.31621  -0.17449
 Alpha virt. eigenvalues --    0.05123   0.06642   0.22362   0.33158   0.61085

 Mulliken charges:
               1
     1  H    0.102654
     2  H   -0.032812
     3  H   -0.153641
     4  H    0.102654
     5  H   -0.018855
     6  H   -0.018855
     7  H   -0.153641
     8  H    0.102654
     9  H    0.102654
    10  H   -0.032812
 Sum of Mulliken charges =  -0.00000

 Dipole moment (field-independent basis, Debye):
    X=             -0.0000    Y=              0.0000    Z=             -0.0000  Tot=              0.0000
 Quadrupole moment (field-independent basis, Debye-Ang):
   XX=            -13.2127   YY=            -14.4133   ZZ=            -10.4334
   XY=             -0.0000   XZ=              0.0000   YZ=              0.0000

 Normal termination of Gaussian 09 at Thu Feb  9 15:49:27 2017.
