 Gaussian 09, Revision E.01,
 Gaussian 09:  ES64L-G09RevE.01 30-Nov-2015

 ----------------------------------------------------------------------
 #rhf/gen scf(symm,tight,novaracc,noincfock,fulldiag) stable(crhf) geom
 =nocrowd test
 ----------------------------------------------------------------------

 hf stability analysis of h10 triangular lattice, y= 0.3960588352140311
 8
 ----------------------------------------------------------------------
 Symbolic Z-matrix:
 Charge =  0 Multiplicity = 1

                         Standard orientation:
 ---------------------------------------------------------------------
 Center     Atomic      Atomic             Coordinates (Angstroms)
 Number     Number       Type             X           Y           Z
 ---------------------------------------------------------------------
      1          1           0       -0.000000    0.396059    2.915477
      2          1           0        0.000000    0.000000    4.373216
      3          1           0        0.000000    0.000000    1.457739
      4          1           0       -0.000000   -0.396059    2.915477
      5          1           0       -0.000000    0.396059   -0.000000
      6          1           0       -0.000000   -0.396059    0.000000
      7          1           0        0.000000   -0.000000   -1.457739
      8          1           0        0.000000    0.396059   -2.915477
      9          1           0       -0.000000   -0.396059   -2.915477
     10          1           0        0.000000   -0.000000   -4.373216
 ---------------------------------------------------------------------

 SCF Done:  E(RHF) =  -4.89418542682     A.U. after    9 cycles
 E2 =    -0.1458902496D+00 EUMP2 =    -0.50400756764073D+01

 The electronic state is 1-AG.
 Alpha  occ. eigenvalues --   -0.72603  -0.70140  -0.66024  -0.31910  -0.23494
 Alpha virt. eigenvalues --    0.02140   0.12315   0.28187   0.30466   0.34182

 Mulliken charges:
               1
     1  H    0.118606
     2  H   -0.203456
     3  H   -0.087710
     4  H    0.118606
     5  H    0.053953
     6  H    0.053953
     7  H   -0.087710
     8  H    0.118606
     9  H    0.118606
    10  H   -0.203456
 Sum of Mulliken charges =  -0.00000

 Dipole moment (field-independent basis, Debye):
    X=             -0.0000    Y=              0.0000    Z=              0.0000  Tot=              0.0000
 Quadrupole moment (field-independent basis, Debye-Ang):
   XX=            -13.5101   YY=            -11.6963   ZZ=            -36.2148
   XY=              0.0000   XZ=              0.0000   YZ=             -0.0000

 Normal termination of Gaussian 09 at Thu Feb  9 16:00:26 2017.
