 Gaussian 09, Revision E.01,
 Gaussian 09:  ES64L-G09RevE.01 30-Nov-2015

 ----------------------------------------------------------------------
 #rhf/gen scf(symm,tight,novaracc,noincfock,fulldiag) stable(crhf) geom
 =nocrowd test
 ----------------------------------------------------------------------

 hf stability analysis of h10 triangular lattice, y= 0.3636356245921668
 1
 ----------------------------------------------------------------------
 Symbolic Z-matrix:
 Charge =  0 Multiplicity = 1

                         Standard orientation:
 ---------------------------------------------------------------------
 Center     Atomic      Atomic             Coordinates (Angstroms)
 Number     Number       Type             X           Y           Z
 ---------------------------------------------------------------------
      1          1           0        0.000000    0.363636    3.175433
      2          1           0        0.000000    0.000000    4.763149
      3          1           0        0.000000    0.000000    1.587716
      4          1           0       -0.000000   -0.363636    3.175433
      5          1           0       -0.000000    0.363636   -0.000000
      6          1           0       -0.000000   -0.363636    0.000000
      7          1           0        0.000000   -0.000000   -1.587716
      8          1           0        0.000000    0.363636   -3.175433
      9          1           0       -0.000000   -0.363636   -3.175433
     10          1           0        0.000000   -0.000000   -4.763149
 ---------------------------------------------------------------------

 SCF Done:  E(RHF) =  -4.85165980896     A.U. after    9 cycles
 E2 =    -0.1863198491D+00 EUMP2 =    -0.50379796580278D+01

 The electronic state is 1-AG.
 Alpha  occ. eigenvalues --   -0.71235  -0.69727  -0.66880  -0.30396  -0.24123
 Alpha virt. eigenvalues --   -0.02400   0.04944   0.34631   0.36059   0.38993

 Mulliken charges:
               1
     1  H    0.081669
     2  H   -0.143281
     3  H   -0.053341
     4  H    0.081669
     5  H    0.033285
     6  H    0.033285
     7  H   -0.053341
     8  H    0.081669
     9  H    0.081669
    10  H   -0.143281
 Sum of Mulliken charges =  -0.00000

 Dipole moment (field-independent basis, Debye):
    X=             -0.0000    Y=             -0.0000    Z=              0.0000  Tot=              0.0000
 Quadrupole moment (field-independent basis, Debye-Ang):
   XX=            -13.5812   YY=            -12.1006   ZZ=            -32.5287
   XY=              0.0000   XZ=              0.0000   YZ=             -0.0000

 Normal termination of Gaussian 09 at Thu Feb  9 16:02:06 2017.
