 Gaussian 09, Revision E.01,
 Gaussian 09:  ES64L-G09RevE.01 30-Nov-2015

 ----------------------------------------------------------------------
 #rhf/gen scf(symm,tight,novaracc,noincfock,fulldiag) stable(crhf) geom
 =nocrowd test
 ----------------------------------------------------------------------

 hf stability analysis of h10 triangular lattice, y= 0.4781099763290523
 9
 ----------------------------------------------------------------------
 Symbolic Z-matrix:
 Charge =  0 Multiplicity = 1

                         Standard orientation:
 ---------------------------------------------------------------------
 Center     Atomic      Atomic             Coordinates (Angstroms)
 Number     Number       Type             X           Y           Z
 ---------------------------------------------------------------------
      1          1           0        0.000000    0.478110    2.415136
      2          1           0       -0.000000   -0.000000    3.622704
      3          1           0       -0.000000   -0.000000    1.207568
      4          1           0       -0.000000   -0.478110    2.415136
      5          1           0        0.000000    0.478110    0.000000
      6          1           0       -0.000000   -0.478110   -0.000000
      7          1           0        0.000000    0.000000   -1.207568
      8          1           0        0.000000    0.478110   -2.415136
      9          1           0       -0.000000   -0.478110   -2.415136
     10          1           0        0.000000    0.000000   -3.622704
 ---------------------------------------------------------------------

 SCF Done:  E(RHF) =  -4.86384899129     A.U. after    9 cycles
 E2 =    -0.9803435167D-01 EUMP2 =    -0.49618833429607D+01

 The electronic state is 1-AG.
 Alpha  occ. eigenvalues --   -0.77014  -0.71640  -0.63501  -0.34236  -0.20028
 Alpha virt. eigenvalues --    0.14005   0.16253   0.19294   0.25208   0.34487

 Mulliken charges:
               1
     1  H    0.210316
     2  H   -0.353434
     3  H   -0.178495
     4  H    0.210316
     5  H    0.111296
     6  H    0.111296
     7  H   -0.178495
     8  H    0.210316
     9  H    0.210316
    10  H   -0.353434
 Sum of Mulliken charges =  -0.00000

 Dipole moment (field-independent basis, Debye):
    X=             -0.0000    Y=             -0.0000    Z=              0.0000  Tot=              0.0000
 Quadrupole moment (field-independent basis, Debye-Ang):
   XX=            -13.1798   YY=            -10.3271   ZZ=            -41.4954
   XY=              0.0000   XZ=              0.0000   YZ=             -0.0000

 Normal termination of Gaussian 09 at Thu Feb  9 15:55:03 2017.
