 Gaussian 09, Revision E.01,
 Gaussian 09:  ES64L-G09RevE.01 30-Nov-2015

 ----------------------------------------------------------------------
 #rhf/gen scf(symm,tight,novaracc,noincfock,fulldiag) stable(crhf) geom
 =nocrowd test
 ----------------------------------------------------------------------

 hf stability analysis of h10 triangular lattice, y= 0.6716215332591580
 8
 ----------------------------------------------------------------------
 Symbolic Z-matrix:
 Charge =  0 Multiplicity = 1

                         Standard orientation:
 ---------------------------------------------------------------------
 Center     Atomic      Atomic             Coordinates (Angstroms)
 Number     Number       Type             X           Y           Z
 ---------------------------------------------------------------------
      1          1           0        0.000000    0.671622    1.719273
      2          1           0        0.000000    0.000000    2.578909
      3          1           0        0.000000    0.000000    0.859636
      4          1           0       -0.000000   -0.671622    1.719273
      5          1           0       -0.000000    0.671622    0.000000
      6          1           0       -0.000000   -0.671622    0.000000
      7          1           0        0.000000   -0.000000   -0.859636
      8          1           0        0.000000    0.671622   -1.719273
      9          1           0       -0.000000   -0.671622   -1.719273
     10          1           0        0.000000   -0.000000   -2.578909
 ---------------------------------------------------------------------

 SCF Done:  E(RHF) =  -4.82036115155     A.U. after    8 cycles
 E2 =    -0.1143834427D+00 EUMP2 =    -0.49347445942503D+01

 The electronic state is 1-AG.
 Alpha  occ. eigenvalues --   -0.83321  -0.73277  -0.54547  -0.32247  -0.28222
 Alpha virt. eigenvalues --   -0.01269   0.20018   0.21699   0.52047   0.69035

 Mulliken charges:
               1
     1  H    0.224015
     2  H   -0.216718
     3  H   -0.267196
     4  H    0.224015
     5  H    0.035884
     6  H    0.035884
     7  H   -0.267196
     8  H    0.224015
     9  H    0.224015
    10  H   -0.216718
 Sum of Mulliken charges =  -0.00000

 Dipole moment (field-independent basis, Debye):
    X=             -0.0000    Y=             -0.0000    Z=             -0.0000  Tot=              0.0000
 Quadrupole moment (field-independent basis, Debye-Ang):
   XX=            -12.9524   YY=            -12.1976   ZZ=            -18.7890
   XY=              0.0000   XZ=              0.0000   YZ=             -0.0000

 Normal termination of Gaussian 09 at Thu Feb  9 15:40:48 2017.
