 Gaussian 09, Revision E.01,
 Gaussian 09:  ES64L-G09RevE.01 30-Nov-2015

 ----------------------------------------------------------------------
 #rhf/gen scf(symm,tight,novaracc,noincfock,fulldiag) stable(crhf) geom
 =nocrowd test
 ----------------------------------------------------------------------

 hf stability analysis of h10 triangular lattice, y= 0.3871053975787834
 8
 ----------------------------------------------------------------------
 Symbolic Z-matrix:
 Charge =  0 Multiplicity = 1

                         Standard orientation:
 ---------------------------------------------------------------------
 Center     Atomic      Atomic             Coordinates (Angstroms)
 Number     Number       Type             X           Y           Z
 ---------------------------------------------------------------------
      1          1           0        0.000000    0.387105    2.982910
      2          1           0        0.000000    0.000000    4.474365
      3          1           0        0.000000    0.000000    1.491455
      4          1           0       -0.000000   -0.387105    2.982910
      5          1           0       -0.000000    0.387105    0.000000
      6          1           0       -0.000000   -0.387105    0.000000
      7          1           0        0.000000    0.000000   -1.491455
      8          1           0        0.000000    0.387105   -2.982910
      9          1           0       -0.000000   -0.387105   -2.982910
     10          1           0        0.000000    0.000000   -4.474365
 ---------------------------------------------------------------------

 SCF Done:  E(RHF) =  -4.88572053453     A.U. after    9 cycles
 E2 =    -0.1553219222D+00 EUMP2 =    -0.50410424567382D+01

 The electronic state is 1-AG.
 Alpha  occ. eigenvalues --   -0.72186  -0.70006  -0.66261  -0.31514  -0.23705
 Alpha virt. eigenvalues --    0.00818   0.10175   0.29918   0.31938   0.35437

 Mulliken charges:
               1
     1  H    0.108277
     2  H   -0.186591
     3  H   -0.077981
     4  H    0.108277
     5  H    0.048018
     6  H    0.048018
     7  H   -0.077981
     8  H    0.108277
     9  H    0.108277
    10  H   -0.186591
 Sum of Mulliken charges =  -0.00000

 Dipole moment (field-independent basis, Debye):
    X=             -0.0000    Y=              0.0000    Z=             -0.0000  Tot=              0.0000
 Quadrupole moment (field-independent basis, Debye-Ang):
   XX=            -13.5338   YY=            -11.8167   ZZ=            -35.2881
   XY=              0.0000   XZ=              0.0000   YZ=             -0.0000

 Normal termination of Gaussian 09 at Thu Feb  9 16:00:57 2017.
