 Gaussian 09, Revision E.01,
 Gaussian 09:  ES64L-G09RevE.01 30-Nov-2015

 ----------------------------------------------------------------------
 #rhf/gen scf(symm,tight,novaracc,noincfock,fulldiag) stable(crhf) geom
 =nocrowd test
 ----------------------------------------------------------------------

 hf stability analysis of h10 triangular lattice, y= 0.2564775935039079
 2
 ----------------------------------------------------------------------
 Symbolic Z-matrix:
 Charge =  0 Multiplicity = 1

                         Standard orientation:
 ---------------------------------------------------------------------
 Center     Atomic      Atomic             Coordinates (Angstroms)
 Number     Number       Type             X           Y           Z
 ---------------------------------------------------------------------
      1          1           0       -0.000000    0.256478    4.502150
      2          1           0       -0.000000    0.000000    6.753225
      3          1           0       -0.000000    0.000000    2.251075
      4          1           0       -0.000000   -0.256478    4.502150
      5          1           0        0.000000    0.256478    0.000000
      6          1           0       -0.000000   -0.256478    0.000000
      7          1           0        0.000000   -0.000000   -2.251075
      8          1           0        0.000000    0.256478   -4.502150
      9          1           0       -0.000000   -0.256478   -4.502150
     10          1           0        0.000000   -0.000000   -6.753225
 ---------------------------------------------------------------------

 SCF Done:  E(RHF) =  -4.41314661203     A.U. after   11 cycles
 E2 =    -0.5015151078D+00 EUMP2 =    -0.49146617198708D+01

 The electronic state is 1-AG.
 Alpha  occ. eigenvalues --   -0.71478  -0.71373  -0.71090  -0.25357  -0.24127
 Alpha virt. eigenvalues --   -0.11963  -0.10660   0.58612   0.58761   0.59257

 Mulliken charges:
               1
     1  H    0.002386
     2  H   -0.011667
     3  H    0.008268
     4  H    0.002386
     5  H   -0.001373
     6  H   -0.001373
     7  H    0.008268
     8  H    0.002386
     9  H    0.002386
    10  H   -0.011667
 Sum of Mulliken charges =   0.00000

 Dipole moment (field-independent basis, Debye):
    X=             -0.0000    Y=              0.0000    Z=              0.0000  Tot=              0.0000
 Quadrupole moment (field-independent basis, Debye-Ang):
   XX=            -13.5842   YY=            -12.8797   ZZ=            -18.3070
   XY=              0.0000   XZ=              0.0000   YZ=             -0.0000

 Normal termination of Gaussian 09 at Thu Feb  9 16:06:24 2017.
