 Gaussian 09, Revision E.01,
 Gaussian 09:  ES64L-G09RevE.01 30-Nov-2015

 ----------------------------------------------------------------------
 #rhf/gen scf(symm,tight,novaracc,noincfock,fulldiag) stable(crhf) geom
 =nocrowd test
 ----------------------------------------------------------------------

 hf stability analysis of h10 triangular lattice, y= 0.4388833872677621
 6
 ----------------------------------------------------------------------
 Symbolic Z-matrix:
 Charge =  0 Multiplicity = 1

                         Standard orientation:
 ---------------------------------------------------------------------
 Center     Atomic      Atomic             Coordinates (Angstroms)
 Number     Number       Type             X           Y           Z
 ---------------------------------------------------------------------
      1          1           0        0.000000    0.438883    2.630996
      2          1           0       -0.000000   -0.000000    3.946494
      3          1           0       -0.000000   -0.000000    1.315498
      4          1           0       -0.000000   -0.438883    2.630996
      5          1           0       -0.000000    0.438883    0.000000
      6          1           0       -0.000000   -0.438883   -0.000000
      7          1           0        0.000000    0.000000   -1.315498
      8          1           0        0.000000    0.438883   -2.630996
      9          1           0       -0.000000   -0.438883   -2.630996
     10          1           0        0.000000    0.000000   -3.946494
 ---------------------------------------------------------------------

 SCF Done:  E(RHF) =  -4.90181879941     A.U. after    9 cycles
 E2 =    -0.1140418304D+00 EUMP2 =    -0.50158606298414D+01

 The electronic state is 1-AG.
 Alpha  occ. eigenvalues --   -0.74840  -0.70899  -0.64806  -0.33457  -0.22046
 Alpha virt. eigenvalues --    0.09103   0.20413   0.23451   0.24145   0.28950

 Mulliken charges:
               1
     1  H    0.167647
     2  H   -0.283729
     3  H   -0.135119
     4  H    0.167647
     5  H    0.083553
     6  H    0.083553
     7  H   -0.135119
     8  H    0.167647
     9  H    0.167647
    10  H   -0.283729
 Sum of Mulliken charges =   0.00000

 Dipole moment (field-independent basis, Debye):
    X=             -0.0000    Y=             -0.0000    Z=             -0.0000  Tot=              0.0000
 Quadrupole moment (field-independent basis, Debye-Ang):
   XX=            -13.3591   YY=            -11.0363   ZZ=            -39.6509
   XY=              0.0000   XZ=              0.0000   YZ=             -0.0000

 Normal termination of Gaussian 09 at Thu Feb  9 15:57:44 2017.
