 Gaussian 09, Revision E.01,
 Gaussian 09:  ES64L-G09RevE.01 30-Nov-2015

 ----------------------------------------------------------------------
 #rhf/gen scf(symm,tight,novaracc,noincfock,fulldiag) stable(crhf) geom
 =nocrowd test
 ----------------------------------------------------------------------

 hf stability analysis of h10 triangular lattice, y= 0.2524679482951864
 3
 ----------------------------------------------------------------------
 Symbolic Z-matrix:
 Charge =  0 Multiplicity = 1

                         Standard orientation:
 ---------------------------------------------------------------------
 Center     Atomic      Atomic             Coordinates (Angstroms)
 Number     Number       Type             X           Y           Z
 ---------------------------------------------------------------------
      1          1           0       -0.000000    0.252468    4.573652
      2          1           0       -0.000000    0.000000    6.860478
      3          1           0       -0.000000    0.000000    2.286826
      4          1           0       -0.000000   -0.252468    4.573652
      5          1           0        0.000000    0.252468    0.000000
      6          1           0       -0.000000   -0.252468    0.000000
      7          1           0        0.000000    0.000000   -2.286826
      8          1           0        0.000000    0.252468   -4.573652
      9          1           0       -0.000000   -0.252468   -4.573652
     10          1           0        0.000000    0.000000   -6.860478
 ---------------------------------------------------------------------

 SCF Done:  E(RHF) =  -4.38318515603     A.U. after   10 cycles
 E2 =    -0.5189847324D+00 EUMP2 =    -0.49021698883998D+01

 The electronic state is 1-AG.
 Alpha  occ. eigenvalues --   -0.71673  -0.71578  -0.71335  -0.25203  -0.24081
 Alpha virt. eigenvalues --   -0.12159  -0.10974   0.59553   0.59686   0.60123

 Mulliken charges:
               1
     1  H    0.001529
     2  H   -0.009896
     3  H    0.008347
     4  H    0.001529
     5  H   -0.001509
     6  H   -0.001509
     7  H    0.008347
     8  H    0.001529
     9  H    0.001529
    10  H   -0.009896
 Sum of Mulliken charges =   0.00000

 Dipole moment (field-independent basis, Debye):
    X=             -0.0000    Y=             -0.0000    Z=              0.0000  Tot=              0.0000
 Quadrupole moment (field-independent basis, Debye-Ang):
   XX=            -13.5829   YY=            -12.8994   ZZ=            -17.9269
   XY=              0.0000   XZ=              0.0000   YZ=             -0.0000

 Normal termination of Gaussian 09 at Thu Feb  9 16:06:32 2017.
