 Gaussian 09, Revision E.01,
 Gaussian 09:  ES64L-G09RevE.01 30-Nov-2015

 ----------------------------------------------------------------------
 #rhf/gen scf(symm,tight,novaracc,noincfock,fulldiag) stable(crhf) geom
 =nocrowd test
 ----------------------------------------------------------------------

 hf stability analysis of h10 triangular lattice, y= 0.5493918787803220
 3
 ----------------------------------------------------------------------
 Symbolic Z-matrix:
 Charge =  0 Multiplicity = 1

                         Standard orientation:
 ---------------------------------------------------------------------
 Center     Atomic      Atomic             Coordinates (Angstroms)
 Number     Number       Type             X           Y           Z
 ---------------------------------------------------------------------
      1          1           0        0.000000    0.549392    2.101779
      2          1           0        0.000000    0.000000    3.152669
      3          1           0        0.000000    0.000000    1.050890
      4          1           0       -0.000000   -0.549392    2.101779
      5          1           0       -0.000000    0.549392    0.000000
      6          1           0       -0.000000   -0.549392    0.000000
      7          1           0        0.000000    0.000000   -1.050890
      8          1           0        0.000000    0.549392   -2.101779
      9          1           0       -0.000000   -0.549392   -2.101779
     10          1           0        0.000000    0.000000   -3.152669
 ---------------------------------------------------------------------

 SCF Done:  E(RHF) =  -4.71659239125     A.U. after    9 cycles
 E2 =    -0.1679557462D+00 EUMP2 =    -0.48845481374353D+01

 The electronic state is 1-AG.
 Alpha  occ. eigenvalues --   -0.77239  -0.71652  -0.57277  -0.31632  -0.16570
 Alpha virt. eigenvalues --    0.04378   0.07164   0.22620   0.32040   0.59884

 Mulliken charges:
               1
     1  H    0.095623
     2  H   -0.022876
     3  H   -0.145340
     4  H    0.095623
     5  H   -0.023031
     6  H   -0.023031
     7  H   -0.145340
     8  H    0.095623
     9  H    0.095623
    10  H   -0.022876
 Sum of Mulliken charges =  -0.00000

 Dipole moment (field-independent basis, Debye):
    X=             -0.0000    Y=             -0.0000    Z=             -0.0000  Tot=              0.0000
 Quadrupole moment (field-independent basis, Debye-Ang):
   XX=            -13.2246   YY=            -14.5064   ZZ=             -9.8306
   XY=             -0.0000   XZ=             -0.0000   YZ=              0.0000

 Normal termination of Gaussian 09 at Thu Feb  9 15:49:53 2017.
