 Gaussian 09, Revision E.01,
 Gaussian 09:  ES64L-G09RevE.01 30-Nov-2015

 ----------------------------------------------------------------------
 #rhf/gen scf(symm,tight,novaracc,noincfock,fulldiag) stable(crhf) geom
 =nocrowd test
 ----------------------------------------------------------------------

 hf stability analysis of h10 triangular lattice, y= 0.4914375409898836
 3
 ----------------------------------------------------------------------
 Symbolic Z-matrix:
 Charge =  0 Multiplicity = 1

                         Standard orientation:
 ---------------------------------------------------------------------
 Center     Atomic      Atomic             Coordinates (Angstroms)
 Number     Number       Type             X           Y           Z
 ---------------------------------------------------------------------
      1          1           0        0.000000    0.491438    2.349638
      2          1           0        0.000000    0.000000    3.524458
      3          1           0        0.000000    0.000000    1.174819
      4          1           0       -0.000000   -0.491438    2.349638
      5          1           0        0.000000    0.491438   -0.000000
      6          1           0       -0.000000   -0.491438    0.000000
      7          1           0        0.000000   -0.000000   -1.174819
      8          1           0        0.000000    0.491438   -2.349638
      9          1           0       -0.000000   -0.491438   -2.349638
     10          1           0        0.000000   -0.000000   -3.524458
 ---------------------------------------------------------------------

 SCF Done:  E(RHF) =  -4.84185950386     A.U. after    9 cycles
 E2 =    -0.9452942487D-01 EUMP2 =    -0.49363889287286D+01

 The electronic state is 1-AG.
 Alpha  occ. eigenvalues --   -0.77739  -0.71877  -0.63008  -0.34344  -0.19183
 Alpha virt. eigenvalues --    0.11976   0.17824   0.18808   0.24143   0.38275

 Mulliken charges:
               1
     1  H    0.224111
     2  H   -0.375863
     3  H   -0.193073
     4  H    0.224111
     5  H    0.120713
     6  H    0.120713
     7  H   -0.193073
     8  H    0.224111
     9  H    0.224111
    10  H   -0.375863
 Sum of Mulliken charges =  -0.00000

 Dipole moment (field-independent basis, Debye):
    X=             -0.0000    Y=              0.0000    Z=              0.0000  Tot=              0.0000
 Quadrupole moment (field-independent basis, Debye-Ang):
   XX=            -13.1130   YY=            -10.0674   ZZ=            -41.8903
   XY=              0.0000   XZ=              0.0000   YZ=             -0.0000

 Normal termination of Gaussian 09 at Thu Feb  9 15:54:06 2017.
