 Gaussian 09, Revision E.01,
 Gaussian 09:  ES64L-G09RevE.01 30-Nov-2015

 ----------------------------------------------------------------------
 #rhf/gen scf(symm,tight,novaracc,noincfock,fulldiag) stable(crhf) geom
 =nocrowd test
 ----------------------------------------------------------------------

 hf stability analysis of h10 triangular lattice, y= 0.6458827701216195
 4
 ----------------------------------------------------------------------
 Symbolic Z-matrix:
 Charge =  0 Multiplicity = 1

                         Standard orientation:
 ---------------------------------------------------------------------
 Center     Atomic      Atomic             Coordinates (Angstroms)
 Number     Number       Type             X           Y           Z
 ---------------------------------------------------------------------
      1          1           0       -0.000000    0.645883    1.787787
      2          1           0        0.000000    0.000000    2.681680
      3          1           0        0.000000    0.000000    0.893893
      4          1           0       -0.000000   -0.645883    1.787787
      5          1           0       -0.000000    0.645883   -0.000000
      6          1           0       -0.000000   -0.645883    0.000000
      7          1           0        0.000000   -0.000000   -0.893893
      8          1           0        0.000000    0.645883   -1.787787
      9          1           0       -0.000000   -0.645883   -1.787787
     10          1           0        0.000000   -0.000000   -2.681680
 ---------------------------------------------------------------------

 SCF Done:  E(RHF) =  -4.81696442036     A.U. after    9 cycles
 E2 =    -0.1218714145D+00 EUMP2 =    -0.49388358348596D+01

 The electronic state is 1-AG.
 Alpha  occ. eigenvalues --   -0.82285  -0.73226  -0.55407  -0.29484  -0.29371
 Alpha virt. eigenvalues --    0.00122   0.17824   0.20126   0.48751   0.70140

 Mulliken charges:
               1
     1  H    0.200735
     2  H   -0.179189
     3  H   -0.251197
     4  H    0.200735
     5  H    0.028914
     6  H    0.028914
     7  H   -0.251197
     8  H    0.200735
     9  H    0.200735
    10  H   -0.179189
 Sum of Mulliken charges =   0.00000

 Dipole moment (field-independent basis, Debye):
    X=             -0.0000    Y=              0.0000    Z=              0.0000  Tot=              0.0000
 Quadrupole moment (field-independent basis, Debye-Ang):
   XX=            -13.0114   YY=            -12.7338   ZZ=            -17.4447
   XY=              0.0000   XZ=              0.0000   YZ=              0.0000

 Normal termination of Gaussian 09 at Thu Feb  9 15:42:41 2017.
