 Gaussian 09, Revision E.01,
 Gaussian 09:  ES64L-G09RevE.01 30-Nov-2015

 ----------------------------------------------------------------------
 #rhf/gen scf(symm,tight,novaracc,noincfock,fulldiag) stable(crhf) geom
 =nocrowd test
 ----------------------------------------------------------------------

 hf stability analysis of h10 triangular lattice, y= 0.5511430676164930
 1
 ----------------------------------------------------------------------
 Symbolic Z-matrix:
 Charge =  0 Multiplicity = 1

                         Standard orientation:
 ---------------------------------------------------------------------
 Center     Atomic      Atomic             Coordinates (Angstroms)
 Number     Number       Type             X           Y           Z
 ---------------------------------------------------------------------
      1          1           0        0.000000    0.551143    2.095101
      2          1           0        0.000000    0.000000    3.142652
      3          1           0        0.000000    0.000000    1.047551
      4          1           0       -0.000000   -0.551143    2.095101
      5          1           0        0.000000    0.551143   -0.000000
      6          1           0       -0.000000   -0.551143    0.000000
      7          1           0        0.000000   -0.000000   -1.047551
      8          1           0        0.000000    0.551143   -2.095101
      9          1           0       -0.000000   -0.551143   -2.095101
     10          1           0        0.000000   -0.000000   -3.142652
 ---------------------------------------------------------------------

 SCF Done:  E(RHF) =  -4.71985241567     A.U. after    9 cycles
 E2 =    -0.1667733482D+00 EUMP2 =    -0.48866257638551D+01

 The electronic state is 1-AG.
 Alpha  occ. eigenvalues --   -0.77345  -0.71700  -0.57263  -0.31631  -0.16836
 Alpha virt. eigenvalues --    0.04601   0.07006   0.22541   0.32376   0.60250

 Mulliken charges:
               1
     1  H    0.097741
     2  H   -0.025862
     3  H   -0.147856
     4  H    0.097741
     5  H   -0.021765
     6  H   -0.021765
     7  H   -0.147856
     8  H    0.097741
     9  H    0.097741
    10  H   -0.025862
 Sum of Mulliken charges =  -0.00000

 Dipole moment (field-independent basis, Debye):
    X=             -0.0000    Y=             -0.0000    Z=              0.0000  Tot=              0.0000
 Quadrupole moment (field-independent basis, Debye-Ang):
   XX=            -13.2211   YY=            -14.4787   ZZ=            -10.0137
   XY=             -0.0000   XZ=              0.0000   YZ=             -0.0000

 Normal termination of Gaussian 09 at Thu Feb  9 15:49:45 2017.
