 Gaussian 09, Revision E.01,
 Gaussian 09:  ES64L-G09RevE.01 30-Nov-2015

 ----------------------------------------------------------------------
 #rhf/gen scf(symm,tight,novaracc,noincfock,fulldiag) stable(crhf) geom
 =nocrowd test
 ----------------------------------------------------------------------

 hf stability analysis of h10 triangular lattice, y= 0.3981040502022899
 5
 ----------------------------------------------------------------------
 Symbolic Z-matrix:
 Charge =  0 Multiplicity = 1

                         Standard orientation:
 ---------------------------------------------------------------------
 Center     Atomic      Atomic             Coordinates (Angstroms)
 Number     Number       Type             X           Y           Z
 ---------------------------------------------------------------------
      1          1           0       -0.000000    0.398104    2.900499
      2          1           0       -0.000000    0.000000    4.350749
      3          1           0       -0.000000    0.000000    1.450250
      4          1           0       -0.000000   -0.398104    2.900499
      5          1           0       -0.000000    0.398104   -0.000000
      6          1           0       -0.000000   -0.398104    0.000000
      7          1           0        0.000000   -0.000000   -1.450250
      8          1           0        0.000000    0.398104   -2.900499
      9          1           0       -0.000000   -0.398104   -2.900499
     10          1           0        0.000000   -0.000000   -4.350749
 ---------------------------------------------------------------------

 SCF Done:  E(RHF) =  -4.89577715475     A.U. after    9 cycles
 E2 =    -0.1438952124D+00 EUMP2 =    -0.50396723671065D+01

 The electronic state is 1-AG.
 Alpha  occ. eigenvalues --   -0.72701  -0.70172  -0.65969  -0.31997  -0.23442
 Alpha virt. eigenvalues --    0.02449   0.12814   0.27796   0.30137   0.33904

 Mulliken charges:
               1
     1  H    0.120970
     2  H   -0.207318
     3  H   -0.089948
     4  H    0.120970
     5  H    0.055326
     6  H    0.055326
     7  H   -0.089948
     8  H    0.120970
     9  H    0.120970
    10  H   -0.207318
 Sum of Mulliken charges =   0.00000

 Dipole moment (field-independent basis, Debye):
    X=             -0.0000    Y=              0.0000    Z=              0.0000  Tot=              0.0000
 Quadrupole moment (field-independent basis, Debye-Ang):
   XX=            -13.5042   YY=            -11.6679   ZZ=            -36.4163
   XY=              0.0000   XZ=              0.0000   YZ=             -0.0000

 Normal termination of Gaussian 09 at Thu Feb  9 16:00:19 2017.
