 Gaussian 09, Revision E.01,
 Gaussian 09:  ES64L-G09RevE.01 30-Nov-2015

 ----------------------------------------------------------------------
 #rhf/gen scf(symm,tight,novaracc,noincfock,fulldiag) stable(crhf) geom
 =nocrowd test
 ----------------------------------------------------------------------

 hf stability analysis of h10 triangular lattice, y= 0.7440826740526687
 0
 ----------------------------------------------------------------------
 Symbolic Z-matrix:
 Charge =  0 Multiplicity = 1

                         Standard orientation:
 ---------------------------------------------------------------------
 Center     Atomic      Atomic             Coordinates (Angstroms)
 Number     Number       Type             X           Y           Z
 ---------------------------------------------------------------------
      1          1           0        0.000000    0.744083    1.551844
      2          1           0        0.000000    0.000000    2.327767
      3          1           0        0.000000    0.000000    0.775922
      4          1           0       -0.000000   -0.744083    1.551844
      5          1           0       -0.000000    0.744083    0.000000
      6          1           0       -0.000000   -0.744083    0.000000
      7          1           0        0.000000    0.000000   -0.775922
      8          1           0        0.000000    0.744083   -1.551844
      9          1           0       -0.000000   -0.744083   -1.551844
     10          1           0        0.000000    0.000000   -2.327767
 ---------------------------------------------------------------------

 SCF Done:  E(RHF) =  -4.83372907184     A.U. after    8 cycles
 E2 =    -0.9805373110D-01 EUMP2 =    -0.49317828029396D+01

 The electronic state is 1-AG.
 Alpha  occ. eigenvalues --   -0.90383  -0.74517  -0.52490  -0.45041  -0.26835
 Alpha virt. eigenvalues --   -0.03150   0.14776   0.32450   0.54648   0.55014

 Mulliken charges:
               1
     1  H   -0.218734
     2  H    0.243808
     3  H    0.164588
     4  H   -0.218734
     5  H    0.029073
     6  H    0.029073
     7  H    0.164588
     8  H   -0.218734
     9  H   -0.218734
    10  H    0.243808
 Sum of Mulliken charges =   0.00000

 Dipole moment (field-independent basis, Debye):
    X=              0.0000    Y=              0.0000    Z=             -0.0000  Tot=              0.0000
 Quadrupole moment (field-independent basis, Debye-Ang):
   XX=            -13.0125   YY=            -18.7545   ZZ=            -10.2941
   XY=             -0.0000   XZ=             -0.0000   YZ=              0.0000

 Normal termination of Gaussian 09 at Thu Feb  9 15:35:50 2017.
