 Gaussian 09, Revision E.01,
 Gaussian 09:  ES64L-G09RevE.01 30-Nov-2015

 ----------------------------------------------------------------------
 #rhf/gen scf(symm,tight,novaracc,noincfock,fulldiag) stable(crhf) geom
 =nocrowd test
 ----------------------------------------------------------------------

 hf stability analysis of h10 triangular lattice, y= 0.5668765722059677
 7
 ----------------------------------------------------------------------
 Symbolic Z-matrix:
 Charge =  0 Multiplicity = 1

                         Standard orientation:
 ---------------------------------------------------------------------
 Center     Atomic      Atomic             Coordinates (Angstroms)
 Number     Number       Type             X           Y           Z
 ---------------------------------------------------------------------
      1          1           0       -0.000000    0.566877    2.036952
      2          1           0       -0.000000    0.000000    3.055428
      3          1           0       -0.000000    0.000000    1.018476
      4          1           0       -0.000000   -0.566877    2.036952
      5          1           0        0.000000    0.566877    0.000000
      6          1           0       -0.000000   -0.566877    0.000000
      7          1           0        0.000000   -0.000000   -1.018476
      8          1           0        0.000000    0.566877   -2.036952
      9          1           0       -0.000000   -0.566877   -2.036952
     10          1           0        0.000000   -0.000000   -3.055428
 ---------------------------------------------------------------------

 SCF Done:  E(RHF) =  -4.74649174942     A.U. after    9 cycles
 E2 =    -0.1568579823D+00 EUMP2 =    -0.49033497317341D+01

 The electronic state is 1-AG.
 Alpha  occ. eigenvalues --   -0.78278  -0.72098  -0.57104  -0.31553  -0.19160
 Alpha virt. eigenvalues --    0.05640   0.06642   0.21891   0.35372   0.63303

 Mulliken charges:
               1
     1  H    0.116466
     2  H   -0.052533
     3  H   -0.169517
     4  H    0.116466
     5  H   -0.010881
     6  H   -0.010881
     7  H   -0.169517
     8  H    0.116466
     9  H    0.116466
    10  H   -0.052533
 Sum of Mulliken charges =  -0.00000

 Dipole moment (field-independent basis, Debye):
    X=             -0.0000    Y=              0.0000    Z=             -0.0000  Tot=              0.0000
 Quadrupole moment (field-independent basis, Debye-Ang):
   XX=            -13.1884   YY=            -14.2211   ZZ=            -11.5747
   XY=             -0.0000   XZ=              0.0000   YZ=             -0.0000

 Normal termination of Gaussian 09 at Thu Feb  9 15:48:35 2017.
