 Gaussian 09, Revision E.01,
 Gaussian 09:  ES64L-G09RevE.01 30-Nov-2015

 ----------------------------------------------------------------------
 #rhf/gen scf(symm,tight,novaracc,noincfock,fulldiag) stable(crhf) geom
 =nocrowd test
 ----------------------------------------------------------------------

 hf stability analysis of h10 triangular lattice, y= 0.6222799894039244
 8
 ----------------------------------------------------------------------
 Symbolic Z-matrix:
 Charge =  0 Multiplicity = 1

                         Standard orientation:
 ---------------------------------------------------------------------
 Center     Atomic      Atomic             Coordinates (Angstroms)
 Number     Number       Type             X           Y           Z
 ---------------------------------------------------------------------
      1          1           0       -0.000000    0.622280    1.855596
      2          1           0       -0.000000    0.000000    2.783395
      3          1           0       -0.000000    0.000000    0.927798
      4          1           0       -0.000000   -0.622280    1.855596
      5          1           0       -0.000000    0.622280   -0.000000
      6          1           0       -0.000000   -0.622280    0.000000
      7          1           0        0.000000   -0.000000   -0.927798
      8          1           0        0.000000    0.622280   -1.855596
      9          1           0       -0.000000   -0.622280   -1.855596
     10          1           0        0.000000   -0.000000   -2.783395
 ---------------------------------------------------------------------

 SCF Done:  E(RHF) =  -4.80595644492     A.U. after    9 cycles
 E2 =    -0.1301977173D+00 EUMP2 =    -0.49361541621763D+01

 The electronic state is 1-AG.
 Alpha  occ. eigenvalues --   -0.81216  -0.73043  -0.56068  -0.30394  -0.26555
 Alpha virt. eigenvalues --    0.01559   0.14347   0.20413   0.45181   0.69738

 Mulliken charges:
               1
     1  H    0.177461
     2  H   -0.142973
     3  H   -0.231777
     4  H    0.177461
     5  H    0.019829
     6  H    0.019829
     7  H   -0.231777
     8  H    0.177461
     9  H    0.177461
    10  H   -0.142973
 Sum of Mulliken charges =  -0.00000

 Dipole moment (field-independent basis, Debye):
    X=             -0.0000    Y=              0.0000    Z=             -0.0000  Tot=              0.0000
 Quadrupole moment (field-independent basis, Debye-Ang):
   XX=            -13.0655   YY=            -13.2071   ZZ=            -15.9931
   XY=              0.0000   XZ=              0.0000   YZ=             -0.0000

 Normal termination of Gaussian 09 at Thu Feb  9 15:44:25 2017.
