 Gaussian 09, Revision E.01,
 Gaussian 09:  ES64L-G09RevE.01 30-Nov-2015

 ----------------------------------------------------------------------
 #rhf/gen scf(symm,tight,novaracc,noincfock,fulldiag) stable(crhf) geom
 =nocrowd test
 ----------------------------------------------------------------------

 hf stability analysis of h10 triangular lattice, y= 0.3672667222098347
 5
 ----------------------------------------------------------------------
 Symbolic Z-matrix:
 Charge =  0 Multiplicity = 1

                         Standard orientation:
 ---------------------------------------------------------------------
 Center     Atomic      Atomic             Coordinates (Angstroms)
 Number     Number       Type             X           Y           Z
 ---------------------------------------------------------------------
      1          1           0        0.000000    0.367267    3.144038
      2          1           0       -0.000000   -0.000000    4.716057
      3          1           0       -0.000000   -0.000000    1.572019
      4          1           0       -0.000000   -0.367267    3.144038
      5          1           0        0.000000    0.367267    0.000000
      6          1           0       -0.000000   -0.367267   -0.000000
      7          1           0        0.000000    0.000000   -1.572019
      8          1           0        0.000000    0.367267   -3.144038
      9          1           0       -0.000000   -0.367267   -3.144038
     10          1           0        0.000000    0.000000   -4.716057
 ---------------------------------------------------------------------

 SCF Done:  E(RHF) =  -4.85808140207     A.U. after    9 cycles
 E2 =    -0.1808554233D+00 EUMP2 =    -0.50389368253953D+01

 The electronic state is 1-AG.
 Alpha  occ. eigenvalues --   -0.71367  -0.69762  -0.66783  -0.30575  -0.24071
 Alpha virt. eigenvalues --   -0.01926   0.05715   0.33885   0.35397   0.38418

 Mulliken charges:
               1
     1  H    0.085712
     2  H   -0.149850
     3  H   -0.057041
     4  H    0.085712
     5  H    0.035467
     6  H    0.035467
     7  H   -0.057041
     8  H    0.085712
     9  H    0.085712
    10  H   -0.149850
 Sum of Mulliken charges =  -0.00000

 Dipole moment (field-independent basis, Debye):
    X=             -0.0000    Y=             -0.0000    Z=              0.0000  Tot=              0.0000
 Quadrupole moment (field-independent basis, Debye-Ang):
   XX=            -13.5753   YY=            -12.0598   ZZ=            -32.9850
   XY=              0.0000   XZ=              0.0000   YZ=              0.0000

 Normal termination of Gaussian 09 at Thu Feb  9 16:01:56 2017.
