 Gaussian 09, Revision E.01,
 Gaussian 09:  ES64L-G09RevE.01 30-Nov-2015

 ----------------------------------------------------------------------
 #rhf/gen scf(symm,tight,novaracc,noincfock,fulldiag) stable(crhf) geom
 =nocrowd test
 ----------------------------------------------------------------------

 hf stability analysis of h10 triangular lattice, y= 0.2604286291538333
 6
 ----------------------------------------------------------------------
 Symbolic Z-matrix:
 Charge =  0 Multiplicity = 1

                         Standard orientation:
 ---------------------------------------------------------------------
 Center     Atomic      Atomic             Coordinates (Angstroms)
 Number     Number       Type             X           Y           Z
 ---------------------------------------------------------------------
      1          1           0        0.000000    0.260429    4.433846
      2          1           0        0.000000    0.000000    6.650770
      3          1           0        0.000000    0.000000    2.216923
      4          1           0       -0.000000   -0.260429    4.433846
      5          1           0       -0.000000    0.260429    0.000000
      6          1           0       -0.000000   -0.260429    0.000000
      7          1           0        0.000000   -0.000000   -2.216923
      8          1           0        0.000000    0.260429   -4.433846
      9          1           0       -0.000000   -0.260429   -4.433846
     10          1           0        0.000000   -0.000000   -6.650770
 ---------------------------------------------------------------------

 SCF Done:  E(RHF) =  -4.44128309597     A.U. after   10 cycles
 E2 =    -0.4846085031D+00 EUMP2 =    -0.49258915990441D+01

 The electronic state is 1-AG.
 Alpha  occ. eigenvalues --   -0.71299  -0.71181  -0.70856  -0.25511  -0.24169
 Alpha virt. eigenvalues --   -0.11760  -0.10334   0.57687   0.57854   0.58413

 Mulliken charges:
               1
     1  H    0.003371
     2  H   -0.013623
     3  H    0.008067
     4  H    0.003371
     5  H   -0.001186
     6  H   -0.001186
     7  H    0.008067
     8  H    0.003371
     9  H    0.003371
    10  H   -0.013623
 Sum of Mulliken charges =   0.00000

 Dipole moment (field-independent basis, Debye):
    X=             -0.0000    Y=             -0.0000    Z=              0.0000  Tot=              0.0000
 Quadrupole moment (field-independent basis, Debye-Ang):
   XX=            -13.5857   YY=            -12.8601   ZZ=            -18.7015
   XY=              0.0000   XZ=              0.0000   YZ=              0.0000

 Normal termination of Gaussian 09 at Thu Feb  9 16:06:16 2017.
