 Gaussian 09, Revision E.01,
 Gaussian 09:  ES64L-G09RevE.01 30-Nov-2015

 ----------------------------------------------------------------------
 #rhf/gen scf(symm,tight,novaracc,noincfock,fulldiag) stable(crhf) geom
 =nocrowd test
 ----------------------------------------------------------------------

 hf stability analysis of h10 triangular lattice, y= 0.5988908469219490
 5
 ----------------------------------------------------------------------
 Symbolic Z-matrix:
 Charge =  0 Multiplicity = 1

                         Standard orientation:
 ---------------------------------------------------------------------
 Center     Atomic      Atomic             Coordinates (Angstroms)
 Number     Number       Type             X           Y           Z
 ---------------------------------------------------------------------
      1          1           0       -0.000000    0.598891    1.928065
      2          1           0        0.000000   -0.000000    2.892098
      3          1           0        0.000000   -0.000000    0.964033
      4          1           0       -0.000000   -0.598891    1.928065
      5          1           0       -0.000000    0.598891    0.000000
      6          1           0       -0.000000   -0.598891   -0.000000
      7          1           0        0.000000    0.000000   -0.964033
      8          1           0        0.000000    0.598891   -1.928065
      9          1           0       -0.000000   -0.598891   -1.928065
     10          1           0        0.000000    0.000000   -2.892098
 ---------------------------------------------------------------------

 SCF Done:  E(RHF) =  -4.78695664361     A.U. after    9 cycles
 E2 =    -0.1400846173D+00 EUMP2 =    -0.49270412609282D+01

 The electronic state is 1-AG.
 Alpha  occ. eigenvalues --   -0.80046  -0.72732  -0.56596  -0.31052  -0.23575
 Alpha virt. eigenvalues --    0.03152   0.11005   0.20891   0.41233   0.67927

 Mulliken charges:
               1
     1  H    0.152724
     2  H   -0.105599
     3  H   -0.208243
     4  H    0.152724
     5  H    0.008394
     6  H    0.008394
     7  H   -0.208243
     8  H    0.152724
     9  H    0.152724
    10  H   -0.105599
 Sum of Mulliken charges =  -0.00000

 Dipole moment (field-independent basis, Debye):
    X=             -0.0000    Y=             -0.0000    Z=             -0.0000  Tot=              0.0000
 Quadrupole moment (field-independent basis, Debye-Ang):
   XX=            -13.1185   YY=            -13.6537   ZZ=            -14.3162
   XY=              0.0000   XZ=              0.0000   YZ=              0.0000

 Normal termination of Gaussian 09 at Thu Feb  9 15:46:10 2017.
