 Gaussian 09, Revision E.01,
 Gaussian 09:  ES64L-G09RevE.01 30-Nov-2015

 ----------------------------------------------------------------------
 #rhf/gen scf(symm,tight,novaracc,noincfock,fulldiag) stable(crhf) geom
 =nocrowd test
 ----------------------------------------------------------------------

 hf stability analysis of h10 triangular lattice, y= 0.4811530720421206
 6
 ----------------------------------------------------------------------
 Symbolic Z-matrix:
 Charge =  0 Multiplicity = 1

                         Standard orientation:
 ---------------------------------------------------------------------
 Center     Atomic      Atomic             Coordinates (Angstroms)
 Number     Number       Type             X           Y           Z
 ---------------------------------------------------------------------
      1          1           0        0.000000    0.481153    2.399861
      2          1           0        0.000000   -0.000000    3.599792
      3          1           0        0.000000   -0.000000    1.199931
      4          1           0       -0.000000   -0.481153    2.399861
      5          1           0        0.000000    0.481153    0.000000
      6          1           0       -0.000000   -0.481153   -0.000000
      7          1           0        0.000000    0.000000   -1.199931
      8          1           0        0.000000    0.481153   -2.399861
      9          1           0       -0.000000   -0.481153   -2.399861
     10          1           0        0.000000    0.000000   -3.599792
 ---------------------------------------------------------------------

 SCF Done:  E(RHF) =  -4.85921865929     A.U. after    9 cycles
 E2 =    -0.9716025526D-01 EUMP2 =    -0.49563789145441D+01

 The electronic state is 1-AG.
 Alpha  occ. eigenvalues --   -0.77181  -0.71695  -0.63391  -0.34268  -0.19842
 Alpha virt. eigenvalues --    0.13535   0.16832   0.18951   0.24956   0.35354

 Mulliken charges:
               1
     1  H    0.213500
     2  H   -0.358615
     3  H   -0.181833
     4  H    0.213500
     5  H    0.113448
     6  H    0.113448
     7  H   -0.181833
     8  H    0.213500
     9  H    0.213500
    10  H   -0.358615
 Sum of Mulliken charges =  -0.00000

 Dipole moment (field-independent basis, Debye):
    X=             -0.0000    Y=              0.0000    Z=              0.0000  Tot=              0.0000
 Quadrupole moment (field-independent basis, Debye-Ang):
   XX=            -13.1648   YY=            -10.2686   ZZ=            -41.5948
   XY=              0.0000   XZ=              0.0000   YZ=             -0.0000

 Normal termination of Gaussian 09 at Thu Feb  9 15:54:50 2017.
