 Gaussian 09, Revision E.01,
 Gaussian 09:  ES64L-G09RevE.01 30-Nov-2015

 ----------------------------------------------------------------------
 #rhf/gen scf(symm,tight,novaracc,noincfock,fulldiag) stable(crhf) geom
 =nocrowd test
 ----------------------------------------------------------------------

 hf stability analysis of h10 triangular lattice, y= 0.3015408777320315
 3
 ----------------------------------------------------------------------
 Symbolic Z-matrix:
 Charge =  0 Multiplicity = 1

                         Standard orientation:
 ---------------------------------------------------------------------
 Center     Atomic      Atomic             Coordinates (Angstroms)
 Number     Number       Type             X           Y           Z
 ---------------------------------------------------------------------
      1          1           0       -0.000000    0.301541    3.829333
      2          1           0       -0.000000    0.000000    5.744000
      3          1           0       -0.000000    0.000000    1.914667
      4          1           0       -0.000000   -0.301541    3.829333
      5          1           0        0.000000    0.301541   -0.000000
      6          1           0       -0.000000   -0.301541    0.000000
      7          1           0        0.000000   -0.000000   -1.914667
      8          1           0        0.000000    0.301541   -3.829333
      9          1           0       -0.000000   -0.301541   -3.829333
     10          1           0        0.000000   -0.000000   -5.744000
 ---------------------------------------------------------------------

 SCF Done:  E(RHF) =  -4.66751940301     A.U. after    9 cycles
 E2 =    -0.3303822221D+00 EUMP2 =    -0.49979016251294D+01

 The electronic state is 1-AG.
 Alpha  occ. eigenvalues --   -0.70244  -0.69866  -0.68843  -0.27301  -0.24437
 Alpha virt. eigenvalues --   -0.09001  -0.05843   0.48189   0.48640   0.50055

 Mulliken charges:
               1
     1  H    0.023134
     2  H   -0.048037
     3  H   -0.003457
     4  H    0.023134
     5  H    0.005226
     6  H    0.005226
     7  H   -0.003457
     8  H    0.023134
     9  H    0.023134
    10  H   -0.048037
 Sum of Mulliken charges =  -0.00000

 Dipole moment (field-independent basis, Debye):
    X=             -0.0000    Y=              0.0000    Z=              0.0000  Tot=              0.0000
 Quadrupole moment (field-independent basis, Debye-Ang):
   XX=            -13.6069   YY=            -12.6325   ZZ=            -23.8111
   XY=              0.0000   XZ=              0.0000   YZ=             -0.0000

 Normal termination of Gaussian 09 at Thu Feb  9 16:04:47 2017.
