 Gaussian 09, Revision E.01,
 Gaussian 09:  ES64L-G09RevE.01 30-Nov-2015

 ----------------------------------------------------------------------
 #rhf/gen scf(symm,tight,novaracc,noincfock,fulldiag) stable(crhf) geom
 =nocrowd test
 ----------------------------------------------------------------------

 hf stability analysis of h10 triangular lattice, y= 0.6381816574509999
 7
 ----------------------------------------------------------------------
 Symbolic Z-matrix:
 Charge =  0 Multiplicity = 1

                         Standard orientation:
 ---------------------------------------------------------------------
 Center     Atomic      Atomic             Coordinates (Angstroms)
 Number     Number       Type             X           Y           Z
 ---------------------------------------------------------------------
      1          1           0       -0.000000    0.638182    1.809360
      2          1           0       -0.000000    0.000000    2.714040
      3          1           0       -0.000000    0.000000    0.904680
      4          1           0       -0.000000   -0.638182    1.809360
      5          1           0       -0.000000    0.638182    0.000000
      6          1           0       -0.000000   -0.638182   -0.000000
      7          1           0        0.000000    0.000000   -0.904680
      8          1           0        0.000000    0.638182   -1.809360
      9          1           0       -0.000000   -0.638182   -1.809360
     10          1           0        0.000000    0.000000   -2.714040
 ---------------------------------------------------------------------

 SCF Done:  E(RHF) =  -4.81423270795     A.U. after    9 cycles
 E2 =    -0.1244227431D+00 EUMP2 =    -0.49386554510648D+01

 The electronic state is 1-AG.
 Alpha  occ. eigenvalues --   -0.81949  -0.73181  -0.55637  -0.29807  -0.28472
 Alpha virt. eigenvalues --    0.00573   0.16680   0.20199   0.47638   0.70164

 Mulliken charges:
               1
     1  H    0.193337
     2  H   -0.167552
     3  H   -0.245352
     4  H    0.193337
     5  H    0.026229
     6  H    0.026229
     7  H   -0.245352
     8  H    0.193337
     9  H    0.193337
    10  H   -0.167552
 Sum of Mulliken charges =  -0.00000

 Dipole moment (field-independent basis, Debye):
    X=             -0.0000    Y=              0.0000    Z=              0.0000  Tot=              0.0000
 Quadrupole moment (field-independent basis, Debye-Ang):
   XX=            -13.0291   YY=            -12.8904   ZZ=            -16.9957
   XY=              0.0000   XZ=              0.0000   YZ=              0.0000

 Normal termination of Gaussian 09 at Thu Feb  9 15:43:14 2017.
