 Gaussian 09, Revision E.01,
 Gaussian 09:  ES64L-G09RevE.01 30-Nov-2015

 ----------------------------------------------------------------------
 #rhf/gen scf(symm,tight,novaracc,noincfock,fulldiag) stable(crhf) geom
 =nocrowd test
 ----------------------------------------------------------------------

 hf stability analysis of h10 triangular lattice, y= 0.6972618515561082
 0
 ----------------------------------------------------------------------
 Symbolic Z-matrix:
 Charge =  0 Multiplicity = 1

                         Standard orientation:
 ---------------------------------------------------------------------
 Center     Atomic      Atomic             Coordinates (Angstroms)
 Number     Number       Type             X           Y           Z
 ---------------------------------------------------------------------
      1          1           0        0.000000    0.697262    1.656050
      2          1           0        0.000000    0.000000    2.484075
      3          1           0        0.000000    0.000000    0.828025
      4          1           0       -0.000000   -0.697262    1.656050
      5          1           0       -0.000000    0.697262    0.000000
      6          1           0       -0.000000   -0.697262    0.000000
      7          1           0        0.000000    0.000000   -0.828025
      8          1           0        0.000000    0.697262   -1.656050
      9          1           0       -0.000000   -0.697262   -1.656050
     10          1           0        0.000000    0.000000   -2.484075
 ---------------------------------------------------------------------

 SCF Done:  E(RHF) =  -4.81544431241     A.U. after    9 cycles
 E2 =    -0.1083281689D+00 EUMP2 =    -0.49237724813536D+01

 The electronic state is 1-AG.
 Alpha  occ. eigenvalues --   -0.84220  -0.73180  -0.53556  -0.34932  -0.26702
 Alpha virt. eigenvalues --   -0.02492   0.20102   0.25595   0.54613   0.66573

 Mulliken charges:
               1
     1  H    0.244906
     2  H   -0.251904
     3  H   -0.277664
     4  H    0.244906
     5  H    0.039756
     6  H    0.039756
     7  H   -0.277664
     8  H    0.244906
     9  H    0.244906
    10  H   -0.251904
 Sum of Mulliken charges =   0.00000

 Dipole moment (field-independent basis, Debye):
    X=             -0.0000    Y=             -0.0000    Z=              0.0000  Tot=              0.0000
 Quadrupole moment (field-independent basis, Debye-Ang):
   XX=            -12.8942   YY=            -11.6491   ZZ=            -19.9175
   XY=              0.0000   XZ=              0.0000   YZ=             -0.0000

 Normal termination of Gaussian 09 at Thu Feb  9 15:39:01 2017.
