 Gaussian 09, Revision E.01,
 Gaussian 09:  ES64L-G09RevE.01 30-Nov-2015

 ----------------------------------------------------------------------
 #rhf/gen scf(symm,tight,novaracc,noincfock,fulldiag) stable(crhf) geom
 =nocrowd test
 ----------------------------------------------------------------------

 hf stability analysis of h10 triangular lattice, y= 0.3708695720272197
 6
 ----------------------------------------------------------------------
 Symbolic Z-matrix:
 Charge =  0 Multiplicity = 1

                         Standard orientation:
 ---------------------------------------------------------------------
 Center     Atomic      Atomic             Coordinates (Angstroms)
 Number     Number       Type             X           Y           Z
 ---------------------------------------------------------------------
      1          1           0       -0.000000    0.370870    3.113495
      2          1           0       -0.000000    0.000000    4.670242
      3          1           0       -0.000000    0.000000    1.556747
      4          1           0       -0.000000   -0.370870    3.113495
      5          1           0        0.000000    0.370870    0.000000
      6          1           0       -0.000000   -0.370870   -0.000000
      7          1           0        0.000000   -0.000000   -1.556747
      8          1           0        0.000000    0.370870   -3.113495
      9          1           0       -0.000000   -0.370870   -3.113495
     10          1           0        0.000000   -0.000000   -4.670242
 ---------------------------------------------------------------------

 SCF Done:  E(RHF) =  -4.86402971425     A.U. after    9 cycles
 E2 =    -0.1756913638D+00 EUMP2 =    -0.50397210780852D+01

 The electronic state is 1-AG.
 Alpha  occ. eigenvalues --   -0.71504  -0.69800  -0.66688  -0.30750  -0.24014
 Alpha virt. eigenvalues --   -0.01447   0.06495   0.33151   0.34749   0.37856

 Mulliken charges:
               1
     1  H    0.089757
     2  H   -0.156426
     3  H   -0.060760
     4  H    0.089757
     5  H    0.037672
     6  H    0.037672
     7  H   -0.060760
     8  H    0.089757
     9  H    0.089757
    10  H   -0.156426
 Sum of Mulliken charges =  -0.00000

 Dipole moment (field-independent basis, Debye):
    X=             -0.0000    Y=             -0.0000    Z=              0.0000  Tot=              0.0000
 Quadrupole moment (field-independent basis, Debye-Ang):
   XX=            -13.5690   YY=            -12.0181   ZZ=            -33.4277
   XY=              0.0000   XZ=              0.0000   YZ=             -0.0000

 Normal termination of Gaussian 09 at Thu Feb  9 16:01:46 2017.
