 Gaussian 09, Revision E.01,
 Gaussian 09:  ES64L-G09RevE.01 30-Nov-2015

 ----------------------------------------------------------------------
 #rhf/gen scf(symm,tight,novaracc,noincfock,fulldiag) stable(crhf) geom
 =nocrowd test
 ----------------------------------------------------------------------

 hf stability analysis of h10 triangular lattice, y= 0.3141469268010664
 8
 ----------------------------------------------------------------------
 Symbolic Z-matrix:
 Charge =  0 Multiplicity = 1

                         Standard orientation:
 ---------------------------------------------------------------------
 Center     Atomic      Atomic             Coordinates (Angstroms)
 Number     Number       Type             X           Y           Z
 ---------------------------------------------------------------------
      1          1           0       -0.000000    0.314147    3.675670
      2          1           0       -0.000000    0.000000    5.513505
      3          1           0       -0.000000    0.000000    1.837835
      4          1           0       -0.000000   -0.314147    3.675670
      5          1           0       -0.000000    0.314147   -0.000000
      6          1           0       -0.000000   -0.314147    0.000000
      7          1           0        0.000000   -0.000000   -1.837835
      8          1           0        0.000000    0.314147   -3.675670
      9          1           0       -0.000000   -0.314147   -3.675670
     10          1           0        0.000000   -0.000000   -5.513505
 ---------------------------------------------------------------------

 SCF Done:  E(RHF) =  -4.71762134426     A.U. after   10 cycles
 E2 =    -0.2924260755D+00 EUMP2 =    -0.50100474197407D+01

 The electronic state is 1-AG.
 Alpha  occ. eigenvalues --   -0.70217  -0.69691  -0.68366  -0.27909  -0.24452
 Alpha virt. eigenvalues --   -0.07898  -0.04041   0.45334   0.45921   0.47642

 Mulliken charges:
               1
     1  H    0.032718
     2  H   -0.063809
     3  H   -0.010815
     4  H    0.032718
     5  H    0.009189
     6  H    0.009189
     7  H   -0.010815
     8  H    0.032718
     9  H    0.032718
    10  H   -0.063809
 Sum of Mulliken charges =  -0.00000

 Dipole moment (field-independent basis, Debye):
    X=             -0.0000    Y=              0.0000    Z=              0.0000  Tot=              0.0000
 Quadrupole moment (field-independent basis, Debye-Ang):
   XX=            -13.6110   YY=            -12.5476   ZZ=            -25.6157
   XY=              0.0000   XZ=              0.0000   YZ=             -0.0000

 Normal termination of Gaussian 09 at Thu Feb  9 16:04:17 2017.
