 Gaussian 09, Revision E.01,
 Gaussian 09:  ES64L-G09RevE.01 30-Nov-2015

 ----------------------------------------------------------------------
 #rhf/gen scf(symm,tight,novaracc,noincfock,fulldiag) stable(crhf) geom
 =nocrowd test
 ----------------------------------------------------------------------

 hf stability analysis of h10 triangular lattice, y= 0.3919451914494513
 4
 ----------------------------------------------------------------------
 Symbolic Z-matrix:
 Charge =  0 Multiplicity = 1

                         Standard orientation:
 ---------------------------------------------------------------------
 Center     Atomic      Atomic             Coordinates (Angstroms)
 Number     Number       Type             X           Y           Z
 ---------------------------------------------------------------------
      1          1           0        0.000000    0.391945    2.946077
      2          1           0        0.000000    0.000000    4.419115
      3          1           0        0.000000    0.000000    1.473038
      4          1           0       -0.000000   -0.391945    2.946077
      5          1           0       -0.000000    0.391945   -0.000000
      6          1           0       -0.000000   -0.391945    0.000000
      7          1           0        0.000000   -0.000000   -1.473038
      8          1           0        0.000000    0.391945   -2.946077
      9          1           0       -0.000000   -0.391945   -2.946077
     10          1           0        0.000000   -0.000000   -4.419115
 ---------------------------------------------------------------------

 SCF Done:  E(RHF) =  -4.89060010018     A.U. after    9 cycles
 E2 =    -0.1500786901D+00 EUMP2 =    -0.50406787902475D+01

 The electronic state is 1-AG.
 Alpha  occ. eigenvalues --   -0.72408  -0.70077  -0.66133  -0.31730  -0.23595
 Alpha virt. eigenvalues --    0.01526   0.11322   0.28977   0.31136   0.34752

 Mulliken charges:
               1
     1  H    0.113855
     2  H   -0.195696
     3  H   -0.083224
     4  H    0.113855
     5  H    0.051210
     6  H    0.051210
     7  H   -0.083224
     8  H    0.113855
     9  H    0.113855
    10  H   -0.195696
 Sum of Mulliken charges =  -0.00000

 Dipole moment (field-independent basis, Debye):
    X=             -0.0000    Y=              0.0000    Z=             -0.0000  Tot=              0.0000
 Quadrupole moment (field-independent basis, Debye-Ang):
   XX=            -13.5214   YY=            -11.7525   ZZ=            -35.7980
   XY=              0.0000   XZ=              0.0000   YZ=             -0.0000

 Normal termination of Gaussian 09 at Thu Feb  9 16:00:41 2017.
