 Gaussian 09, Revision E.01,
 Gaussian 09:  ES64L-G09RevE.01 30-Nov-2015

 ----------------------------------------------------------------------
 #rhf/gen scf(symm,tight,novaracc,noincfock,fulldiag) stable(crhf) geom
 =nocrowd test
 ----------------------------------------------------------------------

 hf stability analysis of h10 triangular lattice, y= 0.5318279679167782
 2
 ----------------------------------------------------------------------
 Symbolic Z-matrix:
 Charge =  0 Multiplicity = 1

                         Standard orientation:
 ---------------------------------------------------------------------
 Center     Atomic      Atomic             Coordinates (Angstroms)
 Number     Number       Type             X           Y           Z
 ---------------------------------------------------------------------
      1          1           0        0.000000    0.531828    2.171192
      2          1           0       -0.000000    0.000000    3.256788
      3          1           0       -0.000000    0.000000    1.085596
      4          1           0       -0.000000   -0.531828    2.171192
      5          1           0       -0.000000    0.531828    0.000000
      6          1           0       -0.000000   -0.531828    0.000000
      7          1           0        0.000000    0.000000   -1.085596
      8          1           0        0.000000    0.531828   -2.171192
      9          1           0       -0.000000   -0.531828   -2.171192
     10          1           0        0.000000    0.000000   -3.256788
 ---------------------------------------------------------------------

 SCF Done:  E(RHF) =  -4.74958675031     A.U. after    8 cycles
 E2 =    -0.8835618971D-01 EUMP2 =    -0.48379429400180D+01

 The electronic state is 1-AG.
 Alpha  occ. eigenvalues --   -0.79803  -0.72483  -0.61351  -0.34173  -0.16120
 Alpha virt. eigenvalues --    0.06274   0.13839   0.21482   0.26772   0.49265

 Mulliken charges:
               1
     1  H    0.263469
     2  H   -0.439469
     3  H   -0.236367
     4  H    0.263469
     5  H    0.148898
     6  H    0.148898
     7  H   -0.236367
     8  H    0.263469
     9  H    0.263469
    10  H   -0.439469
 Sum of Mulliken charges =   0.00000

 Dipole moment (field-independent basis, Debye):
    X=             -0.0000    Y=             -0.0000    Z=              0.0000  Tot=              0.0000
 Quadrupole moment (field-independent basis, Debye-Ang):
   XX=            -12.8991   YY=             -9.2331   ZZ=            -42.5325
   XY=              0.0000   XZ=              0.0000   YZ=             -0.0000

 Normal termination of Gaussian 09 at Thu Feb  9 15:51:10 2017.
