 Gaussian 09, Revision E.01,
 Gaussian 09:  ES64L-G09RevE.01 30-Nov-2015

 ----------------------------------------------------------------------
 #rhf/gen scf(symm,tight,novaracc,noincfock,fulldiag) stable(crhf) geom
 =nocrowd test
 ----------------------------------------------------------------------

 hf stability analysis of h10 triangular lattice, y= 0.4240572948683262
 2
 ----------------------------------------------------------------------
 Symbolic Z-matrix:
 Charge =  0 Multiplicity = 1

                         Standard orientation:
 ---------------------------------------------------------------------
 Center     Atomic      Atomic             Coordinates (Angstroms)
 Number     Number       Type             X           Y           Z
 ---------------------------------------------------------------------
      1          1           0        0.000000    0.424057    2.722982
      2          1           0       -0.000000    0.000000    4.084474
      3          1           0       -0.000000    0.000000    1.361491
      4          1           0       -0.000000   -0.424057    2.722982
      5          1           0       -0.000000    0.424057    0.000000
      6          1           0       -0.000000   -0.424057    0.000000
      7          1           0        0.000000    0.000000   -1.361491
      8          1           0        0.000000    0.424057   -2.722982
      9          1           0       -0.000000   -0.424057   -2.722982
     10          1           0        0.000000    0.000000   -4.084474
 ---------------------------------------------------------------------

 SCF Done:  E(RHF) =  -4.90518719141     A.U. after    8 cycles
 E2 =    -0.1229664119D+00 EUMP2 =    -0.50281536033544D+01

 The electronic state is 1-AG.
 Alpha  occ. eigenvalues --   -0.74033  -0.70621  -0.65247  -0.32995  -0.22633
 Alpha virt. eigenvalues --    0.06580   0.19448   0.23011   0.26203   0.30620

 Mulliken charges:
               1
     1  H    0.150855
     2  H   -0.256226
     3  H   -0.118640
     4  H    0.150855
     5  H    0.073156
     6  H    0.073156
     7  H   -0.118640
     8  H    0.150855
     9  H    0.150855
    10  H   -0.256226
 Sum of Mulliken charges =   0.00000

 Dipole moment (field-independent basis, Debye):
    X=             -0.0000    Y=              0.0000    Z=              0.0000  Tot=              0.0000
 Quadrupole moment (field-independent basis, Debye-Ang):
   XX=            -13.4177   YY=            -11.2797   ZZ=            -38.6438
   XY=              0.0000   XZ=              0.0000   YZ=             -0.0000

 Normal termination of Gaussian 09 at Thu Feb  9 15:58:42 2017.
