 Gaussian 09, Revision E.01,
 Gaussian 09:  ES64L-G09RevE.01 30-Nov-2015

 ----------------------------------------------------------------------
 #rhf/gen scf(symm,tight,novaracc,noincfock,fulldiag) stable(crhf) geom
 =nocrowd test
 ----------------------------------------------------------------------

 hf stability analysis of h10 triangular lattice, y= 0.5259466788102235
 0
 ----------------------------------------------------------------------
 Symbolic Z-matrix:
 Charge =  0 Multiplicity = 1

                         Standard orientation:
 ---------------------------------------------------------------------
 Center     Atomic      Atomic             Coordinates (Angstroms)
 Number     Number       Type             X           Y           Z
 ---------------------------------------------------------------------
      1          1           0        0.000000    0.525947    2.195471
      2          1           0        0.000000   -0.000000    3.293206
      3          1           0        0.000000   -0.000000    1.097735
      4          1           0       -0.000000   -0.525947    2.195471
      5          1           0        0.000000    0.525947    0.000000
      6          1           0       -0.000000   -0.525947   -0.000000
      7          1           0        0.000000    0.000000   -1.097735
      8          1           0        0.000000    0.525947   -2.195471
      9          1           0       -0.000000   -0.525947   -2.195471
     10          1           0        0.000000    0.000000   -3.293206
 ---------------------------------------------------------------------

 SCF Done:  E(RHF) =  -4.76528795428     A.U. after    8 cycles
 E2 =    -0.8888426235D-01 EUMP2 =    -0.48541722166342D+01

 The electronic state is 1-AG.
 Alpha  occ. eigenvalues --   -0.79517  -0.72408  -0.61607  -0.34244  -0.16613
 Alpha virt. eigenvalues --    0.07063   0.14378   0.21819   0.25601   0.47745

 Mulliken charges:
               1
     1  H    0.257975
     2  H   -0.430626
     3  H   -0.230173
     4  H    0.257975
     5  H    0.144848
     6  H    0.144848
     7  H   -0.230173
     8  H    0.257975
     9  H    0.257975
    10  H   -0.430626
 Sum of Mulliken charges =   0.00000

 Dipole moment (field-independent basis, Debye):
    X=             -0.0000    Y=             -0.0000    Z=              0.0000  Tot=              0.0000
 Quadrupole moment (field-independent basis, Debye-Ang):
   XX=            -12.9310   YY=             -9.3585   ZZ=            -42.4837
   XY=              0.0000   XZ=              0.0000   YZ=             -0.0000

 Normal termination of Gaussian 09 at Thu Feb  9 15:51:36 2017.
