 Gaussian 09, Revision E.01,
 Gaussian 09:  ES64L-G09RevE.01 30-Nov-2015

 ----------------------------------------------------------------------
 #rhf/gen scf(symm,tight,novaracc,noincfock,fulldiag) stable(crhf) geom
 =nocrowd test
 ----------------------------------------------------------------------

 hf stability analysis of h10 triangular lattice, y= 0.5265355250989295
 4
 ----------------------------------------------------------------------
 Symbolic Z-matrix:
 Charge =  0 Multiplicity = 1

                         Standard orientation:
 ---------------------------------------------------------------------
 Center     Atomic      Atomic             Coordinates (Angstroms)
 Number     Number       Type             X           Y           Z
 ---------------------------------------------------------------------
      1          1           0       -0.000000    0.526536    2.193015
      2          1           0       -0.000000    0.000000    3.289523
      3          1           0       -0.000000    0.000000    1.096508
      4          1           0       -0.000000   -0.526536    2.193015
      5          1           0        0.000000    0.526536    0.000000
      6          1           0       -0.000000   -0.526536    0.000000
      7          1           0        0.000000   -0.000000   -1.096508
      8          1           0        0.000000    0.526536   -2.193015
      9          1           0       -0.000000   -0.526536   -2.193015
     10          1           0        0.000000   -0.000000   -3.289523
 ---------------------------------------------------------------------

 SCF Done:  E(RHF) =  -4.76374916343     A.U. after    8 cycles
 E2 =    -0.8882604634D-01 EUMP2 =    -0.48525752097751D+01

 The electronic state is 1-AG.
 Alpha  occ. eigenvalues --   -0.79546  -0.72416  -0.61582  -0.34238  -0.16564
 Alpha virt. eigenvalues --    0.06984   0.14324   0.21785   0.25718   0.47899

 Mulliken charges:
               1
     1  H    0.258529
     2  H   -0.431518
     3  H   -0.230795
     4  H    0.258529
     5  H    0.145255
     6  H    0.145255
     7  H   -0.230795
     8  H    0.258529
     9  H    0.258529
    10  H   -0.431518
 Sum of Mulliken charges =  -0.00000

 Dipole moment (field-independent basis, Debye):
    X=             -0.0000    Y=              0.0000    Z=             -0.0000  Tot=              0.0000
 Quadrupole moment (field-independent basis, Debye-Ang):
   XX=            -12.9278   YY=             -9.3460   ZZ=            -42.4892
   XY=              0.0000   XZ=              0.0000   YZ=              0.0000

 Normal termination of Gaussian 09 at Thu Feb  9 15:51:33 2017.
