 Gaussian 09, Revision E.01,
 Gaussian 09:  ES64L-G09RevE.01 30-Nov-2015

 ----------------------------------------------------------------------
 #rhf/gen scf(symm,tight,novaracc,noincfock,fulldiag) stable(crhf) geom
 =nocrowd test
 ----------------------------------------------------------------------

 hf stability analysis of h10 triangular lattice, y= 0.5598889440700592
 9
 ----------------------------------------------------------------------
 Symbolic Z-matrix:
 Charge =  0 Multiplicity = 1

                         Standard orientation:
 ---------------------------------------------------------------------
 Center     Atomic      Atomic             Coordinates (Angstroms)
 Number     Number       Type             X           Y           Z
 ---------------------------------------------------------------------
      1          1           0       -0.000000    0.559889    2.062374
      2          1           0       -0.000000    0.000000    3.093561
      3          1           0       -0.000000    0.000000    1.031187
      4          1           0       -0.000000   -0.559889    2.062374
      5          1           0       -0.000000    0.559889    0.000000
      6          1           0       -0.000000   -0.559889    0.000000
      7          1           0        0.000000    0.000000   -1.031187
      8          1           0        0.000000    0.559889   -2.062374
      9          1           0       -0.000000   -0.559889   -2.062374
     10          1           0        0.000000    0.000000   -3.093561
 ---------------------------------------------------------------------

 SCF Done:  E(RHF) =  -4.73524058139     A.U. after    9 cycles
 E2 =    -0.1611095165D+00 EUMP2 =    -0.48963500978459D+01

 The electronic state is 1-AG.
 Alpha  occ. eigenvalues --   -0.77869  -0.71928  -0.57182  -0.31601  -0.18141
 Alpha virt. eigenvalues --    0.05727   0.06234   0.22166   0.34048   0.62003

 Mulliken charges:
               1
     1  H    0.108219
     2  H   -0.040725
     3  H   -0.160107
     4  H    0.108219
     5  H   -0.015605
     6  H   -0.015605
     7  H   -0.160107
     8  H    0.108219
     9  H    0.108219
    10  H   -0.040725
 Sum of Mulliken charges =  -0.00000

 Dipole moment (field-independent basis, Debye):
    X=             -0.0000    Y=              0.0000    Z=              0.0000  Tot=              0.0000
 Quadrupole moment (field-independent basis, Debye-Ang):
   XX=            -13.2031   YY=            -14.3373   ZZ=            -10.8999
   XY=             -0.0000   XZ=              0.0000   YZ=             -0.0000

 Normal termination of Gaussian 09 at Thu Feb  9 15:49:06 2017.
