 Gaussian 09, Revision E.01,
 Gaussian 09:  ES64L-G09RevE.01 30-Nov-2015

 ----------------------------------------------------------------------
 #rhf/gen scf(symm,tight,novaracc,noincfock,fulldiag) stable(crhf) geom
 =nocrowd test
 ----------------------------------------------------------------------

 hf stability analysis of h10 triangular lattice, y= 0.5417936050179860
 1
 ----------------------------------------------------------------------
 Symbolic Z-matrix:
 Charge =  0 Multiplicity = 1

                         Standard orientation:
 ---------------------------------------------------------------------
 Center     Atomic      Atomic             Coordinates (Angstroms)
 Number     Number       Type             X           Y           Z
 ---------------------------------------------------------------------
      1          1           0        0.000000    0.541794    2.131255
      2          1           0       -0.000000   -0.000000    3.196883
      3          1           0       -0.000000   -0.000000    1.065628
      4          1           0       -0.000000   -0.541794    2.131255
      5          1           0        0.000000    0.541794    0.000000
      6          1           0       -0.000000   -0.541794   -0.000000
      7          1           0        0.000000    0.000000   -1.065628
      8          1           0        0.000000    0.541794   -2.131255
      9          1           0       -0.000000   -0.541794   -2.131255
     10          1           0        0.000000    0.000000   -3.196883
 ---------------------------------------------------------------------

 SCF Done:  E(RHF) =  -4.70173822249     A.U. after    9 cycles
 E2 =    -0.1732842682D+00 EUMP2 =    -0.48750224906997D+01

 The electronic state is 1-AG.
 Alpha  occ. eigenvalues --   -0.76773  -0.71437  -0.57330  -0.31625  -0.15403
 Alpha virt. eigenvalues --    0.03422   0.07866   0.22980   0.30578   0.58237

 Mulliken charges:
               1
     1  H    0.086357
     2  H   -0.009888
     3  H   -0.134180
     4  H    0.086357
     5  H   -0.028645
     6  H   -0.028645
     7  H   -0.134180
     8  H    0.086357
     9  H    0.086357
    10  H   -0.009888
 Sum of Mulliken charges =  -0.00000

 Dipole moment (field-independent basis, Debye):
    X=             -0.0000    Y=             -0.0000    Z=              0.0000  Tot=              0.0000
 Quadrupole moment (field-independent basis, Debye-Ang):
   XX=            -13.2397   YY=            -14.6246   ZZ=             -9.0131
   XY=             -0.0000   XZ=             -0.0000   YZ=              0.0000

 Normal termination of Gaussian 09 at Thu Feb  9 15:50:25 2017.
