 Gaussian 09, Revision E.01,
 Gaussian 09:  ES64L-G09RevE.01 30-Nov-2015

 ----------------------------------------------------------------------
 #rhf/gen scf(symm,tight,novaracc,noincfock,fulldiag) stable(crhf) geom
 =nocrowd test
 ----------------------------------------------------------------------

 hf stability analysis of h10 triangular lattice, y= 0.5435485892325845
 3
 ----------------------------------------------------------------------
 Symbolic Z-matrix:
 Charge =  0 Multiplicity = 1

                         Standard orientation:
 ---------------------------------------------------------------------
 Center     Atomic      Atomic             Coordinates (Angstroms)
 Number     Number       Type             X           Y           Z
 ---------------------------------------------------------------------
      1          1           0        0.000000    0.543549    2.124374
      2          1           0       -0.000000   -0.000000    3.186561
      3          1           0       -0.000000   -0.000000    1.062187
      4          1           0       -0.000000   -0.543549    2.124374
      5          1           0        0.000000    0.543549    0.000000
      6          1           0       -0.000000   -0.543549   -0.000000
      7          1           0        0.000000    0.000000   -1.062187
      8          1           0        0.000000    0.543549   -2.124374
      9          1           0       -0.000000   -0.543549   -2.124374
     10          1           0        0.000000    0.000000   -3.186561
 ---------------------------------------------------------------------

 SCF Done:  E(RHF) =  -4.70527259055     A.U. after    9 cycles
 E2 =    -0.1720241767D+00 EUMP2 =    -0.48772967673044D+01

 The electronic state is 1-AG.
 Alpha  occ. eigenvalues --   -0.76881  -0.71488  -0.57319  -0.31629  -0.15675
 Alpha virt. eigenvalues --    0.03641   0.07701   0.22895   0.30916   0.58625

 Mulliken charges:
               1
     1  H    0.088508
     2  H   -0.012892
     3  H   -0.136793
     4  H    0.088508
     5  H   -0.027331
     6  H   -0.027331
     7  H   -0.136793
     8  H    0.088508
     9  H    0.088508
    10  H   -0.012892
 Sum of Mulliken charges =  -0.00000

 Dipole moment (field-independent basis, Debye):
    X=             -0.0000    Y=             -0.0000    Z=             -0.0000  Tot=              0.0000
 Quadrupole moment (field-independent basis, Debye-Ang):
   XX=            -13.2363   YY=            -14.5977   ZZ=             -9.2053
   XY=             -0.0000   XZ=             -0.0000   YZ=             -0.0000

 Normal termination of Gaussian 09 at Thu Feb  9 15:50:18 2017.
