 Gaussian 09, Revision E.01,
 Gaussian 09:  ES64L-G09RevE.01 30-Nov-2015

 ----------------------------------------------------------------------
 #rhf/gen scf(symm,tight,novaracc,noincfock,fulldiag) stable(crhf) geom
 =nocrowd test
 ----------------------------------------------------------------------

 hf stability analysis of h10 triangular lattice, y= 0.2830441175694956
 0
 ----------------------------------------------------------------------
 Symbolic Z-matrix:
 Charge =  0 Multiplicity = 1

                         Standard orientation:
 ---------------------------------------------------------------------
 Center     Atomic      Atomic             Coordinates (Angstroms)
 Number     Number       Type             X           Y           Z
 ---------------------------------------------------------------------
      1          1           0       -0.000000    0.283044    4.079578
      2          1           0       -0.000000    0.000000    6.119367
      3          1           0       -0.000000    0.000000    2.039789
      4          1           0       -0.000000   -0.283044    4.079578
      5          1           0       -0.000000    0.283044   -0.000000
      6          1           0       -0.000000   -0.283044    0.000000
      7          1           0        0.000000   -0.000000   -2.039789
      8          1           0        0.000000    0.283044   -4.079578
      9          1           0       -0.000000   -0.283044   -4.079578
     10          1           0        0.000000   -0.000000   -6.119367
 ---------------------------------------------------------------------

 SCF Done:  E(RHF) =  -4.57912221528     A.U. after   10 cycles
 E2 =    -0.3944046142D+00 EUMP2 =    -0.49735268294990D+01

 The electronic state is 1-AG.
 Alpha  occ. eigenvalues --   -0.70532  -0.70308  -0.69655  -0.26456  -0.24356
 Alpha virt. eigenvalues --   -0.10396  -0.08120   0.52435   0.52731   0.53723

 Mulliken charges:
               1
     1  H    0.012009
     2  H   -0.029264
     3  H    0.004050
     4  H    0.012009
     5  H    0.001196
     6  H    0.001196
     7  H    0.004050
     8  H    0.012009
     9  H    0.012009
    10  H   -0.029264
 Sum of Mulliken charges =  -0.00000

 Dipole moment (field-independent basis, Debye):
    X=             -0.0000    Y=              0.0000    Z=              0.0000  Tot=              0.0000
 Quadrupole moment (field-independent basis, Debye-Ang):
   XX=            -13.5972   YY=            -12.7419   ZZ=            -21.3162
   XY=              0.0000   XZ=              0.0000   YZ=              0.0000

 Normal termination of Gaussian 09 at Thu Feb  9 16:05:28 2017.
