 Gaussian 09, Revision E.01,
 Gaussian 09:  ES64L-G09RevE.01 30-Nov-2015

 ----------------------------------------------------------------------
 #rhf/gen scf(symm,tight,novaracc,noincfock,fulldiag) stable(crhf) geom
 =nocrowd test
 ----------------------------------------------------------------------

 hf stability analysis of h10 triangular lattice, y= 0.5271242064812619
 0
 ----------------------------------------------------------------------
 Symbolic Z-matrix:
 Charge =  0 Multiplicity = 1

                         Standard orientation:
 ---------------------------------------------------------------------
 Center     Atomic      Atomic             Coordinates (Angstroms)
 Number     Number       Type             X           Y           Z
 ---------------------------------------------------------------------
      1          1           0        0.000000    0.527124    2.190566
      2          1           0        0.000000    0.000000    3.285850
      3          1           0        0.000000    0.000000    1.095283
      4          1           0       -0.000000   -0.527124    2.190566
      5          1           0        0.000000    0.527124   -0.000000
      6          1           0       -0.000000   -0.527124    0.000000
      7          1           0        0.000000    0.000000   -1.095283
      8          1           0        0.000000    0.527124   -2.190566
      9          1           0       -0.000000   -0.527124   -2.190566
     10          1           0        0.000000    0.000000   -3.285850
 ---------------------------------------------------------------------

 SCF Done:  E(RHF) =  -4.76220336227     A.U. after    8 cycles
 E2 =    -0.8876904223D-01 EUMP2 =    -0.48509724045002D+01

 The electronic state is 1-AG.
 Alpha  occ. eigenvalues --   -0.79575  -0.72423  -0.61556  -0.34231  -0.16515
 Alpha virt. eigenvalues --    0.06904   0.14269   0.21751   0.25835   0.48052

 Mulliken charges:
               1
     1  H    0.259082
     2  H   -0.432408
     3  H   -0.231417
     4  H    0.259082
     5  H    0.145661
     6  H    0.145661
     7  H   -0.231417
     8  H    0.259082
     9  H    0.259082
    10  H   -0.432408
 Sum of Mulliken charges =   0.00000

 Dipole moment (field-independent basis, Debye):
    X=             -0.0000    Y=              0.0000    Z=             -0.0000  Tot=              0.0000
 Quadrupole moment (field-independent basis, Debye-Ang):
   XX=            -12.9246   YY=             -9.3335   ZZ=            -42.4946
   XY=              0.0000   XZ=              0.0000   YZ=              0.0000

 Normal termination of Gaussian 09 at Thu Feb  9 15:51:31 2017.
