 Gaussian 09, Revision E.01,
 Gaussian 09:  ES64L-G09RevE.01 30-Nov-2015

 ----------------------------------------------------------------------
 #rhf/gen scf(symm,tight,novaracc,noincfock,fulldiag) stable(crhf) geom
 =nocrowd test
 ----------------------------------------------------------------------

 hf stability analysis of h10 triangular lattice, y= 0.3737321688687138
 0
 ----------------------------------------------------------------------
 Symbolic Z-matrix:
 Charge =  0 Multiplicity = 1

                         Standard orientation:
 ---------------------------------------------------------------------
 Center     Atomic      Atomic             Coordinates (Angstroms)
 Number     Number       Type             X           Y           Z
 ---------------------------------------------------------------------
      1          1           0        0.000000    0.373732    3.089647
      2          1           0        0.000000    0.000000    4.634471
      3          1           0        0.000000    0.000000    1.544824
      4          1           0       -0.000000   -0.373732    3.089647
      5          1           0       -0.000000    0.373732    0.000000
      6          1           0       -0.000000   -0.373732   -0.000000
      7          1           0        0.000000   -0.000000   -1.544824
      8          1           0        0.000000    0.373732   -3.089647
      9          1           0       -0.000000   -0.373732   -3.089647
     10          1           0        0.000000   -0.000000   -4.634471
 ---------------------------------------------------------------------

 SCF Done:  E(RHF) =  -4.86845837303     A.U. after    9 cycles
 E2 =    -0.1717642537D+00 EUMP2 =    -0.50402226266900D+01

 The electronic state is 1-AG.
 Alpha  occ. eigenvalues --   -0.71616  -0.69832  -0.66613  -0.30888  -0.23966
 Alpha virt. eigenvalues --   -0.01061   0.07124   0.32572   0.34240   0.37417

 Mulliken charges:
               1
     1  H    0.092991
     2  H   -0.161687
     3  H   -0.063745
     4  H    0.092991
     5  H    0.039450
     6  H    0.039450
     7  H   -0.063745
     8  H    0.092991
     9  H    0.092991
    10  H   -0.161687
 Sum of Mulliken charges =  -0.00000

 Dipole moment (field-independent basis, Debye):
    X=             -0.0000    Y=              0.0000    Z=             -0.0000  Tot=              0.0000
 Quadrupole moment (field-independent basis, Debye-Ang):
   XX=            -13.5635   YY=            -11.9842   ZZ=            -33.7719
   XY=              0.0000   XZ=              0.0000   YZ=             -0.0000

 Normal termination of Gaussian 09 at Thu Feb  9 16:01:38 2017.
