 Gaussian 09, Revision E.01,
 Gaussian 09:  ES64L-G09RevE.01 30-Nov-2015

 ----------------------------------------------------------------------
 #rhf/gen scf(symm,tight,novaracc,noincfock,fulldiag) stable(crhf) geom
 =nocrowd test
 ----------------------------------------------------------------------

 hf stability analysis of h10 triangular lattice, y= 0.6299221068523126
 5
 ----------------------------------------------------------------------
 Symbolic Z-matrix:
 Charge =  0 Multiplicity = 1

                         Standard orientation:
 ---------------------------------------------------------------------
 Center     Atomic      Atomic             Coordinates (Angstroms)
 Number     Number       Type             X           Y           Z
 ---------------------------------------------------------------------
      1          1           0        0.000000    0.629922    1.833085
      2          1           0        0.000000    0.000000    2.749627
      3          1           0        0.000000    0.000000    0.916542
      4          1           0       -0.000000   -0.629922    1.833085
      5          1           0       -0.000000    0.629922    0.000000
      6          1           0       -0.000000   -0.629922   -0.000000
      7          1           0        0.000000    0.000000   -0.916542
      8          1           0        0.000000    0.629922   -1.833085
      9          1           0       -0.000000   -0.629922   -1.833085
     10          1           0        0.000000    0.000000   -2.749627
 ---------------------------------------------------------------------

 SCF Done:  E(RHF) =  -4.81038527779     A.U. after    9 cycles
 E2 =    -0.1273338544D+00 EUMP2 =    -0.49377191321650D+01

 The electronic state is 1-AG.
 Alpha  occ. eigenvalues --   -0.81574  -0.73117  -0.55868  -0.30126  -0.27487
 Alpha virt. eigenvalues --    0.01076   0.15463   0.20299   0.46388   0.70024

 Mulliken charges:
               1
     1  H    0.185190
     2  H   -0.154876
     3  H   -0.238552
     4  H    0.185190
     5  H    0.023047
     6  H    0.023047
     7  H   -0.238552
     8  H    0.185190
     9  H    0.185190
    10  H   -0.154876
 Sum of Mulliken charges =  -0.00000

 Dipole moment (field-independent basis, Debye):
    X=             -0.0000    Y=             -0.0000    Z=             -0.0000  Tot=              0.0000
 Quadrupole moment (field-independent basis, Debye-Ang):
   XX=            -13.0480   YY=            -13.0561   ZZ=            -16.4880
   XY=              0.0000   XZ=              0.0000   YZ=             -0.0000

 Normal termination of Gaussian 09 at Thu Feb  9 15:43:51 2017.
