 Gaussian 09, Revision E.01,
 Gaussian 09:  ES64L-G09RevE.01 30-Nov-2015

 ----------------------------------------------------------------------
 #rhf/gen scf(symm,tight,novaracc,noincfock,fulldiag) stable(crhf) geom
 =nocrowd test
 ----------------------------------------------------------------------

 hf stability analysis of h10 triangular lattice, y= 0.6018065749554166
 7
 ----------------------------------------------------------------------
 Symbolic Z-matrix:
 Charge =  0 Multiplicity = 1

                         Standard orientation:
 ---------------------------------------------------------------------
 Center     Atomic      Atomic             Coordinates (Angstroms)
 Number     Number       Type             X           Y           Z
 ---------------------------------------------------------------------
      1          1           0       -0.000000    0.601807    1.918724
      2          1           0       -0.000000   -0.000000    2.878086
      3          1           0       -0.000000   -0.000000    0.959362
      4          1           0       -0.000000   -0.601807    1.918724
      5          1           0       -0.000000    0.601807    0.000000
      6          1           0       -0.000000   -0.601807    0.000000
      7          1           0        0.000000   -0.000000   -0.959362
      8          1           0        0.000000    0.601807   -1.918724
      9          1           0       -0.000000   -0.601807   -1.918724
     10          1           0        0.000000   -0.000000   -2.878086
 ---------------------------------------------------------------------

 SCF Done:  E(RHF) =  -4.78978920372     A.U. after    9 cycles
 E2 =    -0.1387530633D+00 EUMP2 =    -0.49285422670235D+01

 The electronic state is 1-AG.
 Alpha  occ. eigenvalues --   -0.80197  -0.72778  -0.56537  -0.30983  -0.23958
 Alpha virt. eigenvalues --    0.02944   0.11415   0.20820   0.41744   0.68229

 Mulliken charges:
               1
     1  H    0.155893
     2  H   -0.110331
     3  H   -0.211402
     4  H    0.155893
     5  H    0.009947
     6  H    0.009947
     7  H   -0.211402
     8  H    0.155893
     9  H    0.155893
    10  H   -0.110331
 Sum of Mulliken charges =  -0.00000

 Dipole moment (field-independent basis, Debye):
    X=             -0.0000    Y=              0.0000    Z=              0.0000  Tot=              0.0000
 Quadrupole moment (field-independent basis, Debye-Ang):
   XX=            -13.1119   YY=            -13.5994   ZZ=            -14.5393
   XY=              0.0000   XZ=              0.0000   YZ=              0.0000

 Normal termination of Gaussian 09 at Thu Feb  9 15:45:57 2017.
