 Gaussian 09, Revision E.01,
 Gaussian 09:  ES64L-G09RevE.01 30-Nov-2015

 ----------------------------------------------------------------------
 #rhf/gen scf(symm,tight,novaracc,noincfock,fulldiag) stable(crhf) geom
 =nocrowd test
 ----------------------------------------------------------------------

 hf stability analysis of h10 triangular lattice, y= 0.4908350816922412
 7
 ----------------------------------------------------------------------
 Symbolic Z-matrix:
 Charge =  0 Multiplicity = 1

                         Standard orientation:
 ---------------------------------------------------------------------
 Center     Atomic      Atomic             Coordinates (Angstroms)
 Number     Number       Type             X           Y           Z
 ---------------------------------------------------------------------
      1          1           0       -0.000000    0.490835    2.352522
      2          1           0       -0.000000   -0.000000    3.528784
      3          1           0       -0.000000   -0.000000    1.176261
      4          1           0       -0.000000   -0.490835    2.352522
      5          1           0       -0.000000    0.490835    0.000000
      6          1           0       -0.000000   -0.490835    0.000000
      7          1           0        0.000000   -0.000000   -1.176261
      8          1           0        0.000000    0.490835   -2.352522
      9          1           0       -0.000000   -0.490835   -2.352522
     10          1           0        0.000000   -0.000000   -3.528784
 ---------------------------------------------------------------------

 SCF Done:  E(RHF) =  -4.84294824899     A.U. after    9 cycles
 E2 =    -0.9467033204D-01 EUMP2 =    -0.49376185810358D+01

 The electronic state is 1-AG.
 Alpha  occ. eigenvalues --   -0.77706  -0.71866  -0.63031  -0.34341  -0.19223
 Alpha virt. eigenvalues --    0.12066   0.17889   0.18691   0.24189   0.38104

 Mulliken charges:
               1
     1  H    0.223496
     2  H   -0.374864
     3  H   -0.192416
     4  H    0.223496
     5  H    0.120288
     6  H    0.120288
     7  H   -0.192416
     8  H    0.223496
     9  H    0.223496
    10  H   -0.374864
 Sum of Mulliken charges =  -0.00000

 Dipole moment (field-independent basis, Debye):
    X=             -0.0000    Y=              0.0000    Z=              0.0000  Tot=              0.0000
 Quadrupole moment (field-independent basis, Debye-Ang):
   XX=            -13.1160   YY=            -10.0793   ZZ=            -41.8746
   XY=              0.0000   XZ=              0.0000   YZ=              0.0000

 Normal termination of Gaussian 09 at Thu Feb  9 15:54:09 2017.
