 Gaussian 09, Revision E.01,
 Gaussian 09:  ES64L-G09RevE.01 30-Nov-2015

 ----------------------------------------------------------------------
 #rhf/gen scf(symm,tight,novaracc,noincfock,fulldiag) stable(crhf) geom
 =nocrowd test
 ----------------------------------------------------------------------

 hf stability analysis of h10 triangular lattice, y= 0.3373350542285999
 4
 ----------------------------------------------------------------------
 Symbolic Z-matrix:
 Charge =  0 Multiplicity = 1

                         Standard orientation:
 ---------------------------------------------------------------------
 Center     Atomic      Atomic             Coordinates (Angstroms)
 Number     Number       Type             X           Y           Z
 ---------------------------------------------------------------------
      1          1           0        0.000000    0.337335    3.423008
      2          1           0        0.000000   -0.000000    5.134512
      3          1           0        0.000000   -0.000000    1.711504
      4          1           0       -0.000000   -0.337335    3.423008
      5          1           0        0.000000    0.337335    0.000000
      6          1           0       -0.000000   -0.337335   -0.000000
      7          1           0        0.000000    0.000000   -1.711504
      8          1           0        0.000000    0.337335   -3.423008
      9          1           0       -0.000000   -0.337335   -3.423008
     10          1           0        0.000000    0.000000   -5.134512
 ---------------------------------------------------------------------

 SCF Done:  E(RHF) =  -4.79179689033     A.U. after    9 cycles
 E2 =    -0.2347197910D+00 EUMP2 =    -0.50265166813042D+01

 The electronic state is 1-AG.
 Alpha  occ. eigenvalues --   -0.70494  -0.69588  -0.67614  -0.29070  -0.24381
 Alpha virt. eigenvalues --   -0.05549  -0.00199   0.40202   0.41118   0.43411

 Mulliken charges:
               1
     1  H    0.053857
     2  H   -0.098182
     3  H   -0.028502
     4  H    0.053857
     5  H    0.018970
     6  H    0.018970
     7  H   -0.028502
     8  H    0.053857
     9  H    0.053857
    10  H   -0.098182
 Sum of Mulliken charges =  -0.00000

 Dipole moment (field-independent basis, Debye):
    X=             -0.0000    Y=             -0.0000    Z=              0.0000  Tot=              0.0000
 Quadrupole moment (field-independent basis, Debye-Ang):
   XX=            -13.6079   YY=            -12.3629   ZZ=            -28.9667
   XY=              0.0000   XZ=              0.0000   YZ=             -0.0000

 Normal termination of Gaussian 09 at Thu Feb  9 16:03:18 2017.
