 Gaussian 09, Revision E.01,
 Gaussian 09:  ES64L-G09RevE.01 30-Nov-2015

 ----------------------------------------------------------------------
 #rhf/gen scf(symm,tight,novaracc,noincfock,fulldiag) stable(crhf) geom
 =nocrowd test
 ----------------------------------------------------------------------

 hf stability analysis of h10 triangular lattice, y= 0.5218199625932952
 2
 ----------------------------------------------------------------------
 Symbolic Z-matrix:
 Charge =  0 Multiplicity = 1

                         Standard orientation:
 ---------------------------------------------------------------------
 Center     Atomic      Atomic             Coordinates (Angstroms)
 Number     Number       Type             X           Y           Z
 ---------------------------------------------------------------------
      1          1           0        0.000000    0.521820    2.212833
      2          1           0        0.000000    0.000000    3.319250
      3          1           0        0.000000    0.000000    1.106417
      4          1           0       -0.000000   -0.521820    2.212833
      5          1           0       -0.000000    0.521820    0.000000
      6          1           0       -0.000000   -0.521820    0.000000
      7          1           0        0.000000    0.000000   -1.106417
      8          1           0        0.000000    0.521820   -2.212833
      9          1           0       -0.000000   -0.521820   -2.212833
     10          1           0        0.000000    0.000000   -3.319250
 ---------------------------------------------------------------------

 SCF Done:  E(RHF) =  -4.77586164469     A.U. after    9 cycles
 E2 =    -0.8932606220D-01 EUMP2 =    -0.48651877068940D+01

 The electronic state is 1-AG.
 Alpha  occ. eigenvalues --   -0.79314  -0.72352  -0.61784  -0.34285  -0.16949
 Alpha virt. eigenvalues --    0.07626   0.14765   0.22066   0.24780   0.46657

 Mulliken charges:
               1
     1  H    0.254072
     2  H   -0.424335
     3  H   -0.225800
     4  H    0.254072
     5  H    0.141992
     6  H    0.141992
     7  H   -0.225800
     8  H    0.254072
     9  H    0.254072
    10  H   -0.424335
 Sum of Mulliken charges =   0.00000

 Dipole moment (field-independent basis, Debye):
    X=             -0.0000    Y=              0.0000    Z=              0.0000  Tot=              0.0000
 Quadrupole moment (field-independent basis, Debye-Ang):
   XX=            -12.9532   YY=             -9.4457   ZZ=            -42.4413
   XY=              0.0000   XZ=              0.0000   YZ=             -0.0000

 Normal termination of Gaussian 09 at Thu Feb  9 15:51:54 2017.
