 Gaussian 09, Revision E.01,
 Gaussian 09:  ES64L-G09RevE.01 30-Nov-2015

 ----------------------------------------------------------------------
 #rhf/gen scf(symm,tight,novaracc,noincfock,fulldiag) stable(crhf) geom
 =nocrowd test
 ----------------------------------------------------------------------

 hf stability analysis of h10 triangular lattice, y= 0.4658451521794359
 5
 ----------------------------------------------------------------------
 Symbolic Z-matrix:
 Charge =  0 Multiplicity = 1

                         Standard orientation:
 ---------------------------------------------------------------------
 Center     Atomic      Atomic             Coordinates (Angstroms)
 Number     Number       Type             X           Y           Z
 ---------------------------------------------------------------------
      1          1           0        0.000000    0.465845    2.478722
      2          1           0        0.000000    0.000000    3.718083
      3          1           0        0.000000    0.000000    1.239361
      4          1           0       -0.000000   -0.465845    2.478722
      5          1           0        0.000000    0.465845   -0.000000
      6          1           0       -0.000000   -0.465845    0.000000
      7          1           0        0.000000   -0.000000   -1.239361
      8          1           0        0.000000    0.465845   -2.478722
      9          1           0       -0.000000   -0.465845   -2.478722
     10          1           0        0.000000   -0.000000   -3.718083
 ---------------------------------------------------------------------

 SCF Done:  E(RHF) =  -4.88010934818     A.U. after    9 cycles
 E2 =    -0.1020402937D+00 EUMP2 =    -0.49821496419139D+01

 The electronic state is 1-AG.
 Alpha  occ. eigenvalues --   -0.76337  -0.71412  -0.63932  -0.34065  -0.20734
 Alpha virt. eigenvalues --    0.13952   0.15937   0.20724   0.26278   0.30997

 Mulliken charges:
               1
     1  H    0.197291
     2  H   -0.332199
     3  H   -0.164994
     4  H    0.197291
     5  H    0.102612
     6  H    0.102612
     7  H   -0.164994
     8  H    0.197291
     9  H    0.197291
    10  H   -0.332199
 Sum of Mulliken charges =   0.00000

 Dipole moment (field-independent basis, Debye):
    X=             -0.0000    Y=              0.0000    Z=             -0.0000  Tot=              0.0000
 Quadrupole moment (field-independent basis, Debye-Ang):
   XX=            -13.2391   YY=            -10.5582   ZZ=            -41.0354
   XY=              0.0000   XZ=              0.0000   YZ=             -0.0000

 Normal termination of Gaussian 09 at Thu Feb  9 15:55:53 2017.
