 Gaussian 09, Revision E.01,
 Gaussian 09:  ES64L-G09RevE.01 30-Nov-2015

 ----------------------------------------------------------------------
 #rhf/gen scf(symm,tight,novaracc,noincfock,fulldiag) stable(crhf) geom
 =nocrowd test
 ----------------------------------------------------------------------

 hf stability analysis of h10 triangular lattice, y= 0.6542147574878637
 3
 ----------------------------------------------------------------------
 Symbolic Z-matrix:
 Charge =  0 Multiplicity = 1

                         Standard orientation:
 ---------------------------------------------------------------------
 Center     Atomic      Atomic             Coordinates (Angstroms)
 Number     Number       Type             X           Y           Z
 ---------------------------------------------------------------------
      1          1           0        0.000000    0.654215    1.765018
      2          1           0        0.000000    0.000000    2.647526
      3          1           0        0.000000    0.000000    0.882509
      4          1           0       -0.000000   -0.654215    1.765018
      5          1           0       -0.000000    0.654215   -0.000000
      6          1           0       -0.000000   -0.654215    0.000000
      7          1           0        0.000000   -0.000000   -0.882509
      8          1           0        0.000000    0.654215   -1.765018
      9          1           0       -0.000000   -0.654215   -1.765018
     10          1           0        0.000000   -0.000000   -2.647526
 ---------------------------------------------------------------------

 SCF Done:  E(RHF) =  -4.81901432505     A.U. after    9 cycles
 E2 =    -0.1192785575D+00 EUMP2 =    -0.49382928825390D+01

 The electronic state is 1-AG.
 Alpha  occ. eigenvalues --   -0.82635  -0.73259  -0.55144  -0.30324  -0.29106
 Alpha virt. eigenvalues --   -0.00347   0.19071   0.20068   0.49891   0.69950

 Mulliken charges:
               1
     1  H    0.208518
     2  H   -0.191571
     3  H   -0.256975
     4  H    0.208518
     5  H    0.031510
     6  H    0.031510
     7  H   -0.256975
     8  H    0.208518
     9  H    0.208518
    10  H   -0.191571
 Sum of Mulliken charges =   0.00000

 Dipole moment (field-independent basis, Debye):
    X=             -0.0000    Y=             -0.0000    Z=             -0.0000  Tot=              0.0000
 Quadrupole moment (field-independent basis, Debye-Ang):
   XX=            -12.9923   YY=            -12.5622   ZZ=            -17.9053
   XY=              0.0000   XZ=              0.0000   YZ=             -0.0000

 Normal termination of Gaussian 09 at Thu Feb  9 15:42:04 2017.
