 Gaussian 09, Revision E.01,
 Gaussian 09:  ES64L-G09RevE.01 30-Nov-2015

 ----------------------------------------------------------------------
 #rhf/gen scf(symm,tight,novaracc,noincfock,fulldiag) stable(crhf) geom
 =nocrowd test
 ----------------------------------------------------------------------

 hf stability analysis of h10 triangular lattice, y= 0.6911046949658845
 6
 ----------------------------------------------------------------------
 Symbolic Z-matrix:
 Charge =  0 Multiplicity = 1

                         Standard orientation:
 ---------------------------------------------------------------------
 Center     Atomic      Atomic             Coordinates (Angstroms)
 Number     Number       Type             X           Y           Z
 ---------------------------------------------------------------------
      1          1           0        0.000000    0.691105    1.670804
      2          1           0       -0.000000    0.000000    2.506206
      3          1           0       -0.000000    0.000000    0.835402
      4          1           0       -0.000000   -0.691105    1.670804
      5          1           0       -0.000000    0.691105   -0.000000
      6          1           0       -0.000000   -0.691105    0.000000
      7          1           0        0.000000   -0.000000   -0.835402
      8          1           0        0.000000    0.691105   -1.670804
      9          1           0       -0.000000   -0.691105   -1.670804
     10          1           0        0.000000   -0.000000   -2.506206
 ---------------------------------------------------------------------

 SCF Done:  E(RHF) =  -4.81735203313     A.U. after    9 cycles
 E2 =    -0.1096657264D+00 EUMP2 =    -0.49270177595030D+01

 The electronic state is 1-AG.
 Alpha  occ. eigenvalues --   -0.84016  -0.73217  -0.53805  -0.34302  -0.27090
 Alpha virt. eigenvalues --   -0.02212   0.20065   0.24659   0.54066   0.67271

 Mulliken charges:
               1
     1  H    0.240102
     2  H   -0.243660
     3  H   -0.275647
     4  H    0.240102
     5  H    0.039103
     6  H    0.039103
     7  H   -0.275647
     8  H    0.240102
     9  H    0.240102
    10  H   -0.243660
 Sum of Mulliken charges =  -0.00000

 Dipole moment (field-independent basis, Debye):
    X=             -0.0000    Y=             -0.0000    Z=             -0.0000  Tot=              0.0000
 Quadrupole moment (field-independent basis, Debye-Ang):
   XX=            -12.9081   YY=            -11.7817   ZZ=            -19.6638
   XY=              0.0000   XZ=              0.0000   YZ=              0.0000

 Normal termination of Gaussian 09 at Thu Feb  9 15:39:24 2017.
