 Gaussian 09, Revision E.01,
 Gaussian 09:  ES64L-G09RevE.01 30-Nov-2015

 ----------------------------------------------------------------------
 #rhf/gen scf(symm,tight,novaracc,noincfock,fulldiag) stable(crhf) geom
 =nocrowd test
 ----------------------------------------------------------------------

 hf stability analysis of h10 triangular lattice, y= 0.6577989931693345
 4
 ----------------------------------------------------------------------
 Symbolic Z-matrix:
 Charge =  0 Multiplicity = 1

                         Standard orientation:
 ---------------------------------------------------------------------
 Center     Atomic      Atomic             Coordinates (Angstroms)
 Number     Number       Type             X           Y           Z
 ---------------------------------------------------------------------
      1          1           0        0.000000    0.657799    1.755400
      2          1           0        0.000000    0.000000    2.633100
      3          1           0        0.000000    0.000000    0.877700
      4          1           0       -0.000000   -0.657799    1.755400
      5          1           0       -0.000000    0.657799    0.000000
      6          1           0       -0.000000   -0.657799    0.000000
      7          1           0        0.000000   -0.000000   -0.877700
      8          1           0        0.000000    0.657799   -1.755400
      9          1           0       -0.000000   -0.657799   -1.755400
     10          1           0        0.000000   -0.000000   -2.633100
 ---------------------------------------------------------------------

 SCF Done:  E(RHF) =  -4.81961247921     A.U. after    9 cycles
 E2 =    -0.1182144012D+00 EUMP2 =    -0.49378268804581D+01

 The electronic state is 1-AG.
 Alpha  occ. eigenvalues --   -0.82782  -0.73269  -0.55027  -0.30727  -0.28934
 Alpha virt. eigenvalues --   -0.00543   0.19610   0.20051   0.50361   0.69817

 Mulliken charges:
               1
     1  H    0.211794
     2  H   -0.196830
     3  H   -0.259285
     4  H    0.211794
     5  H    0.032527
     6  H    0.032527
     7  H   -0.259285
     8  H    0.211794
     9  H    0.211794
    10  H   -0.196830
 Sum of Mulliken charges =   0.00000

 Dipole moment (field-independent basis, Debye):
    X=             -0.0000    Y=              0.0000    Z=              0.0000  Tot=              0.0000
 Quadrupole moment (field-independent basis, Debye-Ang):
   XX=            -12.9840   YY=            -12.4877   ZZ=            -18.0958
   XY=              0.0000   XZ=              0.0000   YZ=             -0.0000

 Normal termination of Gaussian 09 at Thu Feb  9 15:41:48 2017.
