 Gaussian 09, Revision E.01,
 Gaussian 09:  ES64L-G09RevE.01 30-Nov-2015

 ----------------------------------------------------------------------
 #rhf/gen scf(symm,tight,novaracc,noincfock,fulldiag) stable(crhf) geom
 =nocrowd test
 ----------------------------------------------------------------------

 hf stability analysis of h10 triangular lattice, y= 0.3427291105198108
 1
 ----------------------------------------------------------------------
 Symbolic Z-matrix:
 Charge =  0 Multiplicity = 1

                         Standard orientation:
 ---------------------------------------------------------------------
 Center     Atomic      Atomic             Coordinates (Angstroms)
 Number     Number       Type             X           Y           Z
 ---------------------------------------------------------------------
      1          1           0        0.000000    0.342729    3.369135
      2          1           0        0.000000   -0.000000    5.053702
      3          1           0        0.000000   -0.000000    1.684567
      4          1           0       -0.000000   -0.342729    3.369135
      5          1           0        0.000000    0.342729    0.000000
      6          1           0       -0.000000   -0.342729    0.000000
      7          1           0        0.000000   -0.000000   -1.684567
      8          1           0        0.000000    0.342729   -3.369135
      9          1           0       -0.000000   -0.342729   -3.369135
     10          1           0        0.000000   -0.000000   -5.053702
 ---------------------------------------------------------------------

 SCF Done:  E(RHF) =  -4.80605797974     A.U. after    9 cycles
 E2 =    -0.2234229249D+00 EUMP2 =    -0.50294809046816D+01

 The electronic state is 1-AG.
 Alpha  occ. eigenvalues --   -0.70613  -0.69597  -0.67456  -0.29344  -0.24345
 Alpha virt. eigenvalues --   -0.04945   0.00789   0.39036   0.40044   0.42470

 Mulliken charges:
               1
     1  H    0.059297
     2  H   -0.106998
     3  H   -0.033256
     4  H    0.059297
     5  H    0.021661
     6  H    0.021661
     7  H   -0.033256
     8  H    0.059297
     9  H    0.059297
    10  H   -0.106998
 Sum of Mulliken charges =   0.00000

 Dipole moment (field-independent basis, Debye):
    X=             -0.0000    Y=             -0.0000    Z=              0.0000  Tot=              0.0000
 Quadrupole moment (field-independent basis, Debye-Ang):
   XX=            -13.6047   YY=            -12.3139   ZZ=            -29.7277
   XY=              0.0000   XZ=              0.0000   YZ=             -0.0000

 Normal termination of Gaussian 09 at Thu Feb  9 16:03:04 2017.
