 Gaussian 09, Revision E.01,
 Gaussian 09:  ES64L-G09RevE.01 30-Nov-2015

 ----------------------------------------------------------------------
 #rhf/gen scf(symm,tight,novaracc,noincfock,fulldiag) stable(crhf) geom
 =nocrowd test
 ----------------------------------------------------------------------

 hf stability analysis of h10 triangular lattice, y= 0.7519196630565040
 4
 ----------------------------------------------------------------------
 Symbolic Z-matrix:
 Charge =  0 Multiplicity = 1

                         Standard orientation:
 ---------------------------------------------------------------------
 Center     Atomic      Atomic             Coordinates (Angstroms)
 Number     Number       Type             X           Y           Z
 ---------------------------------------------------------------------
      1          1           0        0.000000    0.751920    1.535670
      2          1           0       -0.000000    0.000000    2.303505
      3          1           0       -0.000000    0.000000    0.767835
      4          1           0       -0.000000   -0.751920    1.535670
      5          1           0       -0.000000    0.751920   -0.000000
      6          1           0       -0.000000   -0.751920    0.000000
      7          1           0        0.000000   -0.000000   -0.767835
      8          1           0        0.000000    0.751920   -1.535670
      9          1           0       -0.000000   -0.751920   -1.535670
     10          1           0        0.000000   -0.000000   -2.303505
 ---------------------------------------------------------------------

 SCF Done:  E(RHF) =  -4.84568460836     A.U. after    8 cycles
 E2 =    -0.9774770336D-01 EUMP2 =    -0.49434323117240D+01

 The electronic state is 1-AG.
 Alpha  occ. eigenvalues --   -0.90717  -0.74608  -0.52191  -0.45693  -0.27241
 Alpha virt. eigenvalues --   -0.02552   0.14958   0.33562   0.53274   0.55125

 Mulliken charges:
               1
     1  H   -0.213851
     2  H    0.235900
     3  H    0.158026
     4  H   -0.213851
     5  H    0.033775
     6  H    0.033775
     7  H    0.158026
     8  H   -0.213851
     9  H   -0.213851
    10  H    0.235900
 Sum of Mulliken charges =  -0.00000

 Dipole moment (field-independent basis, Debye):
    X=              0.0000    Y=              0.0000    Z=             -0.0000  Tot=              0.0000
 Quadrupole moment (field-independent basis, Debye-Ang):
   XX=            -13.0077   YY=            -18.6618   ZZ=            -10.6883
   XY=             -0.0000   XZ=             -0.0000   YZ=              0.0000

 Normal termination of Gaussian 09 at Thu Feb  9 15:35:18 2017.
