 Gaussian 09, Revision E.01,
 Gaussian 09:  ES64L-G09RevE.01 30-Nov-2015

 ----------------------------------------------------------------------
 #rhf/gen scf(symm,tight,novaracc,noincfock,fulldiag) stable(crhf) geom
 =nocrowd test
 ----------------------------------------------------------------------

 hf stability analysis of h10 triangular lattice, y= 0.5353495790625147
 9
 ----------------------------------------------------------------------
 Symbolic Z-matrix:
 Charge =  0 Multiplicity = 1

                         Standard orientation:
 ---------------------------------------------------------------------
 Center     Atomic      Atomic             Coordinates (Angstroms)
 Number     Number       Type             X           Y           Z
 ---------------------------------------------------------------------
      1          1           0        0.000000    0.535350    2.156909
      2          1           0        0.000000    0.000000    3.235364
      3          1           0        0.000000    0.000000    1.078455
      4          1           0       -0.000000   -0.535350    2.156909
      5          1           0        0.000000    0.535350    0.000000
      6          1           0       -0.000000   -0.535350    0.000000
      7          1           0        0.000000    0.000000   -1.078455
      8          1           0        0.000000    0.535350   -2.156909
      9          1           0       -0.000000   -0.535350   -2.156909
     10          1           0        0.000000    0.000000   -3.235364
 ---------------------------------------------------------------------

 SCF Done:  E(RHF) =  -4.73983609618     A.U. after    8 cycles
 E2 =    -0.8809623889D-01 EUMP2 =    -0.48279323350733D+01

 The electronic state is 1-AG.
 Alpha  occ. eigenvalues --   -0.79970  -0.72525  -0.61195  -0.34122  -0.15818
 Alpha virt. eigenvalues --    0.05807   0.13522   0.21287   0.27474   0.50157

 Mulliken charges:
               1
     1  H    0.266718
     2  H   -0.444695
     3  H   -0.240052
     4  H    0.266718
     5  H    0.151311
     6  H    0.151311
     7  H   -0.240052
     8  H    0.266718
     9  H    0.266718
    10  H   -0.444695
 Sum of Mulliken charges =  -0.00000

 Dipole moment (field-independent basis, Debye):
    X=             -0.0000    Y=             -0.0000    Z=              0.0000  Tot=              0.0000
 Quadrupole moment (field-independent basis, Debye-Ang):
   XX=            -12.8799   YY=             -9.1574   ZZ=            -42.5553
   XY=              0.0000   XZ=              0.0000   YZ=             -0.0000

 Normal termination of Gaussian 09 at Thu Feb  9 15:50:54 2017.
