 Gaussian 09, Revision E.01,
 Gaussian 09:  ES64L-G09RevE.01 30-Nov-2015

 ----------------------------------------------------------------------
 #rhf/gen scf(symm,tight,novaracc,noincfock,fulldiag) stable(crhf) geom
 =nocrowd test
 ----------------------------------------------------------------------

 hf stability analysis of h10 triangular lattice, y= 0.5129460835266602
 7
 ----------------------------------------------------------------------
 Symbolic Z-matrix:
 Charge =  0 Multiplicity = 1

                         Standard orientation:
 ---------------------------------------------------------------------
 Center     Atomic      Atomic             Coordinates (Angstroms)
 Number     Number       Type             X           Y           Z
 ---------------------------------------------------------------------
      1          1           0       -0.000000    0.512946    2.251115
      2          1           0       -0.000000   -0.000000    3.376672
      3          1           0       -0.000000   -0.000000    1.125557
      4          1           0       -0.000000   -0.512946    2.251115
      5          1           0       -0.000000    0.512946    0.000000
      6          1           0       -0.000000   -0.512946   -0.000000
      7          1           0        0.000000    0.000000   -1.125557
      8          1           0        0.000000    0.512946   -2.251115
      9          1           0       -0.000000   -0.512946   -2.251115
     10          1           0        0.000000    0.000000   -3.376672
 ---------------------------------------------------------------------

 SCF Done:  E(RHF) =  -4.79732940428     A.U. after    9 cycles
 E2 =    -0.9048102617D-01 EUMP2 =    -0.48878104304466D+01

 The electronic state is 1-AG.
 Alpha  occ. eigenvalues --   -0.78867  -0.72225  -0.62156  -0.34346  -0.17646
 Alpha virt. eigenvalues --    0.08858   0.15618   0.22624   0.23021   0.44268

 Mulliken charges:
               1
     1  H    0.245541
     2  H   -0.410568
     3  H   -0.216331
     4  H    0.245541
     5  H    0.135817
     6  H    0.135817
     7  H   -0.216331
     8  H    0.245541
     9  H    0.245541
    10  H   -0.410568
 Sum of Mulliken charges =  -0.00000

 Dipole moment (field-independent basis, Debye):
    X=             -0.0000    Y=              0.0000    Z=             -0.0000  Tot=              0.0000
 Quadrupole moment (field-independent basis, Debye-Ang):
   XX=            -13.0007   YY=             -9.6312   ZZ=            -42.3255
   XY=              0.0000   XZ=              0.0000   YZ=              0.0000

 Normal termination of Gaussian 09 at Thu Feb  9 15:52:33 2017.
