 Gaussian 09, Revision E.01,
 Gaussian 09:  ES64L-G09RevE.01 30-Nov-2015

 ----------------------------------------------------------------------
 #rhf/gen scf(symm,tight,novaracc,noincfock,fulldiag) stable(crhf) geom
 =nocrowd test
 ----------------------------------------------------------------------

 hf stability analysis of h10 triangular lattice, y= 0.4853991015761644
 5
 ----------------------------------------------------------------------
 Symbolic Z-matrix:
 Charge =  0 Multiplicity = 1

                         Standard orientation:
 ---------------------------------------------------------------------
 Center     Atomic      Atomic             Coordinates (Angstroms)
 Number     Number       Type             X           Y           Z
 ---------------------------------------------------------------------
      1          1           0        0.000000    0.485399    2.378868
      2          1           0        0.000000   -0.000000    3.568302
      3          1           0        0.000000   -0.000000    1.189434
      4          1           0       -0.000000   -0.485399    2.378868
      5          1           0        0.000000    0.485399    0.000000
      6          1           0       -0.000000   -0.485399   -0.000000
      7          1           0        0.000000    0.000000   -1.189434
      8          1           0        0.000000    0.485399   -2.378868
      9          1           0       -0.000000   -0.485399   -2.378868
     10          1           0        0.000000    0.000000   -3.568302
 ---------------------------------------------------------------------

 SCF Done:  E(RHF) =  -4.85236939729     A.U. after    9 cycles
 E2 =    -0.9601504932D-01 EUMP2 =    -0.49483844466075D+01

 The electronic state is 1-AG.
 Alpha  occ. eigenvalues --   -0.77412  -0.71771  -0.63234  -0.34306  -0.19576
 Alpha virt. eigenvalues --    0.12886   0.17644   0.18480   0.24613   0.36562

 Mulliken charges:
               1
     1  H    0.217909
     2  H   -0.365786
     3  H   -0.186481
     4  H    0.217909
     5  H    0.116450
     6  H    0.116450
     7  H   -0.186481
     8  H    0.217909
     9  H    0.217909
    10  H   -0.365786
 Sum of Mulliken charges =  -0.00000

 Dipole moment (field-independent basis, Debye):
    X=             -0.0000    Y=              0.0000    Z=              0.0000  Tot=              0.0000
 Quadrupole moment (field-independent basis, Debye-Ang):
   XX=            -13.1436   YY=            -10.1862   ZZ=            -41.7242
   XY=              0.0000   XZ=              0.0000   YZ=              0.0000

 Normal termination of Gaussian 09 at Thu Feb  9 15:54:32 2017.
