 Gaussian 09, Revision E.01,
 Gaussian 09:  ES64L-G09RevE.01 30-Nov-2015

 ----------------------------------------------------------------------
 #rhf/gen scf(symm,tight,novaracc,noincfock,fulldiag) stable(crhf) geom
 =nocrowd test
 ----------------------------------------------------------------------

 hf stability analysis of h10 triangular lattice, y= 0.4577858909703090
 3
 ----------------------------------------------------------------------
 Symbolic Z-matrix:
 Charge =  0 Multiplicity = 1

                         Standard orientation:
 ---------------------------------------------------------------------
 Center     Atomic      Atomic             Coordinates (Angstroms)
 Number     Number       Type             X           Y           Z
 ---------------------------------------------------------------------
      1          1           0       -0.000000    0.457786    2.522359
      2          1           0        0.000000   -0.000000    3.783539
      3          1           0        0.000000   -0.000000    1.261180
      4          1           0       -0.000000   -0.457786    2.522359
      5          1           0       -0.000000    0.457786    0.000000
      6          1           0       -0.000000   -0.457786   -0.000000
      7          1           0        0.000000    0.000000   -1.261180
      8          1           0        0.000000    0.457786   -2.522359
      9          1           0       -0.000000   -0.457786   -2.522359
     10          1           0        0.000000    0.000000   -3.783539
 ---------------------------------------------------------------------

 SCF Done:  E(RHF) =  -4.88865419194     A.U. after    9 cycles
 E2 =    -0.1051312470D+00 EUMP2 =    -0.49937854389496D+01

 The electronic state is 1-AG.
 Alpha  occ. eigenvalues --   -0.75889  -0.71260  -0.64203  -0.33917  -0.21160
 Alpha virt. eigenvalues --    0.12471   0.17242   0.21705   0.27029   0.28715

 Mulliken charges:
               1
     1  H    0.188568
     2  H   -0.317954
     3  H   -0.156088
     4  H    0.188568
     5  H    0.096906
     6  H    0.096906
     7  H   -0.156088
     8  H    0.188568
     9  H    0.188568
    10  H   -0.317954
 Sum of Mulliken charges =   0.00000

 Dipole moment (field-independent basis, Debye):
    X=             -0.0000    Y=             -0.0000    Z=             -0.0000  Tot=              0.0000
 Quadrupole moment (field-independent basis, Debye-Ang):
   XX=            -13.2765   YY=            -10.7056   ZZ=            -40.6779
   XY=              0.0000   XZ=              0.0000   YZ=              0.0000

 Normal termination of Gaussian 09 at Thu Feb  9 15:56:27 2017.
