 Gaussian 09, Revision E.01,
 Gaussian 09:  ES64L-G09RevE.01 30-Nov-2015

 ----------------------------------------------------------------------
 #rhf/gen scf(symm,tight,novaracc,noincfock,fulldiag) stable(crhf) geom
 =nocrowd test
 ----------------------------------------------------------------------

 hf stability analysis of h10 triangular lattice, y= 0.2998241552511207
 2
 ----------------------------------------------------------------------
 Symbolic Z-matrix:
 Charge =  0 Multiplicity = 1

                         Standard orientation:
 ---------------------------------------------------------------------
 Center     Atomic      Atomic             Coordinates (Angstroms)
 Number     Number       Type             X           Y           Z
 ---------------------------------------------------------------------
      1          1           0       -0.000000    0.299824    3.851259
      2          1           0       -0.000000    0.000000    5.776889
      3          1           0       -0.000000    0.000000    1.925630
      4          1           0       -0.000000   -0.299824    3.851259
      5          1           0        0.000000    0.299824   -0.000000
      6          1           0       -0.000000   -0.299824    0.000000
      7          1           0        0.000000   -0.000000   -1.925630
      8          1           0        0.000000    0.299824   -3.851259
      9          1           0       -0.000000   -0.299824   -3.851259
     10          1           0        0.000000   -0.000000   -5.776889
 ---------------------------------------------------------------------

 SCF Done:  E(RHF) =  -4.66009894971     A.U. after    9 cycles
 E2 =    -0.3359143476D+00 EUMP2 =    -0.49960132973514D+01

 The electronic state is 1-AG.
 Alpha  occ. eigenvalues --   -0.70258  -0.69897  -0.68912  -0.27220  -0.24433
 Alpha virt. eigenvalues --   -0.09141  -0.06073   0.48581   0.49015   0.50389

 Mulliken charges:
               1
     1  H    0.021950
     2  H   -0.046070
     3  H   -0.002593
     4  H    0.021950
     5  H    0.004763
     6  H    0.004763
     7  H   -0.002593
     8  H    0.021950
     9  H    0.021950
    10  H   -0.046070
 Sum of Mulliken charges =  -0.00000

 Dipole moment (field-independent basis, Debye):
    X=             -0.0000    Y=             -0.0000    Z=              0.0000  Tot=              0.0000
 Quadrupole moment (field-independent basis, Debye-Ang):
   XX=            -13.6061   YY=            -12.6433   ZZ=            -23.5702
   XY=              0.0000   XZ=              0.0000   YZ=             -0.0000

 Normal termination of Gaussian 09 at Thu Feb  9 16:04:51 2017.
