 Gaussian 09, Revision E.01,
 Gaussian 09:  ES64L-G09RevE.01 30-Nov-2015

 ----------------------------------------------------------------------
 #rhf/gen scf(symm,tight,novaracc,noincfock,fulldiag) stable(crhf) geom
 =nocrowd test
 ----------------------------------------------------------------------

 hf stability analysis of h10 triangular lattice, y= 0.7591729094044845
 6
 ----------------------------------------------------------------------
 Symbolic Z-matrix:
 Charge =  0 Multiplicity = 1

                         Standard orientation:
 ---------------------------------------------------------------------
 Center     Atomic      Atomic             Coordinates (Angstroms)
 Number     Number       Type             X           Y           Z
 ---------------------------------------------------------------------
      1          1           0        0.000000    0.759173    1.520998
      2          1           0       -0.000000    0.000000    2.281497
      3          1           0       -0.000000    0.000000    0.760499
      4          1           0       -0.000000   -0.759173    1.520998
      5          1           0       -0.000000    0.759173    0.000000
      6          1           0       -0.000000   -0.759173    0.000000
      7          1           0        0.000000   -0.000000   -0.760499
      8          1           0        0.000000    0.759173   -1.520998
      9          1           0       -0.000000   -0.759173   -1.520998
     10          1           0        0.000000   -0.000000   -2.281497
 ---------------------------------------------------------------------

 SCF Done:  E(RHF) =  -4.85624328535     A.U. after    8 cycles
 E2 =    -0.9749141251D-01 EUMP2 =    -0.49537346978613D+01

 The electronic state is 1-AG.
 Alpha  occ. eigenvalues --   -0.91016  -0.74681  -0.51908  -0.46284  -0.27603
 Alpha virt. eigenvalues --   -0.01984   0.15141   0.34581   0.51977   0.55169

 Mulliken charges:
               1
     1  H   -0.209415
     2  H    0.228607
     3  H    0.152330
     4  H   -0.209415
     5  H    0.037894
     6  H    0.037894
     7  H    0.152330
     8  H   -0.209415
     9  H   -0.209415
    10  H    0.228607
 Sum of Mulliken charges =  -0.00000

 Dipole moment (field-independent basis, Debye):
    X=              0.0000    Y=             -0.0000    Z=             -0.0000  Tot=              0.0000
 Quadrupole moment (field-independent basis, Debye-Ang):
   XX=            -13.0033   YY=            -18.5751   ZZ=            -11.0429
   XY=             -0.0000   XZ=             -0.0000   YZ=              0.0000

 Normal termination of Gaussian 09 at Thu Feb  9 15:34:49 2017.
