 Gaussian 09, Revision E.01,
 Gaussian 09:  ES64L-G09RevE.01 30-Nov-2015

 ----------------------------------------------------------------------
 #rhf/gen scf(symm,tight,novaracc,noincfock,fulldiag) stable(crhf) geom
 =nocrowd test
 ----------------------------------------------------------------------

 hf stability analysis of h10 triangular lattice, y= 0.6340477650258882
 2
 ----------------------------------------------------------------------
 Symbolic Z-matrix:
 Charge =  0 Multiplicity = 1

                         Standard orientation:
 ---------------------------------------------------------------------
 Center     Atomic      Atomic             Coordinates (Angstroms)
 Number     Number       Type             X           Y           Z
 ---------------------------------------------------------------------
      1          1           0       -0.000000    0.634048    1.821157
      2          1           0       -0.000000    0.000000    2.731736
      3          1           0       -0.000000    0.000000    0.910579
      4          1           0       -0.000000   -0.634048    1.821157
      5          1           0       -0.000000    0.634048   -0.000000
      6          1           0       -0.000000   -0.634048    0.000000
      7          1           0        0.000000   -0.000000   -0.910579
      8          1           0        0.000000    0.634048   -1.821157
      9          1           0       -0.000000   -0.634048   -1.821157
     10          1           0        0.000000   -0.000000   -2.731736
 ---------------------------------------------------------------------

 SCF Done:  E(RHF) =  -4.81242737535     A.U. after    9 cycles
 E2 =    -0.1258565073D+00 EUMP2 =    -0.49382838826388D+01

 The electronic state is 1-AG.
 Alpha  occ. eigenvalues --   -0.81763  -0.73151  -0.55755  -0.29970  -0.27982
 Alpha virt. eigenvalues --    0.00822   0.16069   0.20246   0.47020   0.70116

 Mulliken charges:
               1
     1  H    0.189287
     2  H   -0.161233
     3  H   -0.242016
     4  H    0.189287
     5  H    0.024676
     6  H    0.024676
     7  H   -0.242016
     8  H    0.189287
     9  H    0.189287
    10  H   -0.161233
 Sum of Mulliken charges =  -0.00000

 Dipole moment (field-independent basis, Debye):
    X=             -0.0000    Y=              0.0000    Z=             -0.0000  Tot=              0.0000
 Quadrupole moment (field-independent basis, Debye-Ang):
   XX=            -13.0386   YY=            -12.9736   ZZ=            -16.7450
   XY=              0.0000   XZ=              0.0000   YZ=             -0.0000

 Normal termination of Gaussian 09 at Thu Feb  9 15:43:33 2017.
