 Gaussian 09, Revision E.01,
 Gaussian 09:  ES64L-G09RevE.01 30-Nov-2015

 ----------------------------------------------------------------------
 #rhf/gen scf(symm,tight,novaracc,noincfock,fulldiag) stable(crhf) geom
 =nocrowd test
 ----------------------------------------------------------------------

 hf stability analysis of h10 triangular lattice, y= 0.7084369783301545
 1
 ----------------------------------------------------------------------
 Symbolic Z-matrix:
 Charge =  0 Multiplicity = 1

                         Standard orientation:
 ---------------------------------------------------------------------
 Center     Atomic      Atomic             Coordinates (Angstroms)
 Number     Number       Type             X           Y           Z
 ---------------------------------------------------------------------
      1          1           0        0.000000    0.708437    1.629927
      2          1           0        0.000000   -0.000000    2.444890
      3          1           0        0.000000   -0.000000    0.814963
      4          1           0       -0.000000   -0.708437    1.629927
      5          1           0       -0.000000    0.708437    0.000000
      6          1           0       -0.000000   -0.708437   -0.000000
      7          1           0        0.000000    0.000000   -0.814963
      8          1           0        0.000000    0.708437   -1.629927
      9          1           0       -0.000000   -0.708437   -1.629927
     10          1           0        0.000000    0.000000   -2.444890
 ---------------------------------------------------------------------

 SCF Done:  E(RHF) =  -4.81084009907     A.U. after    9 cycles
 E2 =    -0.1060760207D+00 EUMP2 =    -0.49169161197682D+01

 The electronic state is 1-AG.
 Alpha  occ. eigenvalues --   -0.84572  -0.73094  -0.53085  -0.36051  -0.25962
 Alpha virt. eigenvalues --   -0.02980   0.20194   0.27290   0.55492   0.65160

 Mulliken charges:
               1
     1  H    0.253280
     2  H   -0.266537
     3  H   -0.280530
     4  H    0.253280
     5  H    0.040506
     6  H    0.040506
     7  H   -0.280530
     8  H    0.253280
     9  H    0.253280
    10  H   -0.266537
 Sum of Mulliken charges =  -0.00000

 Dipole moment (field-independent basis, Debye):
    X=             -0.0000    Y=              0.0000    Z=              0.0000  Tot=              0.0000
 Quadrupole moment (field-independent basis, Debye-Ang):
   XX=            -12.8692   YY=            -11.4071   ZZ=            -20.3525
   XY=              0.0000   XZ=              0.0000   YZ=             -0.0000

 Normal termination of Gaussian 09 at Thu Feb  9 15:38:14 2017.
