 Gaussian 09, Revision E.01,
 Gaussian 09:  ES64L-G09RevE.01 30-Nov-2015

 ----------------------------------------------------------------------
 #rhf/gen scf(symm,tight,novaracc,noincfock,fulldiag) stable(crhf) geom
 =nocrowd test
 ----------------------------------------------------------------------

 hf stability analysis of h10 triangular lattice, y= 0.6583971902089469
 4
 ----------------------------------------------------------------------
 Symbolic Z-matrix:
 Charge =  0 Multiplicity = 1

                         Standard orientation:
 ---------------------------------------------------------------------
 Center     Atomic      Atomic             Coordinates (Angstroms)
 Number     Number       Type             X           Y           Z
 ---------------------------------------------------------------------
      1          1           0        0.000000    0.658397    1.753805
      2          1           0        0.000000    0.000000    2.630708
      3          1           0        0.000000    0.000000    0.876903
      4          1           0       -0.000000   -0.658397    1.753805
      5          1           0       -0.000000    0.658397    0.000000
      6          1           0       -0.000000   -0.658397    0.000000
      7          1           0        0.000000   -0.000000   -0.876903
      8          1           0        0.000000    0.658397   -1.753805
      9          1           0       -0.000000   -0.658397   -1.753805
     10          1           0        0.000000   -0.000000   -2.630708
 ---------------------------------------------------------------------

 SCF Done:  E(RHF) =  -4.81969590077     A.U. after    9 cycles
 E2 =    -0.1180397163D+00 EUMP2 =    -0.49377356170736D+01

 The electronic state is 1-AG.
 Alpha  occ. eigenvalues --   -0.82806  -0.73270  -0.55007  -0.30794  -0.28905
 Alpha virt. eigenvalues --   -0.00576   0.19700   0.20048   0.50438   0.69792

 Mulliken charges:
               1
     1  H    0.212337
     2  H   -0.197704
     3  H   -0.259660
     4  H    0.212337
     5  H    0.032690
     6  H    0.032690
     7  H   -0.259660
     8  H    0.212337
     9  H    0.212337
    10  H   -0.197704
 Sum of Mulliken charges =  -0.00000

 Dipole moment (field-independent basis, Debye):
    X=             -0.0000    Y=              0.0000    Z=              0.0000  Tot=              0.0000
 Quadrupole moment (field-independent basis, Debye-Ang):
   XX=            -12.9826   YY=            -12.4753   ZZ=            -18.1271
   XY=              0.0000   XZ=              0.0000   YZ=              0.0000

 Normal termination of Gaussian 09 at Thu Feb  9 15:41:46 2017.
