 Gaussian 09, Revision E.01,
 Gaussian 09:  ES64L-G09RevE.01 30-Nov-2015

 ----------------------------------------------------------------------
 #rhf/gen scf(symm,tight,novaracc,noincfock,fulldiag) stable(crhf) geom
 =nocrowd test
 ----------------------------------------------------------------------

 hf stability analysis of h10 triangular lattice, y= 0.6441026858072402
 8
 ----------------------------------------------------------------------
 Symbolic Z-matrix:
 Charge =  0 Multiplicity = 1

                         Standard orientation:
 ---------------------------------------------------------------------
 Center     Atomic      Atomic             Coordinates (Angstroms)
 Number     Number       Type             X           Y           Z
 ---------------------------------------------------------------------
      1          1           0        0.000000    0.644103    1.792727
      2          1           0        0.000000    0.000000    2.689091
      3          1           0        0.000000    0.000000    0.896364
      4          1           0       -0.000000   -0.644103    1.792727
      5          1           0       -0.000000    0.644103    0.000000
      6          1           0       -0.000000   -0.644103    0.000000
      7          1           0        0.000000    0.000000   -0.896364
      8          1           0        0.000000    0.644103   -1.792727
      9          1           0       -0.000000   -0.644103   -1.792727
     10          1           0        0.000000    0.000000   -2.689091
 ---------------------------------------------------------------------

 SCF Done:  E(RHF) =  -4.81640521613     A.U. after    9 cycles
 E2 =    -0.1224476265D+00 EUMP2 =    -0.49388528425827D+01

 The electronic state is 1-AG.
 Alpha  occ. eigenvalues --   -0.82209  -0.73217  -0.55462  -0.29561  -0.29165
 Alpha virt. eigenvalues --    0.00225   0.17559   0.20141   0.48498   0.70159

 Mulliken charges:
               1
     1  H    0.199043
     2  H   -0.176515
     3  H   -0.249888
     4  H    0.199043
     5  H    0.028318
     6  H    0.028318
     7  H   -0.249888
     8  H    0.199043
     9  H    0.199043
    10  H   -0.176515
 Sum of Mulliken charges =   0.00000

 Dipole moment (field-independent basis, Debye):
    X=             -0.0000    Y=             -0.0000    Z=              0.0000  Tot=              0.0000
 Quadrupole moment (field-independent basis, Debye-Ang):
   XX=            -13.0155   YY=            -12.7701   ZZ=            -17.3429
   XY=              0.0000   XZ=              0.0000   YZ=             -0.0000

 Normal termination of Gaussian 09 at Thu Feb  9 15:42:48 2017.
