 Gaussian 09, Revision E.01,
 Gaussian 09:  ES64L-G09RevE.01 30-Nov-2015

 ----------------------------------------------------------------------
 #rhf/gen scf(symm,tight,novaracc,noincfock,fulldiag) stable(crhf) geom
 =nocrowd test
 ----------------------------------------------------------------------

 hf stability analysis of h10 triangular lattice, y= 0.6041404653621239
 6
 ----------------------------------------------------------------------
 Symbolic Z-matrix:
 Charge =  0 Multiplicity = 1

                         Standard orientation:
 ---------------------------------------------------------------------
 Center     Atomic      Atomic             Coordinates (Angstroms)
 Number     Number       Type             X           Y           Z
 ---------------------------------------------------------------------
      1          1           0        0.000000    0.604140    1.911311
      2          1           0        0.000000    0.000000    2.866967
      3          1           0        0.000000    0.000000    0.955656
      4          1           0       -0.000000   -0.604140    1.911311
      5          1           0       -0.000000    0.604140   -0.000000
      6          1           0       -0.000000   -0.604140    0.000000
      7          1           0        0.000000   -0.000000   -0.955656
      8          1           0        0.000000    0.604140   -1.911311
      9          1           0       -0.000000   -0.604140   -1.911311
     10          1           0        0.000000   -0.000000   -2.866967
 ---------------------------------------------------------------------

 SCF Done:  E(RHF) =  -4.79195903514     A.U. after    9 cycles
 E2 =    -0.1377085089D+00 EUMP2 =    -0.49296675440215D+01

 The electronic state is 1-AG.
 Alpha  occ. eigenvalues --   -0.80318  -0.72813  -0.56489  -0.30926  -0.24261
 Alpha virt. eigenvalues --    0.02779   0.11744   0.20766   0.42149   0.68455

 Mulliken charges:
               1
     1  H    0.158413
     2  H   -0.114104
     3  H   -0.213885
     4  H    0.158413
     5  H    0.011164
     6  H    0.011164
     7  H   -0.213885
     8  H    0.158413
     9  H    0.158413
    10  H   -0.114104
 Sum of Mulliken charges =  -0.00000

 Dipole moment (field-independent basis, Debye):
    X=             -0.0000    Y=              0.0000    Z=              0.0000  Tot=              0.0000
 Quadrupole moment (field-independent basis, Debye-Ang):
   XX=            -13.1067   YY=            -13.5556   ZZ=            -14.7149
   XY=              0.0000   XZ=              0.0000   YZ=             -0.0000

 Normal termination of Gaussian 09 at Thu Feb  9 15:45:46 2017.
