 Gaussian 09, Revision E.01,
 Gaussian 09:  ES64L-G09RevE.01 30-Nov-2015

 ----------------------------------------------------------------------
 #rhf/gen scf(symm,tight,novaracc,noincfock,fulldiag) stable(crhf) geom
 =nocrowd test
 ----------------------------------------------------------------------

 hf stability analysis of h10 triangular lattice, y= 0.2893299282551661
 8
 ----------------------------------------------------------------------
 Symbolic Z-matrix:
 Charge =  0 Multiplicity = 1

                         Standard orientation:
 ---------------------------------------------------------------------
 Center     Atomic      Atomic             Coordinates (Angstroms)
 Number     Number       Type             X           Y           Z
 ---------------------------------------------------------------------
      1          1           0        0.000000    0.289330    3.990947
      2          1           0        0.000000   -0.000000    5.986421
      3          1           0        0.000000   -0.000000    1.995474
      4          1           0       -0.000000   -0.289330    3.990947
      5          1           0       -0.000000    0.289330    0.000000
      6          1           0       -0.000000   -0.289330   -0.000000
      7          1           0        0.000000    0.000000   -1.995474
      8          1           0        0.000000    0.289330   -3.990947
      9          1           0       -0.000000   -0.289330   -3.990947
     10          1           0        0.000000    0.000000   -5.986421
 ---------------------------------------------------------------------

 SCF Done:  E(RHF) =  -4.61133638123     A.U. after    9 cycles
 E2 =    -0.3715775561D+00 EUMP2 =    -0.49829139373476D+01

 The electronic state is 1-AG.
 Alpha  occ. eigenvalues --   -0.70400  -0.70131  -0.69363  -0.26736  -0.24392
 Alpha virt. eigenvalues --   -0.09951  -0.07395   0.50986   0.51330   0.52460

 Mulliken charges:
               1
     1  H    0.015379
     2  H   -0.035037
     3  H    0.001945
     4  H    0.015379
     5  H    0.002334
     6  H    0.002334
     7  H    0.001945
     8  H    0.015379
     9  H    0.015379
    10  H   -0.035037
 Sum of Mulliken charges =   0.00000

 Dipole moment (field-independent basis, Debye):
    X=             -0.0000    Y=              0.0000    Z=              0.0000  Tot=              0.0000
 Quadrupole moment (field-independent basis, Debye-Ang):
   XX=            -13.6008   YY=            -12.7064   ZZ=            -22.1357
   XY=              0.0000   XZ=              0.0000   YZ=             -0.0000

 Normal termination of Gaussian 09 at Thu Feb  9 16:05:15 2017.
