 Gaussian 09, Revision E.01,
 Gaussian 09:  ES64L-G09RevE.01 30-Nov-2015

 ----------------------------------------------------------------------
 #rhf/gen scf(symm,tight,novaracc,noincfock,fulldiag) stable(crhf) geom
 =nocrowd test
 ----------------------------------------------------------------------

 hf stability analysis of h10 triangular lattice, y= 0.6175886007716722
 1
 ----------------------------------------------------------------------
 Symbolic Z-matrix:
 Charge =  0 Multiplicity = 1

                         Standard orientation:
 ---------------------------------------------------------------------
 Center     Atomic      Atomic             Coordinates (Angstroms)
 Number     Number       Type             X           Y           Z
 ---------------------------------------------------------------------
      1          1           0       -0.000000    0.617589    1.869692
      2          1           0        0.000000    0.000000    2.804538
      3          1           0        0.000000    0.000000    0.934846
      4          1           0       -0.000000   -0.617589    1.869692
      5          1           0       -0.000000    0.617589    0.000000
      6          1           0       -0.000000   -0.617589    0.000000
      7          1           0        0.000000   -0.000000   -0.934846
      8          1           0        0.000000    0.617589   -1.869692
      9          1           0       -0.000000   -0.617589   -1.869692
     10          1           0        0.000000   -0.000000   -2.804538
 ---------------------------------------------------------------------

 SCF Done:  E(RHF) =  -4.80281364986     A.U. after    9 cycles
 E2 =    -0.1320410626D+00 EUMP2 =    -0.49348547124260D+01

 The electronic state is 1-AG.
 Alpha  occ. eigenvalues --   -0.80990  -0.72991  -0.56185  -0.30545  -0.25973
 Alpha virt. eigenvalues --    0.01864   0.13667   0.20493   0.44418   0.69487

 Mulliken charges:
               1
     1  H    0.172627
     2  H   -0.135588
     3  H   -0.227392
     4  H    0.172627
     5  H    0.017725
     6  H    0.017725
     7  H   -0.227392
     8  H    0.172627
     9  H    0.172627
    10  H   -0.135588
 Sum of Mulliken charges =  -0.00000

 Dipole moment (field-independent basis, Debye):
    X=             -0.0000    Y=              0.0000    Z=             -0.0000  Tot=              0.0000
 Quadrupole moment (field-independent basis, Debye-Ang):
   XX=            -13.0762   YY=            -13.2986   ZZ=            -15.6769
   XY=              0.0000   XZ=              0.0000   YZ=              0.0000

 Normal termination of Gaussian 09 at Thu Feb  9 15:44:45 2017.
