 Gaussian 09, Revision E.01,
 Gaussian 09:  ES64L-G09RevE.01 30-Nov-2015

 ----------------------------------------------------------------------
 #rhf/gen scf(symm,tight,novaracc,noincfock,fulldiag) stable(crhf) geom
 =nocrowd test
 ----------------------------------------------------------------------

 hf stability analysis of h10 triangular lattice, y= 0.2848531043101661
 9
 ----------------------------------------------------------------------
 Symbolic Z-matrix:
 Charge =  0 Multiplicity = 1

                         Standard orientation:
 ---------------------------------------------------------------------
 Center     Atomic      Atomic             Coordinates (Angstroms)
 Number     Number       Type             X           Y           Z
 ---------------------------------------------------------------------
      1          1           0        0.000000    0.284853    4.053670
      2          1           0        0.000000    0.000000    6.080505
      3          1           0        0.000000    0.000000    2.026835
      4          1           0       -0.000000   -0.284853    4.053670
      5          1           0        0.000000    0.284853    0.000000
      6          1           0       -0.000000   -0.284853    0.000000
      7          1           0        0.000000   -0.000000   -2.026835
      8          1           0        0.000000    0.284853   -4.053670
      9          1           0       -0.000000   -0.284853   -4.053670
     10          1           0        0.000000   -0.000000   -6.080505
 ---------------------------------------------------------------------

 SCF Done:  E(RHF) =  -4.58863782168     A.U. after   10 cycles
 E2 =    -0.3877267760D+00 EUMP2 =    -0.49763645977014D+01

 The electronic state is 1-AG.
 Alpha  occ. eigenvalues --   -0.70490  -0.70254  -0.69569  -0.26536  -0.24367
 Alpha virt. eigenvalues --   -0.10271  -0.07917   0.52017   0.52327   0.53358

 Mulliken charges:
               1
     1  H    0.012935
     2  H   -0.030860
     3  H    0.003491
     4  H    0.012935
     5  H    0.001500
     6  H    0.001500
     7  H    0.003491
     8  H    0.012935
     9  H    0.012935
    10  H   -0.030860
 Sum of Mulliken charges =   0.00000

 Dipole moment (field-independent basis, Debye):
    X=             -0.0000    Y=              0.0000    Z=              0.0000  Tot=              0.0000
 Quadrupole moment (field-independent basis, Debye-Ang):
   XX=            -13.5983   YY=            -12.7318   ZZ=            -21.5485
   XY=              0.0000   XZ=              0.0000   YZ=             -0.0000

 Normal termination of Gaussian 09 at Thu Feb  9 16:05:24 2017.
