 Gaussian 09, Revision E.01,
 Gaussian 09:  ES64L-G09RevE.01 30-Nov-2015

 ----------------------------------------------------------------------
 #rhf/gen scf(symm,tight,novaracc,noincfock,fulldiag) stable(crhf) geom
 =nocrowd test
 ----------------------------------------------------------------------

 hf stability analysis of h10 triangular lattice, y= 0.6960275979088506
 0
 ----------------------------------------------------------------------
 Symbolic Z-matrix:
 Charge =  0 Multiplicity = 1

                         Standard orientation:
 ---------------------------------------------------------------------
 Center     Atomic      Atomic             Coordinates (Angstroms)
 Number     Number       Type             X           Y           Z
 ---------------------------------------------------------------------
      1          1           0        0.000000    0.696028    1.658987
      2          1           0        0.000000    0.000000    2.488480
      3          1           0        0.000000    0.000000    0.829493
      4          1           0       -0.000000   -0.696028    1.658987
      5          1           0       -0.000000    0.696028    0.000000
      6          1           0       -0.000000   -0.696028   -0.000000
      7          1           0        0.000000   -0.000000   -0.829493
      8          1           0        0.000000    0.696028   -1.658987
      9          1           0       -0.000000   -0.696028   -1.658987
     10          1           0        0.000000   -0.000000   -2.488480
 ---------------------------------------------------------------------

 SCF Done:  E(RHF) =  -4.81586286543     A.U. after    9 cycles
 E2 =    -0.1085906627D+00 EUMP2 =    -0.49244535281006D+01

 The electronic state is 1-AG.
 Alpha  occ. eigenvalues --   -0.84180  -0.73188  -0.53606  -0.34806  -0.26781
 Alpha virt. eigenvalues --   -0.02437   0.20094   0.25408   0.54507   0.66718

 Mulliken charges:
               1
     1  H    0.243954
     2  H   -0.250262
     3  H   -0.277284
     4  H    0.243954
     5  H    0.039639
     6  H    0.039639
     7  H   -0.277284
     8  H    0.243954
     9  H    0.243954
    10  H   -0.250262
 Sum of Mulliken charges =  -0.00000

 Dipole moment (field-independent basis, Debye):
    X=             -0.0000    Y=              0.0000    Z=              0.0000  Tot=              0.0000
 Quadrupole moment (field-independent basis, Debye-Ang):
   XX=            -12.8970   YY=            -11.6757   ZZ=            -19.8675
   XY=              0.0000   XZ=              0.0000   YZ=             -0.0000

 Normal termination of Gaussian 09 at Thu Feb  9 15:39:05 2017.
