 Gaussian 09, Revision E.01,
 Gaussian 09:  ES64L-G09RevE.01 30-Nov-2015

 ----------------------------------------------------------------------
 #rhf/gen scf(symm,tight,novaracc,noincfock,fulldiag) stable(crhf) geom
 =nocrowd test
 ----------------------------------------------------------------------

 hf stability analysis of h10 triangular lattice, y= 0.6140751347763212
 5
 ----------------------------------------------------------------------
 Symbolic Z-matrix:
 Charge =  0 Multiplicity = 1

                         Standard orientation:
 ---------------------------------------------------------------------
 Center     Atomic      Atomic             Coordinates (Angstroms)
 Number     Number       Type             X           Y           Z
 ---------------------------------------------------------------------
      1          1           0       -0.000000    0.614075    1.880390
      2          1           0       -0.000000    0.000000    2.820585
      3          1           0       -0.000000    0.000000    0.940195
      4          1           0       -0.000000   -0.614075    1.880390
      5          1           0       -0.000000    0.614075   -0.000000
      6          1           0       -0.000000   -0.614075    0.000000
      7          1           0        0.000000   -0.000000   -0.940195
      8          1           0        0.000000    0.614075   -1.880390
      9          1           0       -0.000000   -0.614075   -1.880390
     10          1           0        0.000000   -0.000000   -2.820585
 ---------------------------------------------------------------------

 SCF Done:  E(RHF) =  -4.80024458197     A.U. after    9 cycles
 E2 =    -0.1334657473D+00 EUMP2 =    -0.49337103292911D+01

 The electronic state is 1-AG.
 Alpha  occ. eigenvalues --   -0.80818  -0.72949  -0.56268  -0.30653  -0.25532
 Alpha virt. eigenvalues --    0.02097   0.13161   0.20558   0.43837   0.69262

 Mulliken charges:
               1
     1  H    0.168964
     2  H   -0.130019
     3  H   -0.223996
     4  H    0.168964
     5  H    0.016086
     6  H    0.016086
     7  H   -0.223996
     8  H    0.168964
     9  H    0.168964
    10  H   -0.130019
 Sum of Mulliken charges =   0.00000

 Dipole moment (field-independent basis, Debye):
    X=             -0.0000    Y=              0.0000    Z=             -0.0000  Tot=              0.0000
 Quadrupole moment (field-independent basis, Debye-Ang):
   XX=            -13.0842   YY=            -13.3665   ZZ=            -15.4336
   XY=              0.0000   XZ=              0.0000   YZ=             -0.0000

 Normal termination of Gaussian 09 at Thu Feb  9 15:45:01 2017.
