 Gaussian 09, Revision E.01,
 Gaussian 09:  ES64L-G09RevE.01 30-Nov-2015

 ----------------------------------------------------------------------
 #rhf/gen scf(symm,tight,novaracc,noincfock,fulldiag) stable(crhf) geom
 =nocrowd test
 ----------------------------------------------------------------------

 hf stability analysis of h10 triangular lattice, y= 0.5633835345022582
 0
 ----------------------------------------------------------------------
 Symbolic Z-matrix:
 Charge =  0 Multiplicity = 1

                         Standard orientation:
 ---------------------------------------------------------------------
 Center     Atomic      Atomic             Coordinates (Angstroms)
 Number     Number       Type             X           Y           Z
 ---------------------------------------------------------------------
      1          1           0        0.000000    0.563384    2.049582
      2          1           0        0.000000   -0.000000    3.074372
      3          1           0        0.000000   -0.000000    1.024791
      4          1           0       -0.000000   -0.563384    2.049582
      5          1           0        0.000000    0.563384    0.000000
      6          1           0       -0.000000   -0.563384   -0.000000
      7          1           0        0.000000    0.000000   -1.024791
      8          1           0        0.000000    0.563384   -2.049582
      9          1           0       -0.000000   -0.563384   -2.049582
     10          1           0        0.000000    0.000000   -3.074372
 ---------------------------------------------------------------------

 SCF Done:  E(RHF) =  -4.74098125628     A.U. after    9 cycles
 E2 =    -0.1589540252D+00 EUMP2 =    -0.48999352814449D+01

 The electronic state is 1-AG.
 Alpha  occ. eigenvalues --   -0.78074  -0.72015  -0.57144  -0.31580  -0.18653
 Alpha virt. eigenvalues --    0.05935   0.06183   0.22026   0.34712   0.62665

 Mulliken charges:
               1
     1  H    0.112357
     2  H   -0.046639
     3  H   -0.164855
     4  H    0.112357
     5  H   -0.013220
     6  H   -0.013220
     7  H   -0.164855
     8  H    0.112357
     9  H    0.112357
    10  H   -0.046639
 Sum of Mulliken charges =  -0.00000

 Dipole moment (field-independent basis, Debye):
    X=             -0.0000    Y=             -0.0000    Z=              0.0000  Tot=              0.0000
 Quadrupole moment (field-independent basis, Debye-Ang):
   XX=            -13.1958   YY=            -14.2795   ZZ=            -11.2410
   XY=             -0.0000   XZ=              0.0000   YZ=              0.0000

 Normal termination of Gaussian 09 at Thu Feb  9 15:48:50 2017.
