 Gaussian 09, Revision E.01,
 Gaussian 09:  ES64L-G09RevE.01 30-Nov-2015

 ----------------------------------------------------------------------
 #rhf/gen scf(symm,tight,novaracc,noincfock,fulldiag) stable(crhf) geom
 =nocrowd test
 ----------------------------------------------------------------------

 hf stability analysis of h10 triangular lattice, y= 0.3108300229040507
 6
 ----------------------------------------------------------------------
 Symbolic Z-matrix:
 Charge =  0 Multiplicity = 1

                         Standard orientation:
 ---------------------------------------------------------------------
 Center     Atomic      Atomic             Coordinates (Angstroms)
 Number     Number       Type             X           Y           Z
 ---------------------------------------------------------------------
      1          1           0        0.000000    0.310830    3.714894
      2          1           0        0.000000   -0.000000    5.572341
      3          1           0        0.000000   -0.000000    1.857447
      4          1           0       -0.000000   -0.310830    3.714894
      5          1           0       -0.000000    0.310830    0.000000
      6          1           0       -0.000000   -0.310830   -0.000000
      7          1           0        0.000000    0.000000   -1.857447
      8          1           0        0.000000    0.310830   -3.714894
      9          1           0       -0.000000   -0.310830   -3.714894
     10          1           0        0.000000    0.000000   -5.572341
 ---------------------------------------------------------------------

 SCF Done:  E(RHF) =  -4.70515979748     A.U. after   10 cycles
 E2 =    -0.3019561060D+00 EUMP2 =    -0.50071159034787D+01

 The electronic state is 1-AG.
 Alpha  occ. eigenvalues --   -0.70211  -0.69728  -0.68486  -0.27747  -0.24451
 Alpha virt. eigenvalues --   -0.08200  -0.04535   0.46081   0.46630   0.48269

 Mulliken charges:
               1
     1  H    0.030050
     2  H   -0.059440
     3  H   -0.008710
     4  H    0.030050
     5  H    0.008050
     6  H    0.008050
     7  H   -0.008710
     8  H    0.030050
     9  H    0.030050
    10  H   -0.059440
 Sum of Mulliken charges =   0.00000

 Dipole moment (field-independent basis, Debye):
    X=             -0.0000    Y=              0.0000    Z=              0.0000  Tot=              0.0000
 Quadrupole moment (field-independent basis, Debye-Ang):
   XX=            -13.6103   YY=            -12.5709   ZZ=            -25.1363
   XY=              0.0000   XZ=              0.0000   YZ=             -0.0000

 Normal termination of Gaussian 09 at Thu Feb  9 16:04:25 2017.
