 Gaussian 09, Revision E.01,
 Gaussian 09:  ES64L-G09RevE.01 30-Nov-2015

 ----------------------------------------------------------------------
 #rhf/gen scf(symm,tight,novaracc,noincfock,fulldiag) stable(crhf) geom
 =nocrowd test
 ----------------------------------------------------------------------

 hf stability analysis of h10 triangular lattice, y= 0.5087889041436474
 1
 ----------------------------------------------------------------------
 Symbolic Z-matrix:
 Charge =  0 Multiplicity = 1

                         Standard orientation:
 ---------------------------------------------------------------------
 Center     Atomic      Atomic             Coordinates (Angstroms)
 Number     Number       Type             X           Y           Z
 ---------------------------------------------------------------------
      1          1           0        0.000000    0.508789    2.269508
      2          1           0        0.000000    0.000000    3.404262
      3          1           0        0.000000    0.000000    1.134754
      4          1           0       -0.000000   -0.508789    2.269508
      5          1           0        0.000000    0.508789    0.000000
      6          1           0       -0.000000   -0.508789    0.000000
      7          1           0        0.000000   -0.000000   -1.134754
      8          1           0        0.000000    0.508789   -2.269508
      9          1           0       -0.000000   -0.508789   -2.269508
     10          1           0        0.000000   -0.000000   -3.404262
 ---------------------------------------------------------------------

 SCF Done:  E(RHF) =  -4.80677737629     A.U. after    9 cycles
 E2 =    -0.9112148064D-01 EUMP2 =    -0.48978988569273D+01

 The electronic state is 1-AG.
 Alpha  occ. eigenvalues --   -0.78654  -0.72161  -0.62326  -0.34363  -0.17959
 Alpha virt. eigenvalues --    0.09446   0.16029   0.22200   0.22899   0.43128

 Mulliken charges:
               1
     1  H    0.241481
     2  H   -0.404007
     3  H   -0.211867
     4  H    0.241481
     5  H    0.132911
     6  H    0.132911
     7  H   -0.211867
     8  H    0.241481
     9  H    0.241481
    10  H   -0.404007
 Sum of Mulliken charges =   0.00000

 Dipole moment (field-independent basis, Debye):
    X=             -0.0000    Y=             -0.0000    Z=              0.0000  Tot=              0.0000
 Quadrupole moment (field-independent basis, Debye-Ang):
   XX=            -13.0228   YY=             -9.7171   ZZ=            -42.2591
   XY=              0.0000   XZ=              0.0000   YZ=             -0.0000

 Normal termination of Gaussian 09 at Thu Feb  9 15:52:51 2017.
