 Gaussian 09, Revision E.01,
 Gaussian 09:  ES64L-G09RevE.01 30-Nov-2015

 ----------------------------------------------------------------------
 #rhf/gen scf(symm,tight,novaracc,noincfock,fulldiag) stable(crhf) geom
 =nocrowd test
 ----------------------------------------------------------------------

 hf stability analysis of h10 triangular lattice, y= 0.6566033129082584
 6
 ----------------------------------------------------------------------
 Symbolic Z-matrix:
 Charge =  0 Multiplicity = 1

                         Standard orientation:
 ---------------------------------------------------------------------
 Center     Atomic      Atomic             Coordinates (Angstroms)
 Number     Number       Type             X           Y           Z
 ---------------------------------------------------------------------
      1          1           0        0.000000    0.656603    1.758597
      2          1           0        0.000000    0.000000    2.637895
      3          1           0        0.000000    0.000000    0.879298
      4          1           0       -0.000000   -0.656603    1.758597
      5          1           0       -0.000000    0.656603    0.000000
      6          1           0       -0.000000   -0.656603    0.000000
      7          1           0        0.000000   -0.000000   -0.879298
      8          1           0        0.000000    0.656603   -1.758597
      9          1           0       -0.000000   -0.656603   -1.758597
     10          1           0        0.000000   -0.000000   -2.637895
 ---------------------------------------------------------------------

 SCF Done:  E(RHF) =  -4.81943170189     A.U. after    9 cycles
 E2 =    -0.1185660523D+00 EUMP2 =    -0.49379977541771D+01

 The electronic state is 1-AG.
 Alpha  occ. eigenvalues --   -0.82733  -0.73266  -0.55066  -0.30593  -0.28992
 Alpha virt. eigenvalues --   -0.00478   0.19430   0.20056   0.50205   0.69865

 Mulliken charges:
               1
     1  H    0.210706
     2  H   -0.195081
     3  H   -0.258526
     4  H    0.210706
     5  H    0.032194
     6  H    0.032194
     7  H   -0.258526
     8  H    0.210706
     9  H    0.210706
    10  H   -0.195081
 Sum of Mulliken charges =   0.00000

 Dipole moment (field-independent basis, Debye):
    X=             -0.0000    Y=             -0.0000    Z=             -0.0000  Tot=              0.0000
 Quadrupole moment (field-independent basis, Debye-Ang):
   XX=            -12.9868   YY=            -12.5126   ZZ=            -18.0327
   XY=              0.0000   XZ=              0.0000   YZ=             -0.0000

 Normal termination of Gaussian 09 at Thu Feb  9 15:41:53 2017.
