 Gaussian 09, Revision E.01,
 Gaussian 09:  ES64L-G09RevE.01 30-Nov-2015

 ----------------------------------------------------------------------
 #rhf/gen scf(symm,tight,novaracc,noincfock,fulldiag) stable(crhf) geom
 =nocrowd test
 ----------------------------------------------------------------------

 hf stability analysis of h10 triangular lattice, y= 0.7229051981764163
 0
 ----------------------------------------------------------------------
 Symbolic Z-matrix:
 Charge =  0 Multiplicity = 1

                         Standard orientation:
 ---------------------------------------------------------------------
 Center     Atomic      Atomic             Coordinates (Angstroms)
 Number     Number       Type             X           Y           Z
 ---------------------------------------------------------------------
      1          1           0        0.000000    0.722905    1.597306
      2          1           0        0.000000    0.000000    2.395958
      3          1           0        0.000000    0.000000    0.798653
      4          1           0       -0.000000   -0.722905    1.597306
      5          1           0       -0.000000    0.722905    0.000000
      6          1           0       -0.000000   -0.722905    0.000000
      7          1           0        0.000000    0.000000   -0.798653
      8          1           0        0.000000    0.722905   -1.597306
      9          1           0       -0.000000   -0.722905   -1.597306
     10          1           0        0.000000    0.000000   -2.395958
 ---------------------------------------------------------------------

 SCF Done:  E(RHF) =  -4.80273857808     A.U. after    8 cycles
 E2 =    -0.1034779976D+00 EUMP2 =    -0.49062165757268D+01

 The electronic state is 1-AG.
 Alpha  occ. eigenvalues --   -0.84993  -0.72944  -0.52443  -0.37460  -0.24938
 Alpha virt. eigenvalues --   -0.03575   0.20358   0.29471   0.56410   0.63093

 Mulliken charges:
               1
     1  H    0.263467
     2  H   -0.284854
     3  H   -0.282748
     4  H    0.263467
     5  H    0.040667
     6  H    0.040667
     7  H   -0.282748
     8  H    0.263467
     9  H    0.263467
    10  H   -0.284854
 Sum of Mulliken charges =  -0.00000

 Dipole moment (field-independent basis, Debye):
    X=             -0.0000    Y=              0.0000    Z=              0.0000  Tot=              0.0000
 Quadrupole moment (field-independent basis, Debye-Ang):
   XX=            -12.8371   YY=            -11.0922   ZZ=            -20.8703
   XY=              0.0000   XZ=              0.0000   YZ=              0.0000

 Normal termination of Gaussian 09 at Thu Feb  9 15:37:15 2017.
