 Gaussian 09, Revision E.01,
 Gaussian 09:  ES64L-G09RevE.01 30-Nov-2015

 ----------------------------------------------------------------------
 #rhf/gen scf(symm,tight,novaracc,noincfock,fulldiag) stable(crhf) geom
 =nocrowd test
 ----------------------------------------------------------------------

 hf stability analysis of h10 triangular lattice, y= 0.4732223767050167
 7
 ----------------------------------------------------------------------
 Symbolic Z-matrix:
 Charge =  0 Multiplicity = 1

                         Standard orientation:
 ---------------------------------------------------------------------
 Center     Atomic      Atomic             Coordinates (Angstroms)
 Number     Number       Type             X           Y           Z
 ---------------------------------------------------------------------
      1          1           0        0.000000    0.473222    2.440080
      2          1           0       -0.000000   -0.000000    3.660120
      3          1           0       -0.000000   -0.000000    1.220040
      4          1           0       -0.000000   -0.473222    2.440080
      5          1           0        0.000000    0.473222    0.000000
      6          1           0       -0.000000   -0.473222   -0.000000
      7          1           0        0.000000    0.000000   -1.220040
      8          1           0        0.000000    0.473222   -2.440080
      9          1           0       -0.000000   -0.473222   -2.440080
     10          1           0        0.000000    0.000000   -3.660120
 ---------------------------------------------------------------------

 SCF Done:  E(RHF) =  -4.87079347279     A.U. after    9 cycles
 E2 =    -0.9953538586D-01 EUMP2 =    -0.49703288586480D+01

 The electronic state is 1-AG.
 Alpha  occ. eigenvalues --   -0.76746  -0.71550  -0.63675  -0.34176  -0.20317
 Alpha virt. eigenvalues --    0.14767   0.15330   0.19855   0.25624   0.33095

 Mulliken charges:
               1
     1  H    0.205163
     2  H   -0.345038
     3  H   -0.173123
     4  H    0.205163
     5  H    0.107836
     6  H    0.107836
     7  H   -0.173123
     8  H    0.205163
     9  H    0.205163
    10  H   -0.345038
 Sum of Mulliken charges =  -0.00000

 Dipole moment (field-independent basis, Debye):
    X=             -0.0000    Y=             -0.0000    Z=              0.0000  Tot=              0.0000
 Quadrupole moment (field-independent basis, Debye-Ang):
   XX=            -13.2037   YY=            -10.4202   ZZ=            -41.3237
   XY=              0.0000   XZ=              0.0000   YZ=              0.0000

 Normal termination of Gaussian 09 at Thu Feb  9 15:55:23 2017.
