 Gaussian 09, Revision E.01,
 Gaussian 09:  ES64L-G09RevE.01 30-Nov-2015

 ----------------------------------------------------------------------
 #rhf/gen scf(symm,tight,novaracc,noincfock,fulldiag) stable(crhf) geom
 =nocrowd test
 ----------------------------------------------------------------------

 hf stability analysis of h10 triangular lattice, y= 0.4220992838783945
 7
 ----------------------------------------------------------------------
 Symbolic Z-matrix:
 Charge =  0 Multiplicity = 1

                         Standard orientation:
 ---------------------------------------------------------------------
 Center     Atomic      Atomic             Coordinates (Angstroms)
 Number     Number       Type             X           Y           Z
 ---------------------------------------------------------------------
      1          1           0        0.000000    0.422099    2.735614
      2          1           0       -0.000000    0.000000    4.103420
      3          1           0       -0.000000    0.000000    1.367807
      4          1           0       -0.000000   -0.422099    2.735614
      5          1           0       -0.000000    0.422099    0.000000
      6          1           0       -0.000000   -0.422099    0.000000
      7          1           0        0.000000    0.000000   -1.367807
      8          1           0        0.000000    0.422099   -2.735614
      9          1           0       -0.000000   -0.422099   -2.735614
     10          1           0        0.000000    0.000000   -4.103420
 ---------------------------------------------------------------------

 SCF Done:  E(RHF) =  -4.90516379282     A.U. after    8 cycles
 E2 =    -0.1242926330D+00 EUMP2 =    -0.50294564257719D+01

 The electronic state is 1-AG.
 Alpha  occ. eigenvalues --   -0.73928  -0.70585  -0.65304  -0.32928  -0.22703
 Alpha virt. eigenvalues --    0.06255   0.18929   0.23361   0.26485   0.30851

 Mulliken charges:
               1
     1  H    0.148617
     2  H   -0.252561
     3  H   -0.116464
     4  H    0.148617
     5  H    0.071792
     6  H    0.071792
     7  H   -0.116464
     8  H    0.148617
     9  H    0.148617
    10  H   -0.252561
 Sum of Mulliken charges =  -0.00000

 Dipole moment (field-independent basis, Debye):
    X=             -0.0000    Y=              0.0000    Z=              0.0000  Tot=              0.0000
 Quadrupole moment (field-independent basis, Debye-Ang):
   XX=            -13.4250   YY=            -11.3107   ZZ=            -38.4968
   XY=              0.0000   XZ=              0.0000   YZ=             -0.0000

 Normal termination of Gaussian 09 at Thu Feb  9 15:58:50 2017.
