 Gaussian 09, Revision E.01,
 Gaussian 09:  ES64L-G09RevE.01 30-Nov-2015

 ----------------------------------------------------------------------
 #rhf/gen scf(symm,tight,novaracc,noincfock,fulldiag) stable(crhf) geom
 =nocrowd test
 ----------------------------------------------------------------------

 hf stability analysis of h10 triangular lattice, y= 0.6776762931058321
 1
 ----------------------------------------------------------------------
 Symbolic Z-matrix:
 Charge =  0 Multiplicity = 1

                         Standard orientation:
 ---------------------------------------------------------------------
 Center     Atomic      Atomic             Coordinates (Angstroms)
 Number     Number       Type             X           Y           Z
 ---------------------------------------------------------------------
      1          1           0       -0.000000    0.677676    1.703912
      2          1           0       -0.000000   -0.000000    2.555868
      3          1           0       -0.000000   -0.000000    0.851956
      4          1           0       -0.000000   -0.677676    1.703912
      5          1           0       -0.000000    0.677676    0.000000
      6          1           0       -0.000000   -0.677676   -0.000000
      7          1           0        0.000000    0.000000   -0.851956
      8          1           0        0.000000    0.677676   -1.703912
      9          1           0       -0.000000   -0.677676   -1.703912
     10          1           0        0.000000    0.000000   -2.555868
 ---------------------------------------------------------------------

 SCF Done:  E(RHF) =  -4.81992652516     A.U. after    8 cycles
 E2 =    -0.1128352883D+00 EUMP2 =    -0.49327618135078D+01

 The electronic state is 1-AG.
 Alpha  occ. eigenvalues --   -0.83545  -0.73267  -0.54325  -0.32896  -0.27886
 Alpha virt. eigenvalues --   -0.01571   0.20021   0.22618   0.52720   0.68564

 Mulliken charges:
               1
     1  H    0.229158
     2  H   -0.225229
     3  H   -0.270160
     4  H    0.229158
     5  H    0.037073
     6  H    0.037073
     7  H   -0.270160
     8  H    0.229158
     9  H    0.229158
    10  H   -0.225229
 Sum of Mulliken charges =  -0.00000

 Dipole moment (field-independent basis, Debye):
    X=             -0.0000    Y=             -0.0000    Z=              0.0000  Tot=              0.0000
 Quadrupole moment (field-independent basis, Debye-Ang):
   XX=            -12.9385   YY=            -12.0691   ZZ=            -19.0732
   XY=              0.0000   XZ=              0.0000   YZ=             -0.0000

 Normal termination of Gaussian 09 at Thu Feb  9 15:40:22 2017.
