 Gaussian 09, Revision E.01,
 Gaussian 09:  ES64L-G09RevE.01 30-Nov-2015

 ----------------------------------------------------------------------
 #rhf/gen scf(symm,tight,novaracc,noincfock,fulldiag) stable(crhf) geom
 =nocrowd test
 ----------------------------------------------------------------------

 hf stability analysis of h10 triangular lattice, y= 0.5965594378652073
 8
 ----------------------------------------------------------------------
 Symbolic Z-matrix:
 Charge =  0 Multiplicity = 1

                         Standard orientation:
 ---------------------------------------------------------------------
 Center     Atomic      Atomic             Coordinates (Angstroms)
 Number     Number       Type             X           Y           Z
 ---------------------------------------------------------------------
      1          1           0        0.000000    0.596559    1.935600
      2          1           0       -0.000000    0.000000    2.903400
      3          1           0       -0.000000    0.000000    0.967800
      4          1           0       -0.000000   -0.596559    1.935600
      5          1           0       -0.000000    0.596559    0.000000
      6          1           0       -0.000000   -0.596559   -0.000000
      7          1           0        0.000000   -0.000000   -0.967800
      8          1           0        0.000000    0.596559   -1.935600
      9          1           0       -0.000000   -0.596559   -1.935600
     10          1           0        0.000000   -0.000000   -2.903400
 ---------------------------------------------------------------------

 SCF Done:  E(RHF) =  -4.78459341252     A.U. after    9 cycles
 E2 =    -0.1411710072D+00 EUMP2 =    -0.49257644197093D+01

 The electronic state is 1-AG.
 Alpha  occ. eigenvalues --   -0.79923  -0.72694  -0.56641  -0.31104  -0.23267
 Alpha virt. eigenvalues --    0.03321   0.10678   0.20950   0.40821   0.67671

 Mulliken charges:
               1
     1  H    0.150173
     2  H   -0.101803
     3  H   -0.205672
     4  H    0.150173
     5  H    0.007128
     6  H    0.007128
     7  H   -0.205672
     8  H    0.150173
     9  H    0.150173
    10  H   -0.101803
 Sum of Mulliken charges =  -0.00000

 Dipole moment (field-independent basis, Debye):
    X=             -0.0000    Y=              0.0000    Z=              0.0000  Tot=              0.0000
 Quadrupole moment (field-independent basis, Debye-Ang):
   XX=            -13.1237   YY=            -13.6968   ZZ=            -14.1347
   XY=              0.0000   XZ=              0.0000   YZ=             -0.0000

 Normal termination of Gaussian 09 at Thu Feb  9 15:46:20 2017.
