 Gaussian 09, Revision E.01,
 Gaussian 09:  ES64L-G09RevE.01 30-Nov-2015

 ----------------------------------------------------------------------
 #rhf/gen scf(symm,tight,novaracc,noincfock,fulldiag) stable(crhf) geom
 =nocrowd test
 ----------------------------------------------------------------------

 hf stability analysis of h10 triangular lattice, y= 0.7222714320758947
 3
 ----------------------------------------------------------------------
 Symbolic Z-matrix:
 Charge =  0 Multiplicity = 1

                         Standard orientation:
 ---------------------------------------------------------------------
 Center     Atomic      Atomic             Coordinates (Angstroms)
 Number     Number       Type             X           Y           Z
 ---------------------------------------------------------------------
      1          1           0        0.000000    0.722271    1.598707
      2          1           0        0.000000    0.000000    2.398061
      3          1           0        0.000000    0.000000    0.799354
      4          1           0       -0.000000   -0.722271    1.598707
      5          1           0       -0.000000    0.722271    0.000000
      6          1           0       -0.000000   -0.722271    0.000000
      7          1           0        0.000000   -0.000000   -0.799354
      8          1           0        0.000000    0.722271   -1.598707
      9          1           0       -0.000000   -0.722271   -1.598707
     10          1           0        0.000000   -0.000000   -2.398061
 ---------------------------------------------------------------------

 SCF Done:  E(RHF) =  -4.80314324544     A.U. after    8 cycles
 E2 =    -0.1035846066D+00 EUMP2 =    -0.49067278520178D+01

 The electronic state is 1-AG.
 Alpha  occ. eigenvalues --   -0.84975  -0.72952  -0.52472  -0.37399  -0.24984
 Alpha virt. eigenvalues --   -0.03549   0.20350   0.29376   0.56375   0.63188

 Mulliken charges:
               1
     1  H    0.263036
     2  H   -0.284066
     3  H   -0.282686
     4  H    0.263036
     5  H    0.040679
     6  H    0.040679
     7  H   -0.282686
     8  H    0.263036
     9  H    0.263036
    10  H   -0.284066
 Sum of Mulliken charges =  -0.00000

 Dipole moment (field-independent basis, Debye):
    X=             -0.0000    Y=             -0.0000    Z=             -0.0000  Tot=              0.0000
 Quadrupole moment (field-independent basis, Debye-Ang):
   XX=            -12.8385   YY=            -11.1060   ZZ=            -20.8486
   XY=              0.0000   XZ=              0.0000   YZ=             -0.0000

 Normal termination of Gaussian 09 at Thu Feb  9 15:37:18 2017.
