 Gaussian 09, Revision E.01,
 Gaussian 09:  ES64L-G09RevE.01 30-Nov-2015

 ----------------------------------------------------------------------
 #rhf/gen scf(symm,tight,novaracc,noincfock,fulldiag) stable(crhf) geom
 =nocrowd test
 ----------------------------------------------------------------------

 hf stability analysis of h10 triangular lattice, y= 0.5206392975743930
 9
 ----------------------------------------------------------------------
 Symbolic Z-matrix:
 Charge =  0 Multiplicity = 1

                         Standard orientation:
 ---------------------------------------------------------------------
 Center     Atomic      Atomic             Coordinates (Angstroms)
 Number     Number       Type             X           Y           Z
 ---------------------------------------------------------------------
      1          1           0        0.000000    0.520639    2.217851
      2          1           0       -0.000000    0.000000    3.326777
      3          1           0       -0.000000    0.000000    1.108926
      4          1           0       -0.000000   -0.520639    2.217851
      5          1           0        0.000000    0.520639   -0.000000
      6          1           0       -0.000000   -0.520639    0.000000
      7          1           0        0.000000   -0.000000   -1.108926
      8          1           0        0.000000    0.520639   -2.217851
      9          1           0       -0.000000   -0.520639   -2.217851
     10          1           0        0.000000   -0.000000   -3.326777
 ---------------------------------------------------------------------

 SCF Done:  E(RHF) =  -4.77881854107     A.U. after    9 cycles
 E2 =    -0.8946344767D-01 EUMP2 =    -0.48682819887398D+01

 The electronic state is 1-AG.
 Alpha  occ. eigenvalues --   -0.79255  -0.72336  -0.61834  -0.34295  -0.17044
 Alpha virt. eigenvalues --    0.07788   0.14877   0.22138   0.24546   0.46343

 Mulliken charges:
               1
     1  H    0.252947
     2  H   -0.422522
     3  H   -0.224546
     4  H    0.252947
     5  H    0.141173
     6  H    0.141173
     7  H   -0.224546
     8  H    0.252947
     9  H    0.252947
    10  H   -0.422522
 Sum of Mulliken charges =   0.00000

 Dipole moment (field-independent basis, Debye):
    X=             -0.0000    Y=              0.0000    Z=             -0.0000  Tot=              0.0000
 Quadrupole moment (field-independent basis, Debye-Ang):
   XX=            -12.9596   YY=             -9.4706   ZZ=            -42.4278
   XY=              0.0000   XZ=              0.0000   YZ=             -0.0000

 Normal termination of Gaussian 09 at Thu Feb  9 15:51:59 2017.
