 Gaussian 09, Revision E.01,
 Gaussian 09:  ES64L-G09RevE.01 30-Nov-2015

 ----------------------------------------------------------------------
 #rhf/gen scf(symm,tight,novaracc,noincfock,fulldiag) stable(crhf) geom
 =nocrowd test
 ----------------------------------------------------------------------

 hf stability analysis of h10 triangular lattice, y= 0.6978795184155851
 5
 ----------------------------------------------------------------------
 Symbolic Z-matrix:
 Charge =  0 Multiplicity = 1

                         Standard orientation:
 ---------------------------------------------------------------------
 Center     Atomic      Atomic             Coordinates (Angstroms)
 Number     Number       Type             X           Y           Z
 ---------------------------------------------------------------------
      1          1           0        0.000000    0.697880    1.654584
      2          1           0       -0.000000    0.000000    2.481877
      3          1           0       -0.000000    0.000000    0.827292
      4          1           0       -0.000000   -0.697880    1.654584
      5          1           0       -0.000000    0.697880   -0.000000
      6          1           0       -0.000000   -0.697880    0.000000
      7          1           0        0.000000   -0.000000   -0.827292
      8          1           0        0.000000    0.697880   -1.654584
      9          1           0       -0.000000   -0.697880   -1.654584
     10          1           0        0.000000   -0.000000   -2.481877
 ---------------------------------------------------------------------

 SCF Done:  E(RHF) =  -4.81522808379     A.U. after    9 cycles
 E2 =    -0.1081978540D+00 EUMP2 =    -0.49234259378180D+01

 The electronic state is 1-AG.
 Alpha  occ. eigenvalues --   -0.84240  -0.73176  -0.53530  -0.34994  -0.26662
 Alpha virt. eigenvalues --   -0.02520   0.20106   0.25689   0.54665   0.66500

 Mulliken charges:
               1
     1  H    0.245380
     2  H   -0.252724
     3  H   -0.277849
     4  H    0.245380
     5  H    0.039812
     6  H    0.039812
     7  H   -0.277849
     8  H    0.245380
     9  H    0.245380
    10  H   -0.252724
 Sum of Mulliken charges =  -0.00000

 Dipole moment (field-independent basis, Debye):
    X=             -0.0000    Y=              0.0000    Z=             -0.0000  Tot=              0.0000
 Quadrupole moment (field-independent basis, Debye-Ang):
   XX=            -12.8928   YY=            -11.6357   ZZ=            -19.9424
   XY=              0.0000   XZ=              0.0000   YZ=             -0.0000

 Normal termination of Gaussian 09 at Thu Feb  9 15:38:59 2017.
