 Gaussian 09, Revision E.01,
 Gaussian 09:  ES64L-G09RevE.01 30-Nov-2015

 ----------------------------------------------------------------------
 #rhf/gen scf(symm,tight,novaracc,noincfock,fulldiag) stable(crhf) geom
 =nocrowd test
 ----------------------------------------------------------------------

 hf stability analysis of h10 triangular lattice, y= 0.5099777844418526
 0
 ----------------------------------------------------------------------
 Symbolic Z-matrix:
 Charge =  0 Multiplicity = 1

                         Standard orientation:
 ---------------------------------------------------------------------
 Center     Atomic      Atomic             Coordinates (Angstroms)
 Number     Number       Type             X           Y           Z
 ---------------------------------------------------------------------
      1          1           0        0.000000    0.509978    2.264217
      2          1           0        0.000000   -0.000000    3.396326
      3          1           0        0.000000   -0.000000    1.132109
      4          1           0       -0.000000   -0.509978    2.264217
      5          1           0       -0.000000    0.509978    0.000000
      6          1           0       -0.000000   -0.509978   -0.000000
      7          1           0        0.000000    0.000000   -1.132109
      8          1           0        0.000000    0.509978   -2.264217
      9          1           0       -0.000000   -0.509978   -2.264217
     10          1           0        0.000000    0.000000   -3.396326
 ---------------------------------------------------------------------

 SCF Done:  E(RHF) =  -4.80411568314     A.U. after    9 cycles
 E2 =    -0.9093168623D-01 EUMP2 =    -0.48950473693740D+01

 The electronic state is 1-AG.
 Alpha  occ. eigenvalues --   -0.78715  -0.72180  -0.62278  -0.34359  -0.17870
 Alpha virt. eigenvalues --    0.09277   0.15911   0.22434   0.22820   0.43455

 Mulliken charges:
               1
     1  H    0.242646
     2  H   -0.405890
     3  H   -0.213145
     4  H    0.242646
     5  H    0.133743
     6  H    0.133743
     7  H   -0.213145
     8  H    0.242646
     9  H    0.242646
    10  H   -0.405890
 Sum of Mulliken charges =   0.00000

 Dipole moment (field-independent basis, Debye):
    X=             -0.0000    Y=              0.0000    Z=             -0.0000  Tot=              0.0000
 Quadrupole moment (field-independent basis, Debye-Ang):
   XX=            -13.0165   YY=             -9.6926   ZZ=            -42.2789
   XY=              0.0000   XZ=              0.0000   YZ=              0.0000

 Normal termination of Gaussian 09 at Thu Feb  9 15:52:46 2017.
