 Gaussian 09, Revision E.01,
 Gaussian 09:  ES64L-G09RevE.01 30-Nov-2015

 ----------------------------------------------------------------------
 #rhf/gen scf(symm,tight,novaracc,noincfock,fulldiag) stable(crhf) geom
 =nocrowd test
 ----------------------------------------------------------------------

 hf stability analysis of h10 triangular lattice, y= 0.7046982294899564
 2
 ----------------------------------------------------------------------
 Symbolic Z-matrix:
 Charge =  0 Multiplicity = 1

                         Standard orientation:
 ---------------------------------------------------------------------
 Center     Atomic      Atomic             Coordinates (Angstroms)
 Number     Number       Type             X           Y           Z
 ---------------------------------------------------------------------
      1          1           0       -0.000000    0.704698    1.638574
      2          1           0       -0.000000    0.000000    2.457862
      3          1           0       -0.000000    0.000000    0.819287
      4          1           0       -0.000000   -0.704698    1.638574
      5          1           0       -0.000000    0.704698    0.000000
      6          1           0       -0.000000   -0.704698    0.000000
      7          1           0        0.000000    0.000000   -0.819287
      8          1           0        0.000000    0.704698   -1.638574
      9          1           0       -0.000000   -0.704698   -1.638574
     10          1           0        0.000000    0.000000   -2.457862
 ---------------------------------------------------------------------

 SCF Done:  E(RHF) =  -4.81254281311     A.U. after    9 cycles
 E2 =    -0.1068049241D+00 EUMP2 =    -0.49193477371785D+01

 The electronic state is 1-AG.
 Alpha  occ. eigenvalues --   -0.84457  -0.73126  -0.53245  -0.35680  -0.26214
 Alpha virt. eigenvalues --   -0.02820   0.20159   0.26724   0.55214   0.65653

 Mulliken charges:
               1
     1  H    0.250528
     2  H   -0.261689
     3  H   -0.279684
     4  H    0.250528
     5  H    0.040317
     6  H    0.040317
     7  H   -0.279684
     8  H    0.250528
     9  H    0.250528
    10  H   -0.261689
 Sum of Mulliken charges =   0.00000

 Dipole moment (field-independent basis, Debye):
    X=             -0.0000    Y=              0.0000    Z=              0.0000  Tot=              0.0000
 Quadrupole moment (field-independent basis, Debye-Ang):
   XX=            -12.8775   YY=            -11.4882   ZZ=            -20.2105
   XY=              0.0000   XZ=              0.0000   YZ=              0.0000

 Normal termination of Gaussian 09 at Thu Feb  9 15:38:30 2017.
