 Gaussian 09, Revision E.01,
 Gaussian 09:  ES64L-G09RevE.01 30-Nov-2015

 ----------------------------------------------------------------------
 #rhf/gen scf(symm,tight,novaracc,noincfock,fulldiag) stable(crhf) geom
 =nocrowd test
 ----------------------------------------------------------------------

 hf stability analysis of h10 triangular lattice, y= 0.2652891384158968
 0
 ----------------------------------------------------------------------
 Symbolic Z-matrix:
 Charge =  0 Multiplicity = 1

                         Standard orientation:
 ---------------------------------------------------------------------
 Center     Atomic      Atomic             Coordinates (Angstroms)
 Number     Number       Type             X           Y           Z
 ---------------------------------------------------------------------
      1          1           0       -0.000000    0.265289    4.352611
      2          1           0       -0.000000    0.000000    6.528917
      3          1           0       -0.000000    0.000000    2.176306
      4          1           0       -0.000000   -0.265289    4.352611
      5          1           0       -0.000000    0.265289    0.000000
      6          1           0       -0.000000   -0.265289    0.000000
      7          1           0        0.000000   -0.000000   -2.176306
      8          1           0        0.000000    0.265289   -4.352611
      9          1           0       -0.000000   -0.265289   -4.352611
     10          1           0        0.000000   -0.000000   -6.528917
 ---------------------------------------------------------------------

 SCF Done:  E(RHF) =  -4.47411240648     A.U. after   11 cycles
 E2 =    -0.4642469886D+00 EUMP2 =    -0.49383593950895D+01

 The electronic state is 1-AG.
 Alpha  occ. eigenvalues --   -0.71096  -0.70962  -0.70578  -0.25706  -0.24217
 Alpha virt. eigenvalues --   -0.11496  -0.09908   0.56553   0.56743   0.57384

 Mulliken charges:
               1
     1  H    0.004785
     2  H   -0.016331
     3  H    0.007634
     4  H    0.004785
     5  H   -0.000873
     6  H   -0.000873
     7  H    0.007634
     8  H    0.004785
     9  H    0.004785
    10  H   -0.016331
 Sum of Mulliken charges =  -0.00000

 Dipole moment (field-independent basis, Debye):
    X=             -0.0000    Y=              0.0000    Z=             -0.0000  Tot=              0.0000
 Quadrupole moment (field-independent basis, Debye-Ang):
   XX=            -13.5879   YY=            -12.8356   ZZ=            -19.2138
   XY=              0.0000   XZ=              0.0000   YZ=              0.0000

 Normal termination of Gaussian 09 at Thu Feb  9 16:06:06 2017.
