 Gaussian 09, Revision E.01,
 Gaussian 09:  ES64L-G09RevE.01 30-Nov-2015

 ----------------------------------------------------------------------
 #rhf/gen scf(symm,tight,novaracc,noincfock,fulldiag) stable(crhf) gues
 s=read geom=nocrowd test
 ----------------------------------------------------------------------

 hf stability analysis of h10 triangular lattice, y= 0.9802409242172439
 6
 ----------------------------------------------------------------------
 Symbolic Z-matrix:
 Charge =  0 Multiplicity = 1

                         Standard orientation:
 ---------------------------------------------------------------------
 Center     Atomic      Atomic             Coordinates (Angstroms)
 Number     Number       Type             X           Y           Z
 ---------------------------------------------------------------------
      1          1           0        2.019446    1.645549   -0.000000
      2          1           0        2.019446    0.501967   -0.000000
      3          1           0        1.009723    1.108670   -0.000000
      4          1           0        1.009723   -0.034912   -0.000000
      5          1           0       -0.000000    0.571791    0.000000
      6          1           0       -0.000000   -0.571791    0.000000
      7          1           0       -1.009723    0.034912   -0.000000
      8          1           0       -1.009723   -1.108670   -0.000000
      9          1           0       -2.019446   -0.501967   -0.000000
     10          1           0       -2.019446   -1.645549   -0.000000
 ---------------------------------------------------------------------

 SCF Done:  E(RHF) =  -4.76255692729     A.U. after   10 cycles
 E2 =    -0.1144306499D+00 EUMP2 =    -0.48769875771728D+01

 The electronic state is 1-AG.
 Alpha  occ. eigenvalues --   -0.85204  -0.72980  -0.53565  -0.40473  -0.25179
 Alpha virt. eigenvalues --   -0.06269   0.21663   0.24699   0.55737   0.60480

 Mulliken charges:
               1
     1  H    0.147008
     2  H   -0.097681
     3  H    0.003241
     4  H   -0.078166
     5  H    0.025598
     6  H    0.025598
     7  H   -0.078166
     8  H    0.003241
     9  H   -0.097681
    10  H    0.147008
 Sum of Mulliken charges =  -0.00000

 Dipole moment (field-independent basis, Debye):
    X=              0.0000    Y=             -0.0000    Z=             -0.0000  Tot=              0.0000
 Quadrupole moment (field-independent basis, Debye-Ang):
   XX=            -12.4432   YY=            -12.7015   ZZ=            -12.9820
   XY=              5.8766   XZ=             -0.0000   YZ=             -0.0000

 Normal termination of Gaussian 09 at Mon Feb 13 14:19:44 2017.
