 Gaussian 09, Revision E.01,
 Gaussian 09:  ES64L-G09RevE.01 30-Nov-2015

 ----------------------------------------------------------------------
 #rhf/gen scf(symm,tight,novaracc,noincfock,fulldiag) stable(crhf) gues
 s=read geom=nocrowd test
 ----------------------------------------------------------------------

 hf stability analysis of h10 triangular lattice, y= 0.7084369783301545
 1
 ----------------------------------------------------------------------
 Symbolic Z-matrix:
 Charge =  0 Multiplicity = 1

                         Standard orientation:
 ---------------------------------------------------------------------
 Center     Atomic      Atomic             Coordinates (Angstroms)
 Number     Number       Type             X           Y           Z
 ---------------------------------------------------------------------
      1          1           0        2.138657    0.239350    0.000000
      2          1           0        2.138657   -0.840487    0.000000
      3          1           0        1.069328    0.389634    0.000000
      4          1           0        1.069328   -0.690203    0.000000
      5          1           0       -0.000000    0.539919    0.000000
      6          1           0       -0.000000   -0.539919   -0.000000
      7          1           0       -1.069328    0.690203    0.000000
      8          1           0       -1.069328   -0.389634   -0.000000
      9          1           0       -2.138657    0.840487    0.000000
     10          1           0       -2.138657   -0.239350   -0.000000
 ---------------------------------------------------------------------

 SCF Done:  E(RHF) =  -4.87770553725     A.U. after    9 cycles
 E2 =    -0.1055433107D+00 EUMP2 =    -0.49832488479825D+01

 The electronic state is 1-AG.
 Alpha  occ. eigenvalues --   -0.87540  -0.74395  -0.52729  -0.46353  -0.30702
 Alpha virt. eigenvalues --   -0.01871   0.16013   0.35502   0.51925   0.87316

 Mulliken charges:
               1
     1  H   -0.003567
     2  H    0.082969
     3  H   -0.035124
     4  H   -0.031590
     5  H   -0.012688
     6  H   -0.012688
     7  H   -0.031590
     8  H   -0.035124
     9  H    0.082969
    10  H   -0.003567
 Sum of Mulliken charges =  -0.00000

 Dipole moment (field-independent basis, Debye):
    X=             -0.0000    Y=             -0.0000    Z=              0.0000  Tot=              0.0000
 Quadrupole moment (field-independent basis, Debye-Ang):
   XX=            -10.2153   YY=            -16.9993   ZZ=            -12.9575
   XY=             -2.0458   XZ=             -0.0000   YZ=             -0.0000

 Normal termination of Gaussian 09 at Mon Feb 13 14:19:19 2017.
