 Gaussian 09, Revision E.01,
 Gaussian 09:  ES64L-G09RevE.01 30-Nov-2015

 ----------------------------------------------------------------------
 #rhf/gen scf(symm,tight,novaracc,noincfock,fulldiag) stable(crhf) gues
 s=read geom=nocrowd test
 ----------------------------------------------------------------------

 hf stability analysis of h10 triangular lattice, y= 0.7868496627299574
 9
 ----------------------------------------------------------------------
 Symbolic Z-matrix:
 Charge =  0 Multiplicity = 1

                         Standard orientation:
 ---------------------------------------------------------------------
 Center     Atomic      Atomic             Coordinates (Angstroms)
 Number     Number       Type             X           Y           Z
 ---------------------------------------------------------------------
      1          1           0        2.146521    0.688040    0.000000
      2          1           0        2.146521   -0.387841    0.000000
      3          1           0        1.073260    0.612990    0.000000
      4          1           0        1.073260   -0.462891    0.000000
      5          1           0        0.000000    0.537941    0.000000
      6          1           0       -0.000000   -0.537941    0.000000
      7          1           0       -1.073260    0.462891    0.000000
      8          1           0       -1.073260   -0.612990    0.000000
      9          1           0       -2.146521    0.387841    0.000000
     10          1           0       -2.146521   -0.688040    0.000000
 ---------------------------------------------------------------------

 SCF Done:  E(RHF) =  -4.88444715294     A.U. after    9 cycles
 E2 =    -0.1051103594D+00 EUMP2 =    -0.49895575122975D+01

 The electronic state is 1-AG.
 Alpha  occ. eigenvalues --   -0.87713  -0.74497  -0.52662  -0.46746  -0.31093
 Alpha virt. eigenvalues --   -0.01442   0.15500   0.36489   0.51452   0.89595

 Mulliken charges:
               1
     1  H    0.062077
     2  H    0.018509
     3  H   -0.032726
     4  H   -0.034034
     5  H   -0.013826
     6  H   -0.013826
     7  H   -0.034034
     8  H   -0.032726
     9  H    0.018509
    10  H    0.062077
 Sum of Mulliken charges =  -0.00000

 Dipole moment (field-independent basis, Debye):
    X=              0.0000    Y=             -0.0000    Z=              0.0000  Tot=              0.0000
 Quadrupole moment (field-independent basis, Debye-Ang):
   XX=            -10.1015   YY=            -17.3065   ZZ=            -12.9551
   XY=              1.0289   XZ=             -0.0000   YZ=             -0.0000

 Normal termination of Gaussian 09 at Mon Feb 13 14:19:27 2017.
