 Gaussian 09, Revision E.01,
 Gaussian 09:  ES64L-G09RevE.01 30-Nov-2015

 ----------------------------------------------------------------------
 #rhf/gen scf(symm,tight,novaracc,noincfock,fulldiag) stable(crhf) gues
 s=read geom=nocrowd test
 ----------------------------------------------------------------------

 hf stability analysis of h10 triangular lattice, y= 0.4707695940863088
 6
 ----------------------------------------------------------------------
 Symbolic Z-matrix:
 Charge =  0 Multiplicity = 1

                         Standard orientation:
 ---------------------------------------------------------------------
 Center     Atomic      Atomic             Coordinates (Angstroms)
 Number     Number       Type             X           Y           Z
 ---------------------------------------------------------------------
      1          1           0        1.758005   -1.295638    0.000000
      2          1           0        1.758005   -2.609287    0.000000
      3          1           0        0.879003   -0.319407    0.000000
      4          1           0        0.879003   -1.633056    0.000000
      5          1           0        0.000000    0.656824    0.000000
      6          1           0       -0.000000   -0.656824    0.000000
      7          1           0       -0.879003    1.633056   -0.000000
      8          1           0       -0.879003    0.319407   -0.000000
      9          1           0       -1.758005    2.609287   -0.000000
     10          1           0       -1.758005    1.295638   -0.000000
 ---------------------------------------------------------------------

 SCF Done:  E(RHF) =  -4.67297508018     A.U. after   11 cycles
 E2 =    -0.1499546124D+00 EUMP2 =    -0.48229296925468D+01

 The electronic state is 1-AG.
 Alpha  occ. eigenvalues --   -0.84573  -0.74423  -0.58343  -0.37994  -0.12155
 Alpha virt. eigenvalues --   -0.01191   0.13687   0.17308   0.36658   0.53531

 Mulliken charges:
               1
     1  H    0.033574
     2  H   -0.247339
     3  H   -0.001058
     4  H    0.162020
     5  H    0.052803
     6  H    0.052803
     7  H    0.162020
     8  H   -0.001058
     9  H   -0.247339
    10  H    0.033574
 Sum of Mulliken charges =   0.00000

 Dipole moment (field-independent basis, Debye):
    X=             -0.0000    Y=             -0.0000    Z=              0.0000  Tot=              0.0000
 Quadrupole moment (field-independent basis, Debye-Ang):
   XX=            -18.9582   YY=            -27.7159   ZZ=            -12.7953
   XY=             10.7196   XZ=             -0.0000   YZ=              0.0000

 Normal termination of Gaussian 09 at Mon Feb 13 14:18:51 2017.
