 Gaussian 09, Revision E.01,
 Gaussian 09:  ES64L-G09RevE.01 30-Nov-2015

 ----------------------------------------------------------------------
 #rhf/gen scf(symm,tight,novaracc,noincfock,fulldiag) stable(crhf) gues
 s=read geom=nocrowd test
 ----------------------------------------------------------------------

 hf stability analysis of h10 triangular lattice, y= 0.4829747999860826
 7
 ----------------------------------------------------------------------
 Symbolic Z-matrix:
 Charge =  0 Multiplicity = 1

                         Standard orientation:
 ---------------------------------------------------------------------
 Center     Atomic      Atomic             Coordinates (Angstroms)
 Number     Number       Type             X           Y           Z
 ---------------------------------------------------------------------
      1          1           0        1.791226   -1.210226   -0.000000
      2          1           0        1.791226   -2.499511   -0.000000
      3          1           0        0.895613   -0.282792   -0.000000
      4          1           0        0.895613   -1.572077   -0.000000
      5          1           0        0.000000    0.644643    0.000000
      6          1           0       -0.000000   -0.644643    0.000000
      7          1           0       -0.895613    1.572077   -0.000000
      8          1           0       -0.895613    0.282792   -0.000000
      9          1           0       -1.791226    2.499511   -0.000000
     10          1           0       -1.791226    1.210226   -0.000000
 ---------------------------------------------------------------------

 SCF Done:  E(RHF) =  -4.65585223358     A.U. after   11 cycles
 E2 =    -0.1435185366D+00 EUMP2 =    -0.47993707701988D+01

 The electronic state is 1-AG.
 Alpha  occ. eigenvalues --   -0.84773  -0.74388  -0.57728  -0.36733  -0.13370
 Alpha virt. eigenvalues --   -0.02868   0.16803   0.16875   0.36324   0.53220

 Mulliken charges:
               1
     1  H    0.028719
     2  H   -0.225741
     3  H   -0.037905
     4  H    0.163580
     5  H    0.071347
     6  H    0.071347
     7  H    0.163580
     8  H   -0.037905
     9  H   -0.225741
    10  H    0.028719
 Sum of Mulliken charges =   0.00000

 Dipole moment (field-independent basis, Debye):
    X=             -0.0000    Y=             -0.0000    Z=              0.0000  Tot=              0.0000
 Quadrupole moment (field-independent basis, Debye-Ang):
   XX=            -19.1964   YY=            -25.2032   ZZ=            -12.8042
   XY=              9.3741   XZ=             -0.0000   YZ=              0.0000

 Normal termination of Gaussian 09 at Mon Feb 13 14:18:53 2017.
