 Gaussian 09, Revision E.01,
 Gaussian 09:  ES64L-G09RevE.01 30-Nov-2015

 ----------------------------------------------------------------------
 #rhf/gen scf(symm,tight,novaracc,noincfock,fulldiag) stable(crhf) gues
 s=read geom=nocrowd test
 ----------------------------------------------------------------------

 ----------------------------------------------------------------------
 hf stability analysis of h10 triangular lattice, y= 1.4189643903365978
 ----------------------------------------------------------------------
 Symbolic Z-matrix:
 Charge =  0 Multiplicity = 1

                         Standard orientation:
 ---------------------------------------------------------------------
 Center     Atomic      Atomic             Coordinates (Angstroms)
 Number     Number       Type             X           Y           Z
 ---------------------------------------------------------------------
      1          1           0        1.564478    3.241763    0.000000
      2          1           0        1.564478    1.765615    0.000000
      3          1           0        0.782239    1.989918    0.000000
      4          1           0        0.782239    0.513770    0.000000
      5          1           0        0.000000    0.738074    0.000000
      6          1           0       -0.000000   -0.738074    0.000000
      7          1           0       -0.782239   -0.513770    0.000000
      8          1           0       -0.782239   -1.989918    0.000000
      9          1           0       -1.564478   -1.765615    0.000000
     10          1           0       -1.564478   -3.241763    0.000000
 ---------------------------------------------------------------------

 SCF Done:  E(RHF) =  -4.83449472492     A.U. after    9 cycles
 E2 =    -0.3247636192D+00 EUMP2 =    -0.51592583441643D+01

 The electronic state is 1-AG.
 Alpha  occ. eigenvalues --   -0.80062  -0.72333  -0.60476  -0.45544  -0.13050
 Alpha virt. eigenvalues --   -0.02517   0.13903   0.25878   0.43073   0.59257

 Mulliken charges:
               1
     1  H   -0.170995
     2  H    0.041650
     3  H    0.073305
     4  H    0.024193
     5  H    0.031846
     6  H    0.031846
     7  H    0.024193
     8  H    0.073305
     9  H    0.041650
    10  H   -0.170995
 Sum of Mulliken charges =  -0.00000

 Dipole moment (field-independent basis, Debye):
    X=             -0.0000    Y=             -0.0000    Z=             -0.0000  Tot=              0.0000
 Quadrupole moment (field-independent basis, Debye-Ang):
   XX=            -15.0239   YY=            -30.3966   ZZ=            -12.8492
   XY=             -9.0719   XZ=              0.0000   YZ=              0.0000

 Normal termination of Gaussian 09 at Mon Feb 13 14:20:04 2017.
