 Gaussian 09, Revision E.01,
 Gaussian 09:  ES64L-G09RevE.01 30-Nov-2015

 ----------------------------------------------------------------------
 #rhf/gen scf(symm,tight,novaracc,noincfock,fulldiag) stable(crhf) gues
 s=read geom=nocrowd test
 ----------------------------------------------------------------------

 hf stability analysis of h10 triangular lattice, y= 0.8294933944434413
 9
 ----------------------------------------------------------------------
 Symbolic Z-matrix:
 Charge =  0 Multiplicity = 1

                         Standard orientation:
 ---------------------------------------------------------------------
 Center     Atomic      Atomic             Coordinates (Angstroms)
 Number     Number       Type             X           Y           Z
 ---------------------------------------------------------------------
      1          1           0        2.132752    0.917475    0.000000
      2          1           0        2.132752   -0.165352   -0.000000
      3          1           0        1.066376    0.729444    0.000000
      4          1           0        1.066376   -0.353382   -0.000000
      5          1           0        0.000000    0.541413    0.000000
      6          1           0       -0.000000   -0.541413    0.000000
      7          1           0       -1.066376    0.353382    0.000000
      8          1           0       -1.066376   -0.729444    0.000000
      9          1           0       -2.132752    0.165352    0.000000
     10          1           0       -2.132752   -0.917475    0.000000
 ---------------------------------------------------------------------

 SCF Done:  E(RHF) =  -4.87256330142     A.U. after    9 cycles
 E2 =    -0.1058782934D+00 EUMP2 =    -0.49784415948374D+01

 The electronic state is 1-AG.
 Alpha  occ. eigenvalues --   -0.87411  -0.74319  -0.52778  -0.46059  -0.30412
 Alpha virt. eigenvalues --   -0.02177   0.16381   0.34802   0.52245   0.85660

 Mulliken charges:
               1
     1  H    0.093028
     2  H   -0.014556
     3  H   -0.030698
     4  H   -0.036003
     5  H   -0.011770
     6  H   -0.011770
     7  H   -0.036003
     8  H   -0.030698
     9  H   -0.014556
    10  H    0.093028
 Sum of Mulliken charges =  -0.00000

 Dipole moment (field-independent basis, Debye):
    X=             -0.0000    Y=             -0.0000    Z=              0.0000  Tot=              0.0000
 Quadrupole moment (field-independent basis, Debye-Ang):
   XX=            -10.3026   YY=            -16.7686   ZZ=            -12.9593
   XY=              2.5454   XZ=              0.0000   YZ=             -0.0000

 Normal termination of Gaussian 09 at Mon Feb 13 14:19:31 2017.
