 Gaussian 09, Revision E.01,
 Gaussian 09:  ES64L-G09RevE.01 30-Nov-2015

 ----------------------------------------------------------------------
 #rhf/gen scf(symm,tight,novaracc,noincfock,fulldiag) stable(crhf) gues
 s=read geom=nocrowd test
 ----------------------------------------------------------------------

 hf stability analysis of h10 triangular lattice, y= 0.5657123745340343
 3
 ----------------------------------------------------------------------
 Symbolic Z-matrix:
 Charge =  0 Multiplicity = 1

                         Standard orientation:
 ---------------------------------------------------------------------
 Center     Atomic      Atomic             Coordinates (Angstroms)
 Number     Number       Type             X           Y           Z
 ---------------------------------------------------------------------
      1          1           0        1.979133   -0.653262    0.000000
      2          1           0        1.979133   -1.820137    0.000000
      3          1           0        0.989566   -0.034912    0.000000
      4          1           0        0.989566   -1.201787    0.000000
      5          1           0       -0.000000    0.583438    0.000000
      6          1           0       -0.000000   -0.583438   -0.000000
      7          1           0       -0.989566    1.201787    0.000000
      8          1           0       -0.989566    0.034912    0.000000
      9          1           0       -1.979133    1.820137    0.000000
     10          1           0       -1.979133    0.653262    0.000000
 ---------------------------------------------------------------------

 SCF Done:  E(RHF) =  -4.72093145737     A.U. after   10 cycles
 E2 =    -0.1187188389D+00 EUMP2 =    -0.48396502962696D+01

 The electronic state is 1-AG.
 Alpha  occ. eigenvalues --   -0.84724  -0.72678  -0.53913  -0.38568  -0.23486
 Alpha virt. eigenvalues --   -0.07103   0.22039   0.22900   0.53460   0.56154

 Mulliken charges:
               1
     1  H   -0.097093
     2  H    0.126263
     3  H   -0.110834
     4  H    0.023974
     5  H    0.057690
     6  H    0.057690
     7  H    0.023974
     8  H   -0.110834
     9  H    0.126263
    10  H   -0.097093
 Sum of Mulliken charges =  -0.00000

 Dipole moment (field-independent basis, Debye):
    X=             -0.0000    Y=             -0.0000    Z=             -0.0000  Tot=              0.0000
 Quadrupole moment (field-independent basis, Debye-Ang):
   XX=            -13.5902   YY=            -11.9937   ZZ=            -12.9778
   XY=             -5.4503   XZ=              0.0000   YZ=              0.0000

 Normal termination of Gaussian 09 at Mon Feb 13 14:19:02 2017.
