 Gaussian 09, Revision E.01,
 Gaussian 09:  ES64L-G09RevE.01 30-Nov-2015

 -------------------
 #T RHF/6-31(d) Test
 -------------------
 ------------------------------------------------
 My first Gaussian job: water single point energy
 ------------------------------------------------
 Symbolic Z-matrix:
 Charge =  0 Multiplicity = 1

                         Standard orientation:
 ---------------------------------------------------------------------
 Center     Atomic      Atomic             Coordinates (Angstroms)
 Number     Number       Type             X           Y           Z
 ---------------------------------------------------------------------
      1          8           0        0.000000    0.110843    0.000000
      2          1           0        0.783809   -0.443452    0.000000
      3          1           0       -0.783809   -0.443294    0.000000
 ---------------------------------------------------------------------

 SCF Done:  E(RHF) =  -76.0098709451     A.U. after   10 cycles

 The electronic state is 1-A'.
 Alpha  occ. eigenvalues --  -20.55794  -1.33616  -0.71421  -0.56030  -0.49560
 Alpha virt. eigenvalues --    0.21061   0.30391   1.04585   1.11668   1.15959
 Alpha virt. eigenvalues --    1.16928   1.38463   1.41676   2.03064   2.03552
 Alpha virt. eigenvalues --    2.07410   2.62759   2.94215   3.97815

 Mulliken charges:
               1
     1  O   -0.876158
     2  H    0.438076
     3  H    0.438082
 Sum of Mulliken charges =   0.00000

 Dipole moment (field-independent basis, Debye):
    X=             -0.0001    Y=             -2.1385    Z=              0.0000  Tot=              2.1385

 Test job not archived.
 1\1\GINC-SULU\SP\RHF\6-31G(d)\H2O1\LCJ1\21-Nov-2016\0\\#T RHF/6-31(d)
 Test\\My first Gaussian job: water single point energy\\0,1\O,0,-0.464
 ,0.177,0.\H,0,-0.464,1.137,0.\H,0,0.441,-0.143,0.\\Version=ES64L-G09Re
 vE.01\State=1-A'\HF=-76.0098709\RMSD=4.097e-09\Dipole=0.6869663,0.4857
 774,0.\Quadrupole=0.2773187,0.8269676,-1.1042863,-0.7769627,0.,0.\PG=C
 S [SG(H2O1)]\\@

 Normal termination of Gaussian 09 at Mon Nov 21 13:43:46 2016.
