 Gaussian 09, Revision E.01,
 Gaussian 09:  ES64L-G09RevE.01 30-Nov-2015

 ----------------------------------------------------------------------
 #rhf/gen scf(tight,novaracc,noincfock,fulldiag) stable(crhf) guess=mix
  geom=nocrowd test
 ----------------------------------------------------------------------

 hf stability analysis of h6 triangular lattice, y= 1.5813852119866876
 alpha= 77.000000000000000
 ----------------------------------------------------------------------
 Symbolic Z-matrix:
 Charge =  0 Multiplicity = 1

                         Standard orientation:
 ---------------------------------------------------------------------
 Center     Atomic      Atomic             Coordinates (Angstroms)
 Number     Number       Type             X           Y           Z
 ---------------------------------------------------------------------
      1          1           0        0.711469    2.270218    0.000000
      2          1           0        0.711469    0.647236    0.000000
      3          1           0        0.000000    0.811491    0.000000
      4          1           0       -0.000000   -0.811491    0.000000
      5          1           0       -0.711469   -0.647236    0.000000
      6          1           0       -0.711469   -2.270218    0.000000
 ---------------------------------------------------------------------

 SCF Done:  E(RHF) =  -2.87417925053     A.U. after   15 cycles
 E2 =    -0.1986273178D+00 EUMP2 =    -0.30728065683423D+01

 The electronic state is 1-AG.
 Alpha  occ. eigenvalues --   -0.75744  -0.60657  -0.21360
 Alpha virt. eigenvalues --   -0.05131   0.26525   0.50290

 Mulliken charges:
               1
     1  H   -0.097354
     2  H    0.057127
     3  H    0.040227
     4  H    0.040227
     5  H    0.057127
     6  H   -0.097354
 Sum of Mulliken charges =  -0.00000

 Dipole moment (field-independent basis, Debye):
    X=              0.0000    Y=              0.0000    Z=             -0.0000  Tot=              0.0000
 Quadrupole moment (field-independent basis, Debye-Ang):
   XX=             -7.7038   YY=            -14.1021   ZZ=             -7.9841
   XY=             -2.1908   XZ=             -0.0000   YZ=             -0.0000

 Normal termination of Gaussian 09 at Wed Feb 22 14:05:24 2017.
