 Gaussian 09, Revision E.01,
 Gaussian 09:  ES64L-G09RevE.01 30-Nov-2015

 ----------------------------------------------------------------------
 #rhf/gen scf(tight,novaracc,noincfock,fulldiag) stable(crhf) guess=mix
  geom=nocrowd test
 ----------------------------------------------------------------------

 hf stability analysis of h6 triangular lattice, y= 1.2263967642726714
 alpha= 69.000000000000000
 ----------------------------------------------------------------------
 Symbolic Z-matrix:
 Charge =  0 Multiplicity = 1

                         Standard orientation:
 ---------------------------------------------------------------------
 Center     Atomic      Atomic             Coordinates (Angstroms)
 Number     Number       Type             X           Y           Z
 ---------------------------------------------------------------------
      1          1           0        0.879003    1.633056   -0.000000
      2          1           0        0.879003    0.319407   -0.000000
      3          1           0        0.000000    0.656824   -0.000000
      4          1           0       -0.000000   -0.656824   -0.000000
      5          1           0       -0.879003   -0.319407   -0.000000
      6          1           0       -0.879003   -1.633056   -0.000000
 ---------------------------------------------------------------------

 SCF Done:  E(RHF) =  -2.83585523973     A.U. after   21 cycles
 E2 =    -0.8021744691D-01 EUMP2 =    -0.29160726866405D+01

 The electronic state is 1-AG.
 Alpha  occ. eigenvalues --   -0.81907  -0.57429  -0.20367
 Alpha virt. eigenvalues --    0.03354   0.16935   0.36024

 Mulliken charges:
               1
     1  H   -0.289872
     2  H    0.173691
     3  H    0.116181
     4  H    0.116181
     5  H    0.173691
     6  H   -0.289872
 Sum of Mulliken charges =  -0.00000

 Dipole moment (field-independent basis, Debye):
    X=              0.0000    Y=              0.0000    Z=              0.0000  Tot=              0.0000
 Quadrupole moment (field-independent basis, Debye-Ang):
   XX=             -9.0923   YY=            -16.1624   ZZ=             -7.8891
   XY=             -5.4711   XZ=             -0.0000   YZ=             -0.0000

 Normal termination of Gaussian 09 at Wed Feb 22 14:04:23 2017.
