 Gaussian 09, Revision E.01,
 Gaussian 09:  ES64L-G09RevE.01 30-Nov-2015

 ----------------------------------------------------------------------
 #rhf/gen scf(tight,novaracc,noincfock,fulldiag) stable(crhf) guess=mix
  geom=nocrowd test
 ----------------------------------------------------------------------

 hf stability analysis of h6 triangular lattice, y= 0.62404141500474464
  alpha= 34.000000000000000
 ----------------------------------------------------------------------
 Symbolic Z-matrix:
 Charge =  0 Multiplicity = 1

                         Standard orientation:
 ---------------------------------------------------------------------
 Center     Atomic      Atomic             Coordinates (Angstroms)
 Number     Number       Type             X           Y           Z
 ---------------------------------------------------------------------
      1          1           0        1.034708    0.139935    0.000000
      2          1           0        1.034708   -0.976033    0.000000
      3          1           0       -0.000000    0.557984    0.000000
      4          1           0       -0.000000   -0.557984    0.000000
      5          1           0       -1.034708    0.976033   -0.000000
      6          1           0       -1.034708   -0.139935   -0.000000
 ---------------------------------------------------------------------

 SCF Done:  E(RHF) =  -2.97059501381     A.U. after   13 cycles
 E2 =    -0.5687298160D-01 EUMP2 =    -0.30274679954114D+01

 The electronic state is 1-AG.
 Alpha  occ. eigenvalues --   -0.79471  -0.53105  -0.34509
 Alpha virt. eigenvalues --    0.06929   0.28102   0.57169

 Mulliken charges:
               1
     1  H   -0.092867
     2  H    0.148009
     3  H   -0.055142
     4  H   -0.055142
     5  H    0.148009
     6  H   -0.092867
 Sum of Mulliken charges =  -0.00000

 Dipole moment (field-independent basis, Debye):
    X=             -0.0000    Y=              0.0000    Z=             -0.0000  Tot=              0.0000
 Quadrupole moment (field-independent basis, Debye-Ang):
   XX=             -7.4801   YY=             -8.2837   ZZ=             -7.9625
   XY=             -2.6317   XZ=              0.0000   YZ=             -0.0000

 Normal termination of Gaussian 09 at Wed Feb 22 13:59:57 2017.
