 Gaussian 09, Revision E.01,
 Gaussian 09:  ES64L-G09RevE.01 30-Nov-2015

 ----------------------------------------------------------------------
 #rhf/gen scf(tight,novaracc,noincfock,fulldiag) stable(crhf) guess=mix
  geom=nocrowd test
 ----------------------------------------------------------------------

 hf stability analysis of h6 triangular lattice, y= 0.60064007609376124
  alpha= 32.000000000000000
 ----------------------------------------------------------------------
 Symbolic Z-matrix:
 Charge =  0 Multiplicity = 1

                         Standard orientation:
 ---------------------------------------------------------------------
 Center     Atomic      Atomic             Coordinates (Angstroms)
 Number     Number       Type             X           Y           Z
 ---------------------------------------------------------------------
      1          1           0        1.018743    0.069854   -0.000000
      2          1           0        1.018743   -1.063602   -0.000000
      3          1           0       -0.000000    0.566728    0.000000
      4          1           0       -0.000000   -0.566728    0.000000
      5          1           0       -1.018743    1.063602   -0.000000
      6          1           0       -1.018743   -0.069854   -0.000000
 ---------------------------------------------------------------------

 SCF Done:  E(RHF) =  -2.95080541925     A.U. after   14 cycles
 E2 =    -0.5766870023D-01 EUMP2 =    -0.30084741194783D+01

 The electronic state is 1-AG.
 Alpha  occ. eigenvalues --   -0.78693  -0.53084  -0.32678
 Alpha virt. eigenvalues --    0.05304   0.30365   0.52578

 Mulliken charges:
               1
     1  H   -0.117043
     2  H    0.168325
     3  H   -0.051282
     4  H   -0.051282
     5  H    0.168325
     6  H   -0.117043
 Sum of Mulliken charges =   0.00000

 Dipole moment (field-independent basis, Debye):
    X=             -0.0000    Y=              0.0000    Z=             -0.0000  Tot=              0.0000
 Quadrupole moment (field-independent basis, Debye-Ang):
   XX=             -7.6592   YY=             -7.6254   ZZ=             -7.9651
   XY=             -3.0675   XZ=             -0.0000   YZ=              0.0000

 Normal termination of Gaussian 09 at Wed Feb 22 13:59:42 2017.
