 Gaussian 09, Revision E.01,
 Gaussian 09:  ES64L-G09RevE.01 30-Nov-2015

 ----------------------------------------------------------------------
 #rhf/gen scf(tight,novaracc,noincfock,fulldiag) stable(crhf) guess=mix
  geom=nocrowd test
 ----------------------------------------------------------------------

 hf stability analysis of h6 triangular lattice, y= 0.40688146985598445
  alpha= 16.000000000000000
 ----------------------------------------------------------------------
 Symbolic Z-matrix:
 Charge =  0 Multiplicity = 1

                         Standard orientation:
 ---------------------------------------------------------------------
 Center     Atomic      Atomic             Coordinates (Angstroms)
 Number     Number       Type             X           Y           Z
 ---------------------------------------------------------------------
      1          1           0        0.782239   -0.513770    0.000000
      2          1           0        0.782239   -1.989918    0.000000
      3          1           0        0.000000    0.738074   -0.000000
      4          1           0       -0.000000   -0.738074   -0.000000
      5          1           0       -0.782239    1.989918    0.000000
      6          1           0       -0.782239    0.513770    0.000000
 ---------------------------------------------------------------------

 SCF Done:  E(RHF) =  -2.87447748671     A.U. after   15 cycles
 E2 =    -0.1323566307D+00 EUMP2 =    -0.30068341174531D+01

 The electronic state is 1-AG.
 Alpha  occ. eigenvalues --   -0.78548  -0.59104  -0.20914
 Alpha virt. eigenvalues --    0.00809   0.17878   0.44081

 Mulliken charges:
               1
     1  H    0.103766
     2  H   -0.175758
     3  H    0.071991
     4  H    0.071991
     5  H   -0.175758
     6  H    0.103766
 Sum of Mulliken charges =  -0.00000

 Dipole moment (field-independent basis, Debye):
    X=             -0.0000    Y=             -0.0000    Z=             -0.0000  Tot=              0.0000
 Quadrupole moment (field-independent basis, Debye-Ang):
   XX=             -8.0859   YY=            -15.8011   ZZ=             -7.9597
   XY=              3.5384   XZ=             -0.0000   YZ=              0.0000

 Normal termination of Gaussian 09 at Wed Feb 22 13:54:13 2017.
