 Gaussian 09, Revision E.01,
 Gaussian 09:  ES64L-G09RevE.01 30-Nov-2015

 ----------------------------------------------------------------------
 #rhf/gen scf(tight,novaracc,noincfock,fulldiag) stable(crhf) guess=mix
  geom=nocrowd test
 ----------------------------------------------------------------------

 hf stability analysis of h6 triangular lattice, y= 0.24633708657984518
  alpha= 6.0000000000000000
 ----------------------------------------------------------------------
 Symbolic Z-matrix:
 Charge =  0 Multiplicity = 1

                         Standard orientation:
 ---------------------------------------------------------------------
 Center     Atomic      Atomic             Coordinates (Angstroms)
 Number     Number       Type             X           Y           Z
 ---------------------------------------------------------------------
      1          1           0        0.489975   -1.126827   -0.000000
      2          1           0        0.489975   -3.483478   -0.000000
      3          1           0        0.000000    1.178325    0.000000
      4          1           0       -0.000000   -1.178325    0.000000
      5          1           0       -0.489975    3.483478   -0.000000
      6          1           0       -0.489975    1.126827   -0.000000
 ---------------------------------------------------------------------

 SCF Done:  E(RHF) =  -2.61562911932     A.U. after   21 cycles
 E2 =    -0.5119511064D+00 EUMP2 =    -0.31275802257475D+01

 The electronic state is 1-AG.
 Alpha  occ. eigenvalues --   -0.73069  -0.70137  -0.22106
 Alpha virt. eigenvalues --   -0.14416   0.56453   0.67429

 Mulliken charges:
               1
     1  H    0.000545
     2  H    0.000537
     3  H   -0.001082
     4  H   -0.001082
     5  H    0.000537
     6  H    0.000545
 Sum of Mulliken charges =  -0.00000

 Dipole moment (field-independent basis, Debye):
    X=             -0.0000    Y=              0.0000    Z=             -0.0000  Tot=              0.0000
 Quadrupole moment (field-independent basis, Debye-Ang):
   XX=             -7.6797   YY=             -8.9261   ZZ=             -8.0887
   XY=              0.1720   XZ=              0.0000   YZ=              0.0000

 Normal termination of Gaussian 09 at Wed Feb 22 13:56:26 2017.
