 Gaussian 09, Revision E.01,
 Gaussian 09:  ES64L-G09RevE.01 30-Nov-2015

 ----------------------------------------------------------------------
 #rhf/gen scf(tight,novaracc,noincfock,fulldiag) stable(crhf) guess=mix
  geom=nocrowd test
 ----------------------------------------------------------------------

 hf stability analysis of h6 triangular lattice, y= 0.65959430708758449
  alpha= 37.000000000000000
 ----------------------------------------------------------------------
 Symbolic Z-matrix:
 Charge =  0 Multiplicity = 1

                         Standard orientation:
 ---------------------------------------------------------------------
 Center     Atomic      Atomic             Coordinates (Angstroms)
 Number     Number       Type             X           Y           Z
 ---------------------------------------------------------------------
      1          1           0        1.053551    0.245903    0.000000
      2          1           0        1.053551   -0.850105    0.000000
      3          1           0       -0.000000    0.548004    0.000000
      4          1           0       -0.000000   -0.548004    0.000000
      5          1           0       -1.053551    0.850105    0.000000
      6          1           0       -1.053551   -0.245903    0.000000
 ---------------------------------------------------------------------

 SCF Done:  E(RHF) =  -2.99222212966     A.U. after   13 cycles
 E2 =    -0.5606499004D-01 EUMP2 =    -0.30482871196997D+01

 The electronic state is 1-AG.
 Alpha  occ. eigenvalues --   -0.80388  -0.53053  -0.36720
 Alpha virt. eigenvalues --    0.09431   0.24836   0.63203

 Mulliken charges:
               1
     1  H   -0.057947
     2  H    0.117071
     3  H   -0.059124
     4  H   -0.059124
     5  H    0.117071
     6  H   -0.057947
 Sum of Mulliken charges =   0.00000

 Dipole moment (field-independent basis, Debye):
    X=             -0.0000    Y=              0.0000    Z=              0.0000  Tot=              0.0000
 Quadrupole moment (field-independent basis, Debye-Ang):
   XX=             -7.2695   YY=             -9.0424   ZZ=             -7.9593
   XY=             -1.9445   XZ=              0.0000   YZ=              0.0000

 Normal termination of Gaussian 09 at Wed Feb 22 13:53:33 2017.
