 Gaussian 09, Revision E.01,
 Gaussian 09:  ES64L-G09RevE.01 30-Nov-2015

 ----------------------------------------------------------------------
 #rhf/gen scf(tight,novaracc,noincfock,fulldiag) stable(crhf) guess=mix
  geom=nocrowd test
 ----------------------------------------------------------------------

 hf stability analysis of h6 triangular lattice, y= 1.7234297938777567
 alpha= 79.000000000000000
 ----------------------------------------------------------------------
 Symbolic Z-matrix:
 Charge =  0 Multiplicity = 1

                         Standard orientation:
 ---------------------------------------------------------------------
 Center     Atomic      Atomic             Coordinates (Angstroms)
 Number     Number       Type             X           Y           Z
 ---------------------------------------------------------------------
      1          1           0        0.657692    2.505688   -0.000000
      2          1           0        0.657692    0.750001   -0.000000
      3          1           0        0.000000    0.877843    0.000000
      4          1           0       -0.000000   -0.877843    0.000000
      5          1           0       -0.657692   -0.750001   -0.000000
      6          1           0       -0.657692   -2.505688   -0.000000
 ---------------------------------------------------------------------

 SCF Done:  E(RHF) =  -2.85474465861     A.U. after   15 cycles
 E2 =    -0.2668179972D+00 EUMP2 =    -0.31215626557900D+01

 The electronic state is 1-AG.
 Alpha  occ. eigenvalues --   -0.73959  -0.62270  -0.21712
 Alpha virt. eigenvalues --   -0.08691   0.33691   0.54855

 Mulliken charges:
               1
     1  H   -0.050979
     2  H    0.030314
     3  H    0.020666
     4  H    0.020666
     5  H    0.030314
     6  H   -0.050979
 Sum of Mulliken charges =  -0.00000

 Dipole moment (field-independent basis, Debye):
    X=             -0.0000    Y=             -0.0000    Z=              0.0000  Tot=              0.0000
 Quadrupole moment (field-independent basis, Debye-Ang):
   XX=             -7.5643   YY=            -12.4434   ZZ=             -7.9983
   XY=             -1.3591   XZ=              0.0000   YZ=             -0.0000

 Normal termination of Gaussian 09 at Wed Feb 22 14:05:39 2017.
