 Gaussian 09, Revision E.01,
 Gaussian 09:  ES64L-G09RevE.01 30-Nov-2015

 ----------------------------------------------------------------------
 #rhf/gen scf(tight,novaracc,noincfock,fulldiag) stable(crhf) guess=mix
  geom=nocrowd test
 ----------------------------------------------------------------------

 hf stability analysis of h6 triangular lattice, y= 0.89143396621364279
  alpha= 54.000000000000000
 ----------------------------------------------------------------------
 Symbolic Z-matrix:
 Charge =  0 Multiplicity = 1

                         Standard orientation:
 ---------------------------------------------------------------------
 Center     Atomic      Atomic             Coordinates (Angstroms)
 Number     Number       Type             X           Y           Z
 ---------------------------------------------------------------------
      1          1           0        1.047943    0.891434   -0.000000
      2          1           0        1.047943   -0.210439    0.000000
      3          1           0        0.000000    0.550936   -0.000000
      4          1           0       -0.000000   -0.550936   -0.000000
      5          1           0       -1.047943    0.210439    0.000000
      6          1           0       -1.047943   -0.891434   -0.000000
 ---------------------------------------------------------------------

 SCF Done:  E(RHF) =  -2.98598149982     A.U. after   13 cycles
 E2 =    -0.5629149512D-01 EUMP2 =    -0.30422729949474D+01

 The electronic state is 1-AG.
 Alpha  occ. eigenvalues --   -0.80115  -0.53079  -0.36055
 Alpha virt. eigenvalues --    0.08588   0.25907   0.61330

 Mulliken charges:
               1
     1  H    0.127451
     2  H   -0.069456
     3  H   -0.057995
     4  H   -0.057995
     5  H   -0.069456
     6  H    0.127451
 Sum of Mulliken charges =   0.00000

 Dipole moment (field-independent basis, Debye):
    X=             -0.0000    Y=             -0.0000    Z=             -0.0000  Tot=              0.0000
 Quadrupole moment (field-independent basis, Debye-Ang):
   XX=             -7.3321   YY=             -8.8186   ZZ=             -7.9603
   XY=              2.1774   XZ=              0.0000   YZ=             -0.0000

 Normal termination of Gaussian 09 at Wed Feb 22 14:02:30 2017.
