 Gaussian 09, Revision E.01,
 Gaussian 09:  ES64L-G09RevE.01 30-Nov-2015

 ----------------------------------------------------------------------
 #rhf/gen scf(tight,novaracc,noincfock,fulldiag) stable(crhf) guess=mix
  geom=nocrowd test
 ----------------------------------------------------------------------

 hf stability analysis of h6 triangular lattice, y= 0.63581839018712483
  alpha= 35.000000000000000
 ----------------------------------------------------------------------
 Symbolic Z-matrix:
 Charge =  0 Multiplicity = 1

                         Standard orientation:
 ---------------------------------------------------------------------
 Center     Atomic      Atomic             Coordinates (Angstroms)
 Number     Number       Type             X           Y           Z
 ---------------------------------------------------------------------
      1          1           0        1.041664    0.175123   -0.000000
      2          1           0        1.041664   -0.933392   -0.000000
      3          1           0        0.000000    0.554258    0.000000
      4          1           0       -0.000000   -0.554258    0.000000
      5          1           0       -1.041664    0.933392   -0.000000
      6          1           0       -1.041664   -0.175123   -0.000000
 ---------------------------------------------------------------------

 SCF Done:  E(RHF) =  -2.97879666685     A.U. after   13 cycles
 E2 =    -0.5655897853D-01 EUMP2 =    -0.30353556453817D+01

 The electronic state is 1-AG.
 Alpha  occ. eigenvalues --   -0.79809  -0.53097  -0.35318
 Alpha virt. eigenvalues --    0.07754   0.26996   0.59312

 Mulliken charges:
               1
     1  H   -0.081086
     2  H    0.137762
     3  H   -0.056676
     4  H   -0.056676
     5  H    0.137762
     6  H   -0.081086
 Sum of Mulliken charges =  -0.00000

 Dipole moment (field-independent basis, Debye):
    X=              0.0000    Y=              0.0000    Z=             -0.0000  Tot=              0.0000
 Quadrupole moment (field-independent basis, Debye-Ang):
   XX=             -7.4023   YY=             -8.5660   ZZ=             -7.9614
   XY=             -2.4066   XZ=             -0.0000   YZ=              0.0000

 Normal termination of Gaussian 09 at Wed Feb 22 13:53:37 2017.
