 Gaussian 09, Revision E.01,
 Gaussian 09:  ES64L-G09RevE.01 30-Nov-2015

 ----------------------------------------------------------------------
 #rhf/gen scf(tight,novaracc,noincfock,fulldiag) stable(crhf) guess=mix
  geom=nocrowd test
 ----------------------------------------------------------------------

 hf stability analysis of h6 triangular lattice, y= 0.45840846314364242
  alpha= 20.000000000000000
 ----------------------------------------------------------------------
 Symbolic Z-matrix:
 Charge =  0 Multiplicity = 1

                         Standard orientation:
 ---------------------------------------------------------------------
 Center     Atomic      Atomic             Coordinates (Angstroms)
 Number     Number       Type             X           Y           Z
 ---------------------------------------------------------------------
      1          1           0        0.861526   -0.356578   -0.000000
      2          1           0        0.861526   -1.696875   -0.000000
      3          1           0       -0.000000    0.670148    0.000000
      4          1           0       -0.000000   -0.670148   -0.000000
      5          1           0       -0.861526    1.696875   -0.000000
      6          1           0       -0.861526    0.356578   -0.000000
 ---------------------------------------------------------------------

 SCF Done:  E(RHF) =  -2.84609807176     A.U. after   19 cycles
 E2 =    -0.8703654727D-01 EUMP2 =    -0.29331346190299D+01

 The electronic state is 1-AG.
 Alpha  occ. eigenvalues --   -0.81411  -0.57724  -0.20466
 Alpha virt. eigenvalues --    0.04339   0.15090   0.37404

 Mulliken charges:
               1
     1  H    0.161653
     2  H   -0.270366
     3  H    0.108713
     4  H    0.108713
     5  H   -0.270366
     6  H    0.161653
 Sum of Mulliken charges =   0.00000

 Dipole moment (field-independent basis, Debye):
    X=              0.0000    Y=              0.0000    Z=             -0.0000  Tot=              0.0000
 Quadrupole moment (field-independent basis, Debye-Ang):
   XX=             -8.8588   YY=            -16.3105   ZZ=             -7.9062
   XY=              5.1422   XZ=              0.0000   YZ=             -0.0000

 Normal termination of Gaussian 09 at Wed Feb 22 13:54:05 2017.
