 Gaussian 09, Revision E.01,
 Gaussian 09:  ES64L-G09RevE.01 30-Nov-2015

 ----------------------------------------------------------------------
 #rhf/gen scf(tight,novaracc,noincfock,fulldiag) stable(crhf) guess=mix
  geom=nocrowd test
 ----------------------------------------------------------------------

 hf stability analysis of h6 triangular lattice, y= 0.68376095798003989
  alpha= 39.000000000000000
 ----------------------------------------------------------------------
 Symbolic Z-matrix:
 Charge =  0 Multiplicity = 1

                         Standard orientation:
 ---------------------------------------------------------------------
 Center     Atomic      Atomic             Coordinates (Angstroms)
 Number     Number       Type             X           Y           Z
 ---------------------------------------------------------------------
      1          1           0        1.062764    0.317356    0.000000
      2          1           0        1.062764   -0.769151    0.000000
      3          1           0       -0.000000    0.543253    0.000000
      4          1           0       -0.000000   -0.543253    0.000000
      5          1           0       -1.062764    0.769151    0.000000
      6          1           0       -1.062764   -0.317356    0.000000
 ---------------------------------------------------------------------

 SCF Done:  E(RHF) =  -3.00211840880     A.U. after   13 cycles
 E2 =    -0.5571722251D-01 EUMP2 =    -0.30578356313114D+01

 The electronic state is 1-AG.
 Alpha  occ. eigenvalues --   -0.80836  -0.52988  -0.37831
 Alpha virt. eigenvalues --    0.11143   0.22745   0.66442

 Mulliken charges:
               1
     1  H   -0.035206
     2  H    0.096095
     3  H   -0.060889
     4  H   -0.060889
     5  H    0.096095
     6  H   -0.035206
 Sum of Mulliken charges =  -0.00000

 Dipole moment (field-independent basis, Debye):
    X=              0.0000    Y=             -0.0000    Z=              0.0000  Tot=              0.0000
 Quadrupole moment (field-independent basis, Debye-Ang):
   XX=             -7.1667   YY=             -9.4067   ZZ=             -7.9577
   XY=             -1.4695   XZ=              0.0000   YZ=              0.0000

 Normal termination of Gaussian 09 at Wed Feb 22 14:00:35 2017.
