 Gaussian 09, Revision E.01,
 Gaussian 09:  ES64L-G09RevE.01 30-Nov-2015

 ----------------------------------------------------------------------
 #rhf/gen scf(tight,novaracc,noincfock,fulldiag) stable(crhf) guess=mix
  geom=nocrowd test
 ----------------------------------------------------------------------

 hf stability analysis of h6 triangular lattice, y= 0.78684966272995749
  alpha= 47.000000000000000
 ----------------------------------------------------------------------
 Symbolic Z-matrix:
 Charge =  0 Multiplicity = 1

                         Standard orientation:
 ---------------------------------------------------------------------
 Center     Atomic      Atomic             Coordinates (Angstroms)
 Number     Number       Type             X           Y           Z
 ---------------------------------------------------------------------
      1          1           0        1.073260    0.612990    0.000000
      2          1           0        1.073260   -0.462891    0.000000
      3          1           0        0.000000    0.537941    0.000000
      4          1           0       -0.000000   -0.537941    0.000000
      5          1           0       -1.073260    0.462891    0.000000
      6          1           0       -1.073260   -0.612990    0.000000
 ---------------------------------------------------------------------

 SCF Done:  E(RHF) =  -3.01285377426     A.U. after   13 cycles
 E2 =    -0.5535661774D-01 EUMP2 =    -0.30682103920064D+01

 The electronic state is 1-AG.
 Alpha  occ. eigenvalues --   -0.81346  -0.52871  -0.39131
 Alpha virt. eigenvalues --    0.14609   0.18843   0.70405

 Mulliken charges:
               1
     1  H    0.053292
     2  H    0.009485
     3  H   -0.062777
     4  H   -0.062777
     5  H    0.009485
     6  H    0.053292
 Sum of Mulliken charges =   0.00000

 Dipole moment (field-independent basis, Debye):
    X=              0.0000    Y=             -0.0000    Z=              0.0000  Tot=              0.0000
 Quadrupole moment (field-independent basis, Debye-Ang):
   XX=             -7.0498   YY=             -9.8171   ZZ=             -7.9558
   XY=              0.4941   XZ=              0.0000   YZ=              0.0000

 Normal termination of Gaussian 09 at Wed Feb 22 14:01:36 2017.
