 Gaussian 09, Revision E.01,
 Gaussian 09:  ES64L-G09RevE.01 30-Nov-2015

 ----------------------------------------------------------------------
 #rhf/gen scf(tight,novaracc,noincfock,fulldiag) stable(crhf) guess=mix
  geom=nocrowd test
 ----------------------------------------------------------------------

 hf stability analysis of h6 triangular lattice, y= 0.55406009924157285
  alpha= 28.000000000000000
 ----------------------------------------------------------------------
 Symbolic Z-matrix:
 Charge =  0 Multiplicity = 1

                         Standard orientation:
 ---------------------------------------------------------------------
 Center     Atomic      Atomic             Coordinates (Angstroms)
 Number     Number       Type             X           Y           Z
 ---------------------------------------------------------------------
      1          1           0        0.978412   -0.069858    0.000000
      2          1           0        0.978412   -1.250036    0.000000
      3          1           0       -0.000000    0.590089   -0.000000
      4          1           0       -0.000000   -0.590089   -0.000000
      5          1           0       -0.978412    1.250036    0.000000
      6          1           0       -0.978412    0.069858    0.000000
 ---------------------------------------------------------------------

 SCF Done:  E(RHF) =  -2.89480218537     A.U. after   16 cycles
 E2 =    -0.6024286975D-01 EUMP2 =    -0.29550450551237D+01

 The electronic state is 1-AG.
 Alpha  occ. eigenvalues --   -0.76727  -0.52858  -0.28131
 Alpha virt. eigenvalues --    0.02133   0.35109   0.42602

 Mulliken charges:
               1
     1  H   -0.169908
     2  H    0.208391
     3  H   -0.038483
     4  H   -0.038483
     5  H    0.208391
     6  H   -0.169908
 Sum of Mulliken charges =   0.00000

 Dipole moment (field-independent basis, Debye):
    X=              0.0000    Y=             -0.0000    Z=              0.0000  Tot=              0.0000
 Quadrupole moment (field-independent basis, Debye-Ang):
   XX=             -8.1178   YY=             -5.8889   ZZ=             -7.9703
   XY=             -3.8603   XZ=             -0.0000   YZ=              0.0000

 Normal termination of Gaussian 09 at Wed Feb 22 13:59:11 2017.
