 Gaussian 09, Revision E.01,
 Gaussian 09:  ES64L-G09RevE.01 30-Nov-2015

 ----------------------------------------------------------------------
 #rhf/gen scf(tight,novaracc,noincfock,fulldiag) stable(crhf) guess=mix
  geom=nocrowd test
 ----------------------------------------------------------------------

 hf stability analysis of h6 triangular lattice, y= 0.43311947504735931
  alpha= 18.000000000000000
 ----------------------------------------------------------------------
 Symbolic Z-matrix:
 Charge =  0 Multiplicity = 1

                         Standard orientation:
 ---------------------------------------------------------------------
 Center     Atomic      Atomic             Coordinates (Angstroms)
 Number     Number       Type             X           Y           Z
 ---------------------------------------------------------------------
      1          1           0        0.823842   -0.433119    0.000000
      2          1           0        0.823842   -1.834723    0.000000
      3          1           0        0.000000    0.700802   -0.000000
      4          1           0       -0.000000   -0.700802   -0.000000
      5          1           0       -0.823842    1.834723    0.000000
      6          1           0       -0.823842    0.433119    0.000000
 ---------------------------------------------------------------------

 SCF Done:  E(RHF) =  -2.86324567559     A.U. after   14 cycles
 E2 =    -0.1053546739D+00 EUMP2 =    -0.29686003495079D+01

 The electronic state is 1-AG.
 Alpha  occ. eigenvalues --   -0.80147  -0.58360  -0.20676
 Alpha virt. eigenvalues --    0.04101   0.14388   0.40506

 Mulliken charges:
               1
     1  H    0.134263
     2  H   -0.225848
     3  H    0.091585
     4  H    0.091585
     5  H   -0.225848
     6  H    0.134263
 Sum of Mulliken charges =   0.00000

 Dipole moment (field-independent basis, Debye):
    X=             -0.0000    Y=              0.0000    Z=             -0.0000  Tot=              0.0000
 Quadrupole moment (field-independent basis, Debye-Ang):
   XX=             -8.4382   YY=            -16.2924   ZZ=             -7.9361
   XY=              4.3887   XZ=              0.0000   YZ=             -0.0000

 Normal termination of Gaussian 09 at Wed Feb 22 13:57:55 2017.
