 Gaussian 09, Revision E.01,
 Gaussian 09:  ES64L-G09RevE.01 30-Nov-2015

 ----------------------------------------------------------------------
 #rhf/gen scf(tight,novaracc,noincfock,fulldiag) stable(crhf) guess=mix
  geom=nocrowd test
 ----------------------------------------------------------------------

 hf stability analysis of h6 triangular lattice, y= 2.0268354180156947
 alpha= 82.000000000000000
 ----------------------------------------------------------------------
 Symbolic Z-matrix:
 Charge =  0 Multiplicity = 1

                         Standard orientation:
 ---------------------------------------------------------------------
 Center     Atomic      Atomic             Coordinates (Angstroms)
 Number     Number       Type             X           Y           Z
 ---------------------------------------------------------------------
      1          1           0        0.564162    2.990844    0.000000
      2          1           0        0.564162    0.944089    0.000000
      3          1           0        0.000000    1.023377    0.000000
      4          1           0       -0.000000   -1.023377    0.000000
      5          1           0       -0.564162   -0.944089    0.000000
      6          1           0       -0.564162   -2.990844    0.000000
 ---------------------------------------------------------------------

 SCF Done:  E(RHF) =  -2.76435699083     A.U. after   16 cycles
 E2 =    -0.4035406173D+00 EUMP2 =    -0.31678976081635D+01

 The electronic state is 1-AG.
 Alpha  occ. eigenvalues --   -0.72519  -0.66256  -0.22127
 Alpha virt. eigenvalues --   -0.12720   0.46280   0.62010

 Mulliken charges:
               1
     1  H   -0.007975
     2  H    0.005803
     3  H    0.002172
     4  H    0.002172
     5  H    0.005803
     6  H   -0.007975
 Sum of Mulliken charges =   0.00000

 Dipole moment (field-independent basis, Debye):
    X=             -0.0000    Y=             -0.0000    Z=             -0.0000  Tot=              0.0000
 Quadrupole moment (field-independent basis, Debye-Ang):
   XX=             -7.5595   YY=             -9.9834   ZZ=             -8.0391
   XY=             -0.4675   XZ=             -0.0000   YZ=              0.0000

 Normal termination of Gaussian 09 at Wed Feb 22 14:06:02 2017.
