 Gaussian 09, Revision E.01,
 Gaussian 09:  ES64L-G09RevE.01 30-Nov-2015

 ----------------------------------------------------------------------
 #rhf/gen scf(tight,novaracc,noincfock,fulldiag) stable(crhf) guess=mix
  geom=nocrowd test
 ----------------------------------------------------------------------

 hf stability analysis of h6 triangular lattice, y= 0.70843697833015451
  alpha= 41.000000000000000
 ----------------------------------------------------------------------
 Symbolic Z-matrix:
 Charge =  0 Multiplicity = 1

                         Standard orientation:
 ---------------------------------------------------------------------
 Center     Atomic      Atomic             Coordinates (Angstroms)
 Number     Number       Type             X           Y           Z
 ---------------------------------------------------------------------
      1          1           0        1.069328    0.389634    0.000000
      2          1           0        1.069328   -0.690203    0.000000
      3          1           0        0.000000    0.539919   -0.000000
      4          1           0       -0.000000   -0.539919   -0.000000
      5          1           0       -1.069328    0.690203    0.000000
      6          1           0       -1.069328   -0.389634    0.000000
 ---------------------------------------------------------------------

 SCF Done:  E(RHF) =  -3.00889922375     A.U. after   13 cycles
 E2 =    -0.5548735610D-01 EUMP2 =    -0.30643865798531D+01

 The electronic state is 1-AG.
 Alpha  occ. eigenvalues --   -0.81155  -0.52921  -0.38639
 Alpha virt. eigenvalues --    0.12884   0.20732   0.68884

 Mulliken charges:
               1
     1  H   -0.012747
     2  H    0.074831
     3  H   -0.062084
     4  H   -0.062084
     5  H    0.074831
     6  H   -0.012747
 Sum of Mulliken charges =  -0.00000

 Dipole moment (field-independent basis, Debye):
    X=              0.0000    Y=             -0.0000    Z=              0.0000  Tot=              0.0000
 Quadrupole moment (field-independent basis, Debye-Ang):
   XX=             -7.0936   YY=             -9.6639   ZZ=             -7.9565
   XY=             -0.9850   XZ=             -0.0000   YZ=              0.0000

 Normal termination of Gaussian 09 at Wed Feb 22 14:00:50 2017.
