 Gaussian 09, Revision E.01,
 Gaussian 09:  ES64L-G09RevE.01 30-Nov-2015

 ----------------------------------------------------------------------
 #rhf/gen scf(tight,novaracc,noincfock,fulldiag) stable(crhf) guess=mix
  geom=nocrowd test
 ----------------------------------------------------------------------

 hf stability analysis of h6 triangular lattice, y= 0.69602759790885060
  alpha= 40.000000000000000
 ----------------------------------------------------------------------
 Symbolic Z-matrix:
 Charge =  0 Multiplicity = 1

                         Standard orientation:
 ---------------------------------------------------------------------
 Center     Atomic      Atomic             Coordinates (Angstroms)
 Number     Number       Type             X           Y           Z
 ---------------------------------------------------------------------
      1          1           0        1.066376    0.353382   -0.000000
      2          1           0        1.066376   -0.729444   -0.000000
      3          1           0       -0.000000    0.541413   -0.000000
      4          1           0       -0.000000   -0.541413   -0.000000
      5          1           0       -1.066376    0.729444   -0.000000
      6          1           0       -1.066376   -0.353382   -0.000000
 ---------------------------------------------------------------------

 SCF Done:  E(RHF) =  -3.00587734337     A.U. after   13 cycles
 E2 =    -0.5558892496D-01 EUMP2 =    -0.30614662683310D+01

 The electronic state is 1-AG.
 Alpha  occ. eigenvalues --   -0.81011  -0.52953  -0.38273
 Alpha virt. eigenvalues --    0.12011   0.21727   0.67771

 Mulliken charges:
               1
     1  H   -0.023946
     2  H    0.085498
     3  H   -0.061552
     4  H   -0.061552
     5  H    0.085498
     6  H   -0.023946
 Sum of Mulliken charges =  -0.00000

 Dipole moment (field-independent basis, Debye):
    X=              0.0000    Y=              0.0000    Z=             -0.0000  Tot=              0.0000
 Quadrupole moment (field-independent basis, Debye-Ang):
   XX=             -7.1265   YY=             -9.5485   ZZ=             -7.9570
   XY=             -1.2282   XZ=              0.0000   YZ=             -0.0000

 Normal termination of Gaussian 09 at Wed Feb 22 14:00:43 2017.
