 Gaussian 09, Revision E.01,
 Gaussian 09:  ES64L-G09RevE.01 30-Nov-2015

 ----------------------------------------------------------------------
 #rhf/gen scf(tight,novaracc,noincfock,fulldiag) stable(crhf) guess=mix
  geom=nocrowd test
 ----------------------------------------------------------------------

 hf stability analysis of h6 triangular lattice, y= 0.80075743172543956
  alpha= 48.000000000000000
 ----------------------------------------------------------------------
 Symbolic Z-matrix:
 Charge =  0 Multiplicity = 1

                         Standard orientation:
 ---------------------------------------------------------------------
 Center     Atomic      Atomic             Coordinates (Angstroms)
 Number     Number       Type             X           Y           Z
 ---------------------------------------------------------------------
      1          1           0        1.071623    0.651395    0.000000
      2          1           0        1.071623   -0.426131    0.000000
      3          1           0        0.000000    0.538763    0.000000
      4          1           0       -0.000000   -0.538763    0.000000
      5          1           0       -1.071623    0.426131    0.000000
      6          1           0       -1.071623   -0.651395    0.000000
 ---------------------------------------------------------------------

 SCF Done:  E(RHF) =  -3.01121638054     A.U. after   12 cycles
 E2 =    -0.5541044672D-01 EUMP2 =    -0.30666268272639D+01

 The electronic state is 1-AG.
 Alpha  occ. eigenvalues --   -0.81266  -0.52893  -0.38925
 Alpha virt. eigenvalues --    0.13755   0.19764   0.69766

 Mulliken charges:
               1
     1  H    0.064094
     2  H   -0.001604
     3  H   -0.062490
     4  H   -0.062490
     5  H   -0.001604
     6  H    0.064094
 Sum of Mulliken charges =   0.00000

 Dipole moment (field-independent basis, Debye):
    X=              0.0000    Y=             -0.0000    Z=              0.0000  Tot=              0.0000
 Quadrupole moment (field-independent basis, Debye-Ang):
   XX=             -7.0680   YY=             -9.7534   ZZ=             -7.9561
   XY=              0.7401   XZ=             -0.0000   YZ=              0.0000

 Normal termination of Gaussian 09 at Wed Feb 22 14:01:44 2017.
