 Gaussian 09, Revision E.01,
 Gaussian 09:  ES64L-G09RevE.01 30-Nov-2015

 ----------------------------------------------------------------------
 #rhf/gen scf(tight,novaracc,noincfock,fulldiag) stable(crhf) guess=mix
  geom=nocrowd test
 ----------------------------------------------------------------------

 hf stability analysis of h6 triangular lattice, y= 1.1954046164231349
 alpha= 68.000000000000000
 ----------------------------------------------------------------------
 Symbolic Z-matrix:
 Charge =  0 Multiplicity = 1

                         Standard orientation:
 ---------------------------------------------------------------------
 Center     Atomic      Atomic             Coordinates (Angstroms)
 Number     Number       Type             X           Y           Z
 ---------------------------------------------------------------------
      1          1           0        0.895613    1.572077    0.000000
      2          1           0        0.895613    0.282792    0.000000
      3          1           0        0.000000    0.644643    0.000000
      4          1           0       -0.000000   -0.644643    0.000000
      5          1           0       -0.895613   -0.282792    0.000000
      6          1           0       -0.895613   -1.572077    0.000000
 ---------------------------------------------------------------------

 SCF Done:  E(RHF) =  -2.82703658859     A.U. after   16 cycles
 E2 =    -0.7141392984D-01 EUMP2 =    -0.28984505184385D+01

 Unable to determine electronic state:  partially filled degenerate orbitals.
 Alpha  occ. eigenvalues --   -0.80591  -0.56136  -0.21311
 Alpha virt. eigenvalues --    0.02622   0.20600   0.36270

 Mulliken charges:
               1
     1  H   -0.107829
     2  H    0.120332
     3  H   -0.014703
     4  H    0.149972
     5  H    0.183052
     6  H   -0.330824
 Sum of Mulliken charges =  -0.00000

 Dipole moment (field-independent basis, Debye):
    X=              0.6895    Y=              1.0888    Z=             -0.0000  Tot=              1.2887
 Quadrupole moment (field-independent basis, Debye-Ang):
   XX=             -8.9127   YY=            -14.0431   ZZ=             -7.8793
   XY=             -4.1145   XZ=              0.0000   YZ=              0.0000

 Normal termination of Gaussian 09 at Wed Feb 22 14:04:15 2017.
