 Gaussian 09, Revision E.01,
 Gaussian 09:  ES64L-G09RevE.01 30-Nov-2015

 ----------------------------------------------------------------------
 #rhf/gen scf(tight,novaracc,noincfock,fulldiag) stable(crhf) guess=mix
  geom=nocrowd test
 ----------------------------------------------------------------------

 hf stability analysis of h6 triangular lattice, y= 1.5217180473945009
 alpha= 76.000000000000000
 ----------------------------------------------------------------------
 Symbolic Z-matrix:
 Charge =  0 Multiplicity = 1

                         Standard orientation:
 ---------------------------------------------------------------------
 Center     Atomic      Atomic             Coordinates (Angstroms)
 Number     Number       Type             X           Y           Z
 ---------------------------------------------------------------------
      1          1           0        0.736274    2.168881    0.000000
      2          1           0        0.736274    0.600578    0.000000
      3          1           0        0.000000    0.784152    0.000000
      4          1           0       -0.000000   -0.784152    0.000000
      5          1           0       -0.736274   -0.600578   -0.000000
      6          1           0       -0.736274   -2.168881   -0.000000
 ---------------------------------------------------------------------

 SCF Done:  E(RHF) =  -2.87723969632     A.U. after   15 cycles
 E2 =    -0.1722421992D+00 EUMP2 =    -0.30494818955465D+01

 The electronic state is 1-AG.
 Alpha  occ. eigenvalues --   -0.76702  -0.60055  -0.21198
 Alpha virt. eigenvalues --   -0.03182   0.23331   0.48118

 Mulliken charges:
               1
     1  H   -0.123153
     2  H    0.072302
     3  H    0.050851
     4  H    0.050851
     5  H    0.072302
     6  H   -0.123153
 Sum of Mulliken charges =  -0.00000

 Dipole moment (field-independent basis, Debye):
    X=              0.0000    Y=             -0.0000    Z=              0.0000  Tot=              0.0000
 Quadrupole moment (field-independent basis, Debye-Ang):
   XX=             -7.8099   YY=            -14.7936   ZZ=             -7.9771
   XY=             -2.6385   XZ=              0.0000   YZ=             -0.0000

 Normal termination of Gaussian 09 at Wed Feb 22 14:05:16 2017.
