 Gaussian 09, Revision E.01,
 Gaussian 09:  ES64L-G09RevE.01 30-Nov-2015

 ----------------------------------------------------------------------
 #rhf/gen scf(tight,novaracc,noincfock,fulldiag) stable(crhf) guess=mix
  geom=nocrowd test
 ----------------------------------------------------------------------

 hf stability analysis of h6 triangular lattice, y= 0.49504611604806875
  alpha= 23.000000000000000
 ----------------------------------------------------------------------
 Symbolic Z-matrix:
 Charge =  0 Multiplicity = 1

                         Standard orientation:
 ---------------------------------------------------------------------
 Center     Atomic      Atomic             Coordinates (Angstroms)
 Number     Number       Type             X           Y           Z
 ---------------------------------------------------------------------
      1          1           0        0.911385   -0.246627    0.000000
      2          1           0        0.911385   -1.513601    0.000000
      3          1           0        0.000000    0.633487    0.000000
      4          1           0       -0.000000   -0.633487   -0.000000
      5          1           0       -0.911385    1.513601    0.000000
      6          1           0       -0.911385    0.246627    0.000000
 ---------------------------------------------------------------------

 SCF Done:  E(RHF) =  -2.82409881319     A.U. after   13 cycles
 E2 =    -0.6923947891D-01 EUMP2 =    -0.28933382921042D+01

 Unable to determine electronic state:  partially filled degenerate orbitals.
 Alpha  occ. eigenvalues --   -0.78951  -0.54852  -0.22357
 Alpha virt. eigenvalues --    0.01956   0.24906   0.36918

 Mulliken charges:
               1
     1  H    0.082983
     2  H    0.044175
     3  H    0.130293
     4  H   -0.111079
     5  H   -0.279524
     6  H    0.133151
 Sum of Mulliken charges =   0.00000

 Dipole moment (field-independent basis, Debye):
    X=              1.1974    Y=             -1.5595    Z=             -0.0000  Tot=              1.9661
 Quadrupole moment (field-independent basis, Debye-Ang):
   XX=             -8.5841   YY=            -11.5601   ZZ=             -7.8811
   XY=              2.1803   XZ=              0.0000   YZ=             -0.0000

 Normal termination of Gaussian 09 at Wed Feb 22 13:58:33 2017.
