 Gaussian 09, Revision E.01,
 Gaussian 09:  ES64L-G09RevE.01 30-Nov-2015

 ----------------------------------------------------------------------
 #rhf/gen scf(tight,novaracc,noincfock,fulldiag) stable(crhf) guess=mix
  geom=nocrowd test
 ----------------------------------------------------------------------

 hf stability analysis of h6 triangular lattice, y= 0.94288997515969897
  alpha= 57.000000000000000
 ----------------------------------------------------------------------
 Symbolic Z-matrix:
 Charge =  0 Multiplicity = 1

                         Standard orientation:
 ---------------------------------------------------------------------
 Center     Atomic      Atomic             Coordinates (Angstroms)
 Number     Number       Type             X           Y           Z
 ---------------------------------------------------------------------
      1          1           0        1.027069    1.019414    0.000000
      2          1           0        1.027069   -0.104853   -0.000000
      3          1           0       -0.000000    0.562134    0.000000
      4          1           0       -0.000000   -0.562134    0.000000
      5          1           0       -1.027069    0.104853   -0.000000
      6          1           0       -1.027069   -1.019414    0.000000
 ---------------------------------------------------------------------

 SCF Done:  E(RHF) =  -2.96129491744     A.U. after   13 cycles
 E2 =    -0.5724018132D-01 EUMP2 =    -0.30185350987570D+01

 The electronic state is 1-AG.
 Alpha  occ. eigenvalues --   -0.79099  -0.53101  -0.33629
 Alpha virt. eigenvalues --    0.06113   0.29225   0.54919

 Mulliken charges:
               1
     1  H    0.158194
     2  H   -0.104836
     3  H   -0.053359
     4  H   -0.053359
     5  H   -0.104836
     6  H    0.158194
 Sum of Mulliken charges =  -0.00000

 Dipole moment (field-independent basis, Debye):
    X=             -0.0000    Y=             -0.0000    Z=              0.0000  Tot=              0.0000
 Quadrupole moment (field-independent basis, Debye-Ang):
   XX=             -7.5657   YY=             -7.9706   ZZ=             -7.9638
   XY=              2.8522   XZ=             -0.0000   YZ=              0.0000

 Normal termination of Gaussian 09 at Wed Feb 22 14:02:53 2017.
