 Gaussian 09, Revision E.01,
 Gaussian 09:  ES64L-G09RevE.01 30-Nov-2015

 ----------------------------------------------------------------------
 #rhf/gen scf(tight,novaracc,noincfock,fulldiag) stable(crhf) guess=mix
  geom=nocrowd test
 ----------------------------------------------------------------------

 hf stability analysis of h6 triangular lattice, y= 0.30239593556098865
  alpha= 9.0000000000000000
 ----------------------------------------------------------------------
 Symbolic Z-matrix:
 Charge =  0 Multiplicity = 1

                         Standard orientation:
 ---------------------------------------------------------------------
 Center     Atomic      Atomic             Coordinates (Angstroms)
 Number     Number       Type             X           Y           Z
 ---------------------------------------------------------------------
      1          1           0        0.597346   -0.871916   -0.000000
      2          1           0        0.597346   -2.804967   -0.000000
      3          1           0        0.000000    0.966526    0.000000
      4          1           0       -0.000000   -0.966526    0.000000
      5          1           0       -0.597346    2.804967   -0.000000
      6          1           0       -0.597346    0.871916   -0.000000
 ---------------------------------------------------------------------

 SCF Done:  E(RHF) =  -2.80649332614     A.U. after   16 cycles
 E2 =    -0.3544660504D+00 EUMP2 =    -0.31609593765196D+01

 The electronic state is 1-AG.
 Alpha  occ. eigenvalues --   -0.72748  -0.64679  -0.22028
 Alpha virt. eigenvalues --   -0.11581   0.41816   0.59581

 Mulliken charges:
               1
     1  H    0.011518
     2  H   -0.017947
     3  H    0.006428
     4  H    0.006428
     5  H   -0.017947
     6  H    0.011518
 Sum of Mulliken charges =   0.00000

 Dipole moment (field-independent basis, Debye):
    X=              0.0000    Y=              0.0000    Z=              0.0000  Tot=              0.0000
 Quadrupole moment (field-independent basis, Debye-Ang):
   XX=             -7.5333   YY=            -10.7224   ZZ=             -8.0211
   XY=              0.7038   XZ=             -0.0000   YZ=             -0.0000

 Normal termination of Gaussian 09 at Wed Feb 22 13:54:26 2017.
