 Gaussian 09, Revision E.01,
 Gaussian 09:  ES64L-G09RevE.01 30-Nov-2015

 ----------------------------------------------------------------------
 #rhf/gen scf(tight,novaracc,noincfock,fulldiag) stable(crhf) guess=mix
  geom=nocrowd test
 ----------------------------------------------------------------------

 hf stability analysis of h6 triangular lattice, y= 0.51886690055881535
  alpha= 25.000000000000000
 ----------------------------------------------------------------------
 Symbolic Z-matrix:
 Charge =  0 Multiplicity = 1

                         Standard orientation:
 ---------------------------------------------------------------------
 Center     Atomic      Atomic             Coordinates (Angstroms)
 Number     Number       Type             X           Y           Z
 ---------------------------------------------------------------------
      1          1           0        0.940506   -0.175307   -0.000000
      2          1           0        0.940506   -1.403050   -0.000000
      3          1           0        0.000000    0.613872    0.000000
      4          1           0       -0.000000   -0.613872   -0.000000
      5          1           0       -0.940506    1.403050    0.000000
      6          1           0       -0.940506    0.175307   -0.000000
 ---------------------------------------------------------------------

 SCF Done:  E(RHF) =  -2.83906467735     A.U. after   16 cycles
 E2 =    -0.6822755635D-01 EUMP2 =    -0.29072922337046D+01

 Unable to determine electronic state:  partially filled degenerate orbitals.
 Alpha  occ. eigenvalues --   -0.76292  -0.53044  -0.24371
 Alpha virt. eigenvalues --    0.00958   0.33397   0.37888

 Mulliken charges:
               1
     1  H   -0.061411
     2  H    0.235616
     3  H    0.084088
     4  H   -0.161791
     5  H   -0.002771
     6  H   -0.093732
 Sum of Mulliken charges =   0.00000

 Dipole moment (field-independent basis, Debye):
    X=              1.2229    Y=             -0.9087    Z=              0.0000  Tot=              1.5236
 Quadrupole moment (field-independent basis, Debye-Ang):
   XX=             -8.3019   YY=             -6.7433   ZZ=             -7.9254
   XY=             -2.1205   XZ=             -0.0000   YZ=             -0.0000

 Normal termination of Gaussian 09 at Wed Feb 22 13:53:56 2017.
