 Gaussian 09, Revision E.01,
 Gaussian 09:  ES64L-G09RevE.01 30-Nov-2015

 ----------------------------------------------------------------------
 #rhf/gen scf(tight,novaracc,noincfock,fulldiag) stable(crhf) guess=mix
  geom=nocrowd test
 ----------------------------------------------------------------------

 hf stability analysis of h6 triangular lattice, y= 0.56571237453403433
  alpha= 29.000000000000000
 ----------------------------------------------------------------------
 Symbolic Z-matrix:
 Charge =  0 Multiplicity = 1

                         Standard orientation:
 ---------------------------------------------------------------------
 Center     Atomic      Atomic             Coordinates (Angstroms)
 Number     Number       Type             X           Y           Z
 ---------------------------------------------------------------------
      1          1           0        0.989566   -0.034912    0.000000
      2          1           0        0.989566   -1.201787    0.000000
      3          1           0        0.000000    0.583438    0.000000
      4          1           0       -0.000000   -0.583438   -0.000000
      5          1           0       -0.989566    1.201787   -0.000000
      6          1           0       -0.989566    0.034912   -0.000000
 ---------------------------------------------------------------------

 SCF Done:  E(RHF) =  -2.91114787468     A.U. after   14 cycles
 E2 =    -0.5943661447D-01 EUMP2 =    -0.29705844891494D+01

 The electronic state is 1-AG.
 Alpha  occ. eigenvalues --   -0.77270  -0.52941  -0.29382
 Alpha virt. eigenvalues --    0.02919   0.33895   0.45163

 Mulliken charges:
               1
     1  H   -0.155856
     2  H    0.198441
     3  H   -0.042586
     4  H   -0.042586
     5  H    0.198441
     6  H   -0.155856
 Sum of Mulliken charges =  -0.00000

 Dipole moment (field-independent basis, Debye):
    X=              0.0000    Y=             -0.0000    Z=             -0.0000  Tot=              0.0000
 Quadrupole moment (field-independent basis, Debye-Ang):
   XX=             -7.9897   YY=             -6.3803   ZZ=             -7.9691
   XY=             -3.6745   XZ=             -0.0000   YZ=             -0.0000

 Normal termination of Gaussian 09 at Wed Feb 22 13:59:19 2017.
