 Gaussian 09, Revision E.01,
 Gaussian 09:  ES64L-G09RevE.01 30-Nov-2015

 ----------------------------------------------------------------------
 #rhf/gen scf(tight,novaracc,noincfock,fulldiag) stable(crhf) guess=mix
  geom=nocrowd test
 ----------------------------------------------------------------------

 hf stability analysis of h6 triangular lattice, y= 0.58898815944976501
  alpha= 31.000000000000000
 ----------------------------------------------------------------------
 Symbolic Z-matrix:
 Charge =  0 Multiplicity = 1

                         Standard orientation:
 ---------------------------------------------------------------------
 Center     Atomic      Atomic             Coordinates (Angstroms)
 Number     Number       Type             X           Y           Z
 ---------------------------------------------------------------------
      1          1           0        1.009723    0.034912    0.000000
      2          1           0        1.009723   -1.108670    0.000000
      3          1           0        0.000000    0.571791   -0.000000
      4          1           0       -0.000000   -0.571791   -0.000000
      5          1           0       -1.009723    1.108670    0.000000
      6          1           0       -1.009723   -0.034912    0.000000
 ---------------------------------------------------------------------

 SCF Done:  E(RHF) =  -2.93902603561     A.U. after   14 cycles
 E2 =    -0.5816857599D-01 EUMP2 =    -0.29971946116034D+01

 The electronic state is 1-AG.
 Alpha  occ. eigenvalues --   -0.78253  -0.53053  -0.31653
 Alpha virt. eigenvalues --    0.04503   0.31523   0.50163

 Mulliken charges:
               1
     1  H   -0.129555
     2  H    0.178407
     3  H   -0.048852
     4  H   -0.048852
     5  H    0.178407
     6  H   -0.129555
 Sum of Mulliken charges =  -0.00000

 Dipole moment (field-independent basis, Debye):
    X=              0.0000    Y=             -0.0000    Z=              0.0000  Tot=              0.0000
 Quadrupole moment (field-independent basis, Debye-Ang):
   XX=             -7.7609   YY=             -7.2464   ZZ=             -7.9664
   XY=             -3.2768   XZ=             -0.0000   YZ=              0.0000

 Normal termination of Gaussian 09 at Wed Feb 22 13:59:34 2017.
