 Gaussian 09, Revision E.01,
 Gaussian 09:  ES64L-G09RevE.01 30-Nov-2015

 ----------------------------------------------------------------------
 #rhf/gen scf(tight,novaracc,noincfock,fulldiag) stable(crhf) guess=mix
  geom=nocrowd test
 ----------------------------------------------------------------------

 hf stability analysis of h6 triangular lattice, y= 0.67162153325915808
  alpha= 38.000000000000000
 ----------------------------------------------------------------------
 Symbolic Z-matrix:
 Charge =  0 Multiplicity = 1

                         Standard orientation:
 ---------------------------------------------------------------------
 Center     Atomic      Atomic             Coordinates (Angstroms)
 Number     Number       Type             X           Y           Z
 ---------------------------------------------------------------------
      1          1           0        1.058490    0.281536    0.000000
      2          1           0        1.058490   -0.809358    0.000000
      3          1           0        0.000000    0.545447    0.000000
      4          1           0       -0.000000   -0.545447    0.000000
      5          1           0       -1.058490    0.809358    0.000000
      6          1           0       -1.058490   -0.281536    0.000000
 ---------------------------------------------------------------------

 SCF Done:  E(RHF) =  -2.99758254868     A.U. after   13 cycles
 E2 =    -0.5587484834D-01 EUMP2 =    -0.30534573970133D+01

 The electronic state is 1-AG.
 Alpha  occ. eigenvalues --   -0.80628  -0.53022  -0.37313
 Alpha virt. eigenvalues --    0.10282   0.23781   0.64913

 Mulliken charges:
               1
     1  H   -0.046536
     2  H    0.106619
     3  H   -0.060083
     4  H   -0.060083
     5  H    0.106619
     6  H   -0.046536
 Sum of Mulliken charges =  -0.00000

 Dipole moment (field-independent basis, Debye):
    X=              0.0000    Y=              0.0000    Z=              0.0000  Tot=              0.0000
 Quadrupole moment (field-independent basis, Debye-Ang):
   XX=             -7.2144   YY=             -9.2382   ZZ=             -7.9584
   XY=             -1.7084   XZ=              0.0000   YZ=             -0.0000

 Normal termination of Gaussian 09 at Wed Feb 22 14:00:28 2017.
