 Gaussian 09, Revision E.01,
 Gaussian 09:  ES64L-G09RevE.01 30-Nov-2015

 ----------------------------------------------------------------------
 #rhf/gen scf(tight,novaracc,noincfock,fulldiag) stable(crhf) guess=mix
  geom=nocrowd test
 ----------------------------------------------------------------------

 hf stability analysis of h6 triangular lattice, y= 0.22474786951272291
  alpha= 5.0000000000000000
 ----------------------------------------------------------------------
 Symbolic Z-matrix:
 Charge =  0 Multiplicity = 1

                         Standard orientation:
 ---------------------------------------------------------------------
 Center     Atomic      Atomic             Coordinates (Angstroms)
 Number     Number       Type             X           Y           Z
 ---------------------------------------------------------------------
      1          1           0        0.447785   -1.250170   -0.000000
      2          1           0        0.447785   -3.828863   -0.000000
      3          1           0        0.000000    1.289346    0.000000
      4          1           0       -0.000000   -1.289346    0.000000
      5          1           0       -0.447785    3.828863   -0.000000
      6          1           0       -0.447785    1.250170    0.000000
 ---------------------------------------------------------------------

 SCF Done:  E(RHF) =  -2.48690290420     A.U. after   16 cycles
 E2 =    -0.5772768186D+00 EUMP2 =    -0.30641797227562D+01

 The electronic state is 1-AG.
 Alpha  occ. eigenvalues --   -0.73934  -0.72373  -0.21961
 Alpha virt. eigenvalues --   -0.15037   0.62522   0.70839

 Mulliken charges:
               1
     1  H   -0.000111
     2  H    0.001131
     3  H   -0.001020
     4  H   -0.001020
     5  H    0.001131
     6  H   -0.000111
 Sum of Mulliken charges =  -0.00000

 Dipole moment (field-independent basis, Debye):
    X=              0.0000    Y=             -0.0000    Z=             -0.0000  Tot=              0.0000
 Quadrupole moment (field-independent basis, Debye-Ang):
   XX=             -7.7607   YY=             -8.6006   ZZ=             -8.1152
   XY=              0.0932   XZ=             -0.0000   YZ=             -0.0000

 Normal termination of Gaussian 09 at Wed Feb 22 13:56:18 2017.
