 Gaussian 09, Revision E.01,
 Gaussian 09:  ES64L-G09RevE.01 30-Nov-2015

 ----------------------------------------------------------------------
 #rhf/gen scf(tight,novaracc,noincfock,fulldiag) stable(crhf) guess=mix
  geom=nocrowd test
 ----------------------------------------------------------------------

 hf stability analysis of h6 triangular lattice, y= 0.50700385538738835
  alpha= 24.000000000000000
 ----------------------------------------------------------------------
 Symbolic Z-matrix:
 Charge =  0 Multiplicity = 1

                         Standard orientation:
 ---------------------------------------------------------------------
 Center     Atomic      Atomic             Coordinates (Angstroms)
 Number     Number       Type             X           Y           Z
 ---------------------------------------------------------------------
      1          1           0        0.926342   -0.210824    0.000000
      2          1           0        0.926342   -1.457340    0.000000
      3          1           0       -0.000000    0.623258    0.000000
      4          1           0       -0.000000   -0.623258   -0.000000
      5          1           0       -0.926342    1.457340    0.000000
      6          1           0       -0.926342    0.210824   -0.000000
 ---------------------------------------------------------------------

 SCF Done:  E(RHF) =  -2.82808278838     A.U. after   13 cycles
 E2 =    -0.6968420341D-01 EUMP2 =    -0.28977669917901D+01

 Unable to determine electronic state:  partially filled degenerate orbitals.
 Alpha  occ. eigenvalues --   -0.77425  -0.53770  -0.23375
 Alpha virt. eigenvalues --    0.01379   0.29320   0.37579

 Mulliken charges:
               1
     1  H    0.026582
     2  H    0.165570
     3  H    0.104594
     4  H   -0.165057
     5  H   -0.163923
     6  H    0.032234
 Sum of Mulliken charges =  -0.00000

 Dipole moment (field-independent basis, Debye):
    X=              1.4409    Y=             -1.4935    Z=             -0.0000  Tot=              2.0752
 Quadrupole moment (field-independent basis, Debye-Ang):
   XX=             -8.3357   YY=             -9.0053   ZZ=             -7.8971
   XY=             -0.0240   XZ=             -0.0000   YZ=             -0.0000

 Normal termination of Gaussian 09 at Wed Feb 22 13:58:41 2017.
