 Gaussian 09, Revision E.01,
 Gaussian 09:  ES64L-G09RevE.01 30-Nov-2015

 ----------------------------------------------------------------------
 #rhf/gen scf(tight,novaracc,noincfock,fulldiag) stable(crhf) guess=mix
  geom=nocrowd test
 ----------------------------------------------------------------------

 hf stability analysis of h6 triangular lattice, y= 1.0879998015825072
 alpha= 64.000000000000000
 ----------------------------------------------------------------------
 Symbolic Z-matrix:
 Charge =  0 Multiplicity = 1

                         Standard orientation:
 ---------------------------------------------------------------------
 Center     Atomic      Atomic             Coordinates (Angstroms)
 Number     Number       Type             X           Y           Z
 ---------------------------------------------------------------------
      1          1           0        0.953895    1.350520    0.000000
      2          1           0        0.953895    0.140009    0.000000
      3          1           0       -0.000000    0.605255   -0.000000
      4          1           0       -0.000000   -0.605255   -0.000000
      5          1           0       -0.953895   -0.140009    0.000000
      6          1           0       -0.953895   -1.350520    0.000000
 ---------------------------------------------------------------------

 SCF Done:  E(RHF) =  -2.85663811271     A.U. after   25 cycles
 E2 =    -0.6235679985D-01 EUMP2 =    -0.29189949125638D+01

 The electronic state is 1-AG.
 Alpha  occ. eigenvalues --   -0.75539  -0.52637  -0.25384
 Alpha virt. eigenvalues --    0.00568   0.37413   0.37600

 Mulliken charges:
               1
     1  H    0.228057
     2  H   -0.200880
     3  H   -0.027177
     4  H   -0.027177
     5  H   -0.200880
     6  H    0.228057
 Sum of Mulliken charges =   0.00000

 Dipole moment (field-independent basis, Debye):
    X=              0.0000    Y=              0.0000    Z=             -0.0000  Tot=              0.0000
 Quadrupole moment (field-independent basis, Debye-Ang):
   XX=             -8.4056   YY=             -4.7790   ZZ=             -7.9721
   XY=              4.1951   XZ=              0.0000   YZ=              0.0000

 Normal termination of Gaussian 09 at Wed Feb 22 14:03:45 2017.
