 Gaussian 09, Revision E.01,
 Gaussian 09:  ES64L-G09RevE.01 30-Nov-2015

 ------------------------
 #T UMP4/sto-3g scan test
 ------------------------
 -----------------------------------------------------
 H4 model SPE calculation with CCSD in the 3-21g basis
 -----------------------------------------------------
 Symbolic Z-matrix:
 Charge =  0 Multiplicity = 2

 SCF Done:  E(UHF) =  -36.6830955564     A.U. after    7 cycles
 E2 =    -0.1448954950D-01 EUMP2 =    -0.36697585105926D+02

 Unable to determine electronic state:  partially filled degenerate orbitals.
 Alpha  occ. eigenvalues --  -11.22300  -1.05048  -0.45292  -0.43006
 Alpha virt. eigenvalues --    0.13397   1.98574
  Beta  occ. eigenvalues --  -11.20144  -0.96683  -0.38568
  Beta virt. eigenvalues --    0.17346   0.24600   2.03013

 Mulliken charges and spin densities:
               1          2
     1  C    0.097361   1.092025
     2  H   -0.097361  -0.092025
 Sum of Mulliken charges =  -0.00000   1.00000

 Dipole moment (field-independent basis, Debye):
    X=              0.0000    Y=              0.0000    Z=             -1.1612  Tot=              1.1612
 Variable Step   Value
 -------- ---- -----------
     1       1    1.039349
 ---------------------------------------------------------------------------------------------------
                            Z-MATRIX (ANGSTROMS AND DEGREES)
   CD    Cent   Atom    N1       Length/X        N2       Alpha/Y        N3        Beta/Z          J
 ---------------------------------------------------------------------------------------------------
      1      1  C
      2      2  H        1   0.550000(     1)
 ---------------------------------------------------------------------------------------------------

 SCF Done:  E(UHF) =  -36.9648188033     A.U. after    8 cycles
 E2 =    -0.1476269589D-01 EUMP2 =    -0.36979581499205D+02
 SCF Done:  E(UHF) =  -37.1778071451     A.U. after    8 cycles
 E2 =    -0.1508720535D-01 EUMP2 =    -0.37192894350428D+02
 SCF Done:  E(UHF) =  -37.3391539264     A.U. after    7 cycles
 E2 =    -0.1547052575D-01 EUMP2 =    -0.37354624452175D+02
 SCF Done:  E(UHF) =  -37.4611934622     A.U. after    7 cycles
 E2 =    -0.1591659069D-01 EUMP2 =    -0.37477110052890D+02
 SCF Done:  E(UHF) =  -37.5530799305     A.U. after    7 cycles
 E2 =    -0.1642860845D-01 EUMP2 =    -0.37569508538975D+02
 SCF Done:  E(UHF) =  -37.6217285836     A.U. after    7 cycles
 E2 =    -0.1701003605D-01 EUMP2 =    -0.37638738619657D+02
 SCF Done:  E(UHF) =  -37.6724145432     A.U. after    7 cycles
 E2 =    -0.1766471433D-01 EUMP2 =    -0.37690079257558D+02
 SCF Done:  E(UHF) =  -37.7091764133     A.U. after    7 cycles
 E2 =    -0.1839676901D-01 EUMP2 =    -0.37727573182319D+02
 SCF Done:  E(UHF) =  -37.7351054268     A.U. after    7 cycles
 E2 =    -0.1921050892D-01 EUMP2 =    -0.37754315935681D+02
 E2 =    -0.2011033862D-01 EUMP2 =    -0.37772675206983D+02
 E2 =    -0.2110060844D-01 EUMP2 =    -0.37784463573055D+02
 E2 =    -0.2218528556D-01 EUMP2 =    -0.37791075559682D+02
 E2 =    -0.2336726940D-01 EUMP2 =    -0.37793594382904D+02
 E2 =    -0.2464696990D-01 EUMP2 =    -0.37792872140544D+02
 E2 =    -0.2601909791D-01 EUMP2 =    -0.37789587087713D+02
 E2 =    -0.2746438982D-01 EUMP2 =    -0.37784280585251D+02
 E2 =    -0.2892479218D-01 EUMP2 =    -0.37777370333392D+02
 E2 =    -0.3021794720D-01 EUMP2 =    -0.37769111284316D+02
 E2 =    -0.3075241299D-01 EUMP2 =    -0.37759407691939D+02
 E2 =    -0.9860558630D-02 EUMP2 =    -0.37675125416945D+02
 E2 =    -0.9857119575D-02 EUMP2 =    -0.37675076957116D+02
 E2 =    -0.9854272429D-02 EUMP2 =    -0.37675035538346D+02
 E2 =    -0.9851917682D-02 EUMP2 =    -0.37675000222892D+02
 E2 =    -0.9849972670D-02 EUMP2 =    -0.37674970189190D+02
 E2 =    -0.9848368532D-02 EUMP2 =    -0.37674944716304D+02
 E2 =    -0.9847047788D-02 EUMP2 =    -0.37674923171529D+02
 E2 =    -0.9845962405D-02 EUMP2 =    -0.37674905000202D+02
 E2 =    -0.9845072222D-02 EUMP2 =    -0.37674889717073D+02
 E2 =    -0.9844343668D-02 EUMP2 =    -0.37674876898805D+02
 SCF Done:  E(UHF) =  -37.6650224286     A.U. after    6 cycles
 E2 =    -0.9843748701D-02 EUMP2 =    -0.37674866177304D+02
 SCF Done:  E(UHF) =  -37.6650139698     A.U. after    6 cycles
 E2 =    -0.9843263918D-02 EUMP2 =    -0.37674857233677D+02
 SCF Done:  E(UHF) =  -37.6650069229     A.U. after    6 cycles
 E2 =    -0.9842869825D-02 EUMP2 =    -0.37674849792727D+02
 SCF Done:  E(UHF) =  -37.6650010677     A.U. after    6 cycles
 E2 =    -0.9842550206D-02 EUMP2 =    -0.37674843617895D+02
 SCF Done:  E(UHF) =  -37.6649962150     A.U. after    6 cycles
 E2 =    -0.9842291603D-02 EUMP2 =    -0.37674838506634D+02
 SCF Done:  E(UHF) =  -37.6649922033     A.U. after    6 cycles
 E2 =    -0.9842082871D-02 EUMP2 =    -0.37674834286184D+02
 SCF Done:  E(UHF) =  -37.6649888949     A.U. after    6 cycles
 E2 =    -0.9841914802D-02 EUMP2 =    -0.37674830809744D+02
 SCF Done:  E(UHF) =  -37.6649861732     A.U. after    6 cycles
 E2 =    -0.9841779806D-02 EUMP2 =    -0.37674827953013D+02
 SCF Done:  E(UHF) =  -37.6649839395     A.U. after    6 cycles
 E2 =    -0.9841671641D-02 EUMP2 =    -0.37674825611100D+02

                         Standard orientation:
 ---------------------------------------------------------------------
 Center     Atomic      Atomic             Coordinates (Angstroms)
 Number     Number       Type             X           Y           Z
 ---------------------------------------------------------------------
      1          6           0        0.000000    0.000000    0.571429
      2          1           0        0.000000    0.000000   -3.428571
 ---------------------------------------------------------------------

 SCF Done:  E(UHF) =  -37.6649821106     A.U. after    6 cycles
 E2 =    -0.9841585192D-02 EUMP2 =    -0.37674823695774D+02
 Normal termination of Gaussian 09 at Fri Dec  2 14:36:39 2016.
