 Gaussian 09, Revision E.01,
 Gaussian 09:  ES64L-G09RevE.01 30-Nov-2015

 ------------------------
 #T UMP4/sto-3g scan test
 ------------------------
 -----------------------------------------------------
 H4 model SPE calculation with CCSD in the 3-21g basis
 -----------------------------------------------------
 Symbolic Z-matrix:
 Charge =  0 Multiplicity = 1

 SCF Done:  E(UHF) =  -1.04299627578     A.U. after    1 cycles
 E2 =    -0.8489795140D-02 EUMP2 =    -0.10514860709249D+01

 The electronic state is 1-SGG.
 Alpha  occ. eigenvalues --   -0.69082
 Alpha virt. eigenvalues --    0.98867
  Beta  occ. eigenvalues --   -0.69082
  Beta virt. eigenvalues --    0.98867

 Mulliken charges and spin densities:
               1          2
     1  H   -0.000000   0.000000
     2  H   -0.000000   0.000000
 Sum of Mulliken charges =  -0.00000   0.00000

 Dipole moment (field-independent basis, Debye):
    X=             -0.0000    Y=              0.0000    Z=              0.0000  Tot=              0.0000
 Variable Step   Value
 -------- ---- -----------
     1       1    1.039349
 ---------------------------------------------------------------------------------------------------
                            Z-MATRIX (ANGSTROMS AND DEGREES)
   CD    Cent   Atom    N1       Length/X        N2       Alpha/Y        N3        Beta/Z          J
 ---------------------------------------------------------------------------------------------------
      1      1  H
      2      2  H        1   0.550000(     1)
 ---------------------------------------------------------------------------------------------------

 SCF Done:  E(UHF) =  -1.07905073705     A.U. after    1 cycles
 E2 =    -0.9308614544D-02 EUMP2 =    -0.10883593515915D+01
 SCF Done:  E(UHF) =  -1.10112824283     A.U. after    1 cycles
 E2 =    -0.1020389709D-01 EUMP2 =    -0.11113321399238D+01
 SCF Done:  E(UHF) =  -1.11299654597     A.U. after    1 cycles
 E2 =    -0.1117775073D-01 EUMP2 =    -0.11241742967083D+01
 SCF Done:  E(UHF) =  -1.11734903508     A.U. after    1 cycles
 E2 =    -0.1223293480D-01 EUMP2 =    -0.11295819698797D+01
 SCF Done:  E(UHF) =  -1.11615144885     A.U. after    1 cycles
 E2 =    -0.1337312598D-01 EUMP2 =    -0.11295245748306D+01
 SCF Done:  E(UHF) =  -1.11085039723     A.U. after    1 cycles
 E2 =    -0.1460313659D-01 EUMP2 =    -0.11254535338243D+01
 SCF Done:  E(UHF) =  -1.10251055354     A.U. after    1 cycles
 E2 =    -0.1592898799D-01 EUMP2 =    -0.11184395415309D+01
 SCF Done:  E(UHF) =  -1.09191404052     A.U. after    1 cycles
 E2 =    -0.1735780460D-01 EUMP2 =    -0.11092718451217D+01
 SCF Done:  E(UHF) =  -1.07963692761     A.U. after    1 cycles
 E2 =    -0.1889755634D-01 EUMP2 =    -0.10985344839408D+01
 E2 =    -0.2055671548D-01 EUMP2 =    -0.10866653641030D+01
 E2 =    -0.2234390236D-01 EUMP2 =    -0.10740006572264D+01
 E2 =    -0.2426757832D-01 EUMP2 =    -0.10608064524949D+01
 E2 =    -0.2633581879D-01 EUMP2 =    -0.10472999614503D+01
 E2 =    -0.2855617341D-01 EUMP2 =    -0.10336628790089D+01
 E2 =    -0.3093560178D-01 EUMP2 =    -0.10200494148557D+01
 E2 =    -0.3348046333D-01 EUMP2 =    -0.10065910780497D+01
 E2 =    -0.3619653773D-01 EUMP2 =    -0.99339971172247D+00
 E2 =    -0.3908905520D-01 EUMP2 =    -0.98056970879212D+00
 E2 =    -0.4216272147D-01 EUMP2 =    -0.96817989607466D+00
 E2 =    -0.2332390347D+00 EUMP2 =    -0.88591990128579D+00
 E2 =    -0.2411248363D+00 EUMP2 =    -0.89063061212892D+00
 E2 =    -0.2490336502D+00 EUMP2 =    -0.89554589782862D+00
 E2 =    -0.2569575116D+00 EUMP2 =    -0.90064744269868D+00
 E2 =    -0.2648889799D+00 EUMP2 =    -0.90591783569811D+00
 E2 =    -0.2728211870D+00 EUMP2 =    -0.91134062093966D+00
 E2 =    -0.2807478729D+00 EUMP2 =    -0.91690033659223D+00
 E2 =    -0.2886634079D+00 EUMP2 =    -0.92258254117676D+00
 E2 =    -0.2965628033D+00 EUMP2 =    -0.92837382686842D+00
 E2 =    -0.3044417094D+00 EUMP2 =    -0.93426181997927D+00
 SCF Done:  E(UHF) = -0.627938766587     A.U. after    1 cycles
 E2 =    -0.3122964027D+00 EUMP2 =    -0.94023516929409D+00
 SCF Done:  E(UHF) = -0.626159758644     A.U. after    1 cycles
 E2 =    -0.3201237647D+00 EUMP2 =    -0.94628352332947D+00
 SCF Done:  E(UHF) = -0.624476245879     A.U. after    1 cycles
 E2 =    -0.3279212520D+00 EUMP2 =    -0.95239749787884D+00
 SCF Done:  E(UHF) = -0.622881774332     A.U. after    1 cycles
 E2 =    -0.3356868611D+00 EUMP2 =    -0.95856863539247D+00
 SCF Done:  E(UHF) = -0.621370269875     A.U. after    1 cycles
 E2 =    -0.3434190880D+00 EUMP2 =    -0.96478935782724D+00
 SCF Done:  E(UHF) = -0.619936029204     A.U. after    1 cycles
 E2 =    -0.3511168854D+00 EUMP2 =    -0.97105291460769D+00
 SCF Done:  E(UHF) = -0.618573709090     A.U. after    1 cycles
 E2 =    -0.3587796182D+00 EUMP2 =    -0.97735332725250D+00
 SCF Done:  E(UHF) = -0.617278314120     A.U. after    1 cycles
 E2 =    -0.3664070180D+00 EUMP2 =    -0.98368533212935D+00
 SCF Done:  E(UHF) = -0.616045183180     A.U. after    1 cycles
 E2 =    -0.3739991394D+00 EUMP2 =    -0.99004432260753D+00

                         Standard orientation:
 ---------------------------------------------------------------------
 Center     Atomic      Atomic             Coordinates (Angstroms)
 Number     Number       Type             X           Y           Z
 ---------------------------------------------------------------------
      1          1           0        0.000000    0.000000    2.000000
      2          1           0        0.000000    0.000000   -2.000000
 ---------------------------------------------------------------------

 SCF Done:  E(UHF) = -0.614869974941     A.U. after    1 cycles
 E2 =    -0.3815563168D+00 EUMP2 =    -0.99642629171866D+00
 Normal termination of Gaussian 09 at Fri Dec  2 14:41:53 2016.
