 Gaussian 09, Revision E.01,
 Gaussian 09:  ES64L-G09RevE.01 30-Nov-2015

 ----------------------------------------------------------------------
 #rhf/gen scf(symm,tight,novaracc,noincfock,fulldiag) stable(crhf) gues
 s=read geom=nocrowd test
 ----------------------------------------------------------------------

 ----------------------------------------------------------------------
 hf stability analysis of h10 triangular lattice, y= 1.5217180473945009
 ----------------------------------------------------------------------
 Symbolic Z-matrix:
 Charge =  0 Multiplicity = 1

                         Standard orientation:
 ---------------------------------------------------------------------
 Center     Atomic      Atomic             Coordinates (Angstroms)
 Number     Number       Type             X           Y           Z
 ---------------------------------------------------------------------
      1          1           0        0.000000    0.379407    3.043436
      2          1           0        0.000000    0.758814    1.521718
      3          1           0        0.000000    0.000000    1.521718
      4          1           0        0.000000    0.379407   -0.000000
      5          1           0        0.000000   -0.000000   -1.521718
      6          1           0       -0.000000   -0.379407   -3.043436
      7          1           0       -0.000000   -0.379407    0.000000
      8          1           0       -0.000000   -0.758814   -1.521718
      9          1           0       -0.000000   -0.379407    3.043436
     10          1           0       -0.000000   -0.758814    1.521718
     11          1           0        0.000000    0.758814   -1.521718
     12          1           0        0.000000    0.379407   -3.043436
 ---------------------------------------------------------------------

 SCF Done:  E(RHF) =  -5.98197842433     A.U. after    6 cycles
 E2 =    -0.1256513126D+00 EUMP2 =    -0.61076297369277D+01

 The electronic state is 1-AG.
 Alpha  occ. eigenvalues --   -0.84473  -0.80626  -0.63278  -0.57321  -0.46954
 Alpha  occ. eigenvalues --   -0.30564
 Alpha virt. eigenvalues --   -0.10221   0.39314   0.45427   0.59615   0.74626
 Alpha virt. eigenvalues --    0.78065

 Mulliken charges:
               1
     1  H   -0.017192
     2  H    0.169945
     3  H   -0.212835
     4  H   -0.092671
     5  H   -0.212835
     6  H   -0.017192
     7  H   -0.092671
     8  H    0.169945
     9  H   -0.017192
    10  H    0.169945
    11  H    0.169945
    12  H   -0.017192
 Sum of Mulliken charges =   0.00000

 Dipole moment (field-independent basis, Debye):
    X=             -0.0000    Y=              0.0000    Z=             -0.0000  Tot=              0.0000
 Quadrupole moment (field-independent basis, Debye-Ang):
   XX=            -15.2277   YY=            -13.9791   ZZ=            -21.1120
   XY=              0.0000   XZ=              0.0000   YZ=              0.0000

 Normal termination of Gaussian 09 at Fri Feb 17 15:17:54 2017.
