 Gaussian 09, Revision E.01,
 Gaussian 09:  ES64L-G09RevE.01 30-Nov-2015

 ----------------------------------------------------------------------
 #rhf/gen scf(symm,tight,novaracc,noincfock,fulldiag) stable(crhf) gues
 s=read geom=nocrowd test
 ----------------------------------------------------------------------

 ----------------------------------------------------------------------
 hf stability analysis of h10 triangular lattice, y= 1.1387493349689228
 ----------------------------------------------------------------------
 Symbolic Z-matrix:
 Charge =  0 Multiplicity = 1

                         Standard orientation:
 ---------------------------------------------------------------------
 Center     Atomic      Atomic             Coordinates (Angstroms)
 Number     Number       Type             X           Y           Z
 ---------------------------------------------------------------------
      1          1           0       -0.000000    0.507004    2.277499
      2          1           0       -0.000000    1.014008    1.138749
      3          1           0        0.000000    0.000000    1.138749
      4          1           0       -0.000000    0.507004   -0.000000
      5          1           0        0.000000   -0.000000   -1.138749
      6          1           0       -0.000000   -0.507004   -2.277499
      7          1           0       -0.000000   -0.507004    0.000000
      8          1           0       -0.000000   -1.014008   -1.138749
      9          1           0       -0.000000   -0.507004    2.277499
     10          1           0       -0.000000   -1.014008    1.138749
     11          1           0        0.000000    1.014008   -1.138749
     12          1           0        0.000000    0.507004   -2.277499
 ---------------------------------------------------------------------

 SCF Done:  E(RHF) =  -5.45296142005     A.U. after    9 cycles
 E2 =    -0.1423355685D+00 EUMP2 =    -0.55952969885944D+01

 The electronic state is 1-AG.
 Alpha  occ. eigenvalues --   -0.86430  -0.76621  -0.56299  -0.45092  -0.37681
 Alpha  occ. eigenvalues --   -0.11141
 Alpha virt. eigenvalues --   -0.15766   0.25662   0.37472   0.41094   0.44268
 Alpha virt. eigenvalues --    0.67344

 Mulliken charges:
               1
     1  H   -0.016003
     2  H    0.092097
     3  H   -0.034695
     4  H   -0.117493
     5  H   -0.034695
     6  H   -0.016003
     7  H   -0.117493
     8  H    0.092097
     9  H   -0.016003
    10  H    0.092097
    11  H    0.092097
    12  H   -0.016003
 Sum of Mulliken charges =  -0.00000

 Dipole moment (field-independent basis, Debye):
    X=             -0.0000    Y=              0.0000    Z=             -0.0000  Tot=              0.0000
 Quadrupole moment (field-independent basis, Debye-Ang):
   XX=            -14.7534   YY=            -12.9859   ZZ=            -22.4585
   XY=              0.0000   XZ=              0.0000   YZ=              0.0000

 Normal termination of Gaussian 09 at Fri Feb 17 15:17:32 2017.
