 Gaussian 09, Revision E.01,
 Gaussian 09:  ES64L-G09RevE.01 30-Nov-2015

 ----------------------------------------------------------------------
 #rhf/gen scf(symm,tight,novaracc,noincfock,fulldiag) stable(crhf) gues
 s=read geom=nocrowd test
 ----------------------------------------------------------------------

 ----------------------------------------------------------------------
 hf stability analysis of h10 triangular lattice, y= 1.4678899319530556
 ----------------------------------------------------------------------
 Symbolic Z-matrix:
 Charge =  0 Multiplicity = 1

                         Standard orientation:
 ---------------------------------------------------------------------
 Center     Atomic      Atomic             Coordinates (Angstroms)
 Number     Number       Type             X           Y           Z
 ---------------------------------------------------------------------
      1          1           0        0.000000    0.393320    2.935780
      2          1           0        0.000000    0.786640    1.467890
      3          1           0        0.000000   -0.000000    1.467890
      4          1           0        0.000000    0.393320    0.000000
      5          1           0        0.000000    0.000000   -1.467890
      6          1           0       -0.000000   -0.393320   -2.935780
      7          1           0       -0.000000   -0.393320   -0.000000
      8          1           0       -0.000000   -0.786640   -1.467890
      9          1           0       -0.000000   -0.393320    2.935780
     10          1           0       -0.000000   -0.786640    1.467890
     11          1           0        0.000000    0.786640   -1.467890
     12          1           0        0.000000    0.393320   -2.935780
 ---------------------------------------------------------------------

 SCF Done:  E(RHF) =  -5.97864626436     A.U. after    1 cycles
 E2 =    -0.1237897085D+00 EUMP2 =    -0.61024359728378D+01

 The electronic state is 1-AG.
 Alpha  occ. eigenvalues --   -0.84406  -0.79994  -0.62448  -0.55313  -0.43212
 Alpha  occ. eigenvalues --   -0.32228
 Alpha virt. eigenvalues --   -0.10882   0.37550   0.44587   0.60491   0.69438
 Alpha virt. eigenvalues --    0.73447

 Mulliken charges:
               1
     1  H   -0.018864
     2  H    0.168558
     3  H   -0.197034
     4  H   -0.102354
     5  H   -0.197034
     6  H   -0.018864
     7  H   -0.102354
     8  H    0.168558
     9  H   -0.018864
    10  H    0.168558
    11  H    0.168558
    12  H   -0.018864
 Sum of Mulliken charges =   0.00000

 Dipole moment (field-independent basis, Debye):
    X=             -0.0000    Y=             -0.0000    Z=              0.0000  Tot=              0.0000
 Quadrupole moment (field-independent basis, Debye-Ang):
   XX=            -15.1754   YY=            -13.6587   ZZ=            -21.4471
   XY=              0.0000   XZ=              0.0000   YZ=              0.0000

 Normal termination of Gaussian 09 at Fri Feb 17 15:17:52 2017.
