 Gaussian 09, Revision E.01,
 Gaussian 09:  ES64L-G09RevE.01 30-Nov-2015

 ----------------------------------------------------------------------
 #rhf/gen scf(symm,tight,novaracc,noincfock,fulldiag) stable(crhf) gues
 s=read geom=nocrowd test
 ----------------------------------------------------------------------

 hf stability analysis of h10 triangular lattice, y= 0.3933198989211816
 9
 ----------------------------------------------------------------------
 Symbolic Z-matrix:
 Charge =  0 Multiplicity = 1

                         Standard orientation:
 ---------------------------------------------------------------------
 Center     Atomic      Atomic             Coordinates (Angstroms)
 Number     Number       Type             X           Y           Z
 ---------------------------------------------------------------------
      1          1           0        0.000000    0.786640    1.467890
      2          1           0        0.000000    0.393320    2.935780
      3          1           0        0.000000    0.393320   -0.000000
      4          1           0        0.000000    0.000000    1.467890
      5          1           0       -0.000000   -0.393320    0.000000
      6          1           0       -0.000000   -0.786640   -1.467890
      7          1           0        0.000000   -0.000000   -1.467890
      8          1           0       -0.000000   -0.393320   -2.935780
      9          1           0        0.000000    0.786640   -1.467890
     10          1           0        0.000000    0.393320   -2.935780
     11          1           0       -0.000000   -0.393320    2.935780
     12          1           0       -0.000000   -0.786640    1.467890
 ---------------------------------------------------------------------

 SCF Done:  E(RHF) =  -4.56399257662     A.U. after   13 cycles
 E2 =    -0.1269026968D+01 EUMP2 =    -0.58330195450291D+01

 The electronic state is 1-AG.
 Alpha  occ. eigenvalues --   -0.83594  -0.79394  -0.54182  -0.34768  -0.33068
 Alpha  occ. eigenvalues --    0.15337
 Alpha virt. eigenvalues --   -0.32920  -0.12551   0.32219   0.60538   0.67404
 Alpha virt. eigenvalues --    0.71347

 Mulliken charges:
               1
     1  H    0.225043
     2  H   -0.014340
     3  H   -0.280675
     4  H   -0.140730
     5  H   -0.280675
     6  H    0.225043
     7  H   -0.140730
     8  H   -0.014340
     9  H    0.225043
    10  H   -0.014340
    11  H   -0.014340
    12  H    0.225043
 Sum of Mulliken charges =  -0.00000

 Dipole moment (field-independent basis, Debye):
    X=             -0.0000    Y=             -0.0000    Z=             -0.0000  Tot=              0.0000
 Quadrupole moment (field-independent basis, Debye-Ang):
   XX=            -14.6291   YY=            -16.2353   ZZ=            -14.4030
   XY=             -0.0000   XZ=              0.0000   YZ=              0.0000

 Normal termination of Gaussian 09 at Fri Feb 17 15:15:37 2017.
