 Gaussian 09, Revision E.01,
 Gaussian 09:  ES64L-G09RevE.01 30-Nov-2015

 ----------------------------------------------------------------------
 #rhf/gen scf(symm,tight,novaracc,noincfock,fulldiag) stable(crhf) gues
 s=read geom=nocrowd test
 ----------------------------------------------------------------------

 hf stability analysis of h10 triangular lattice, y= 0.7466864790071482
 4
 ----------------------------------------------------------------------
 Symbolic Z-matrix:
 Charge =  0 Multiplicity = 1

                         Standard orientation:
 ---------------------------------------------------------------------
 Center     Atomic      Atomic             Coordinates (Angstroms)
 Number     Number       Type             X           Y           Z
 ---------------------------------------------------------------------
      1          1           0        0.000000    1.493373    0.773216
      2          1           0        0.000000    0.746686    1.546433
      3          1           0        0.000000    0.746686    0.000000
      4          1           0        0.000000    0.000000    0.773216
      5          1           0       -0.000000   -0.746686   -0.000000
      6          1           0       -0.000000   -1.493373   -0.773216
      7          1           0        0.000000   -0.000000   -0.773216
      8          1           0       -0.000000   -0.746686   -1.546433
      9          1           0        0.000000    1.493373   -0.773216
     10          1           0        0.000000    0.746686   -1.546433
     11          1           0       -0.000000   -0.746686    1.546433
     12          1           0       -0.000000   -1.493373    0.773216
 ---------------------------------------------------------------------

 SCF Done:  E(RHF) =  -5.21854133655     A.U. after   13 cycles
 E2 =    -0.2421961587D+00 EUMP2 =    -0.54607374952206D+01

 The electronic state is 1-AG.
 Alpha  occ. eigenvalues --   -0.91004  -0.67990  -0.66299  -0.36271  -0.33848
 Alpha  occ. eigenvalues --   -0.08291
 Alpha virt. eigenvalues --   -0.22446   0.15351   0.37231   0.39504   0.42371
 Alpha virt. eigenvalues --    0.90924

 Mulliken charges:
               1
     1  H    0.206113
     2  H   -0.109946
     3  H   -0.233569
     4  H    0.041236
     5  H   -0.233569
     6  H    0.206113
     7  H    0.041236
     8  H   -0.109946
     9  H    0.206113
    10  H   -0.109946
    11  H   -0.109946
    12  H    0.206113
 Sum of Mulliken charges =  -0.00000

 Dipole moment (field-independent basis, Debye):
    X=             -0.0000    Y=             -0.0000    Z=              0.0000  Tot=              0.0000
 Quadrupole moment (field-independent basis, Debye-Ang):
   XX=            -14.6880   YY=            -12.0745   ZZ=            -21.4154
   XY=              0.0000   XZ=              0.0000   YZ=              0.0000

 Normal termination of Gaussian 09 at Fri Feb 17 15:16:41 2017.
