 Gaussian 09, Revision E.01,
 Gaussian 09:  ES64L-G09RevE.01 30-Nov-2015

 ----------------------------------------------------------------------
 #rhf/gen scf(symm,tight,novaracc,noincfock,fulldiag) stable(crhf) gues
 s=read geom=nocrowd test
 ----------------------------------------------------------------------

 ----------------------------------------------------------------------
 hf stability analysis of h10 triangular lattice, y= 1.2594669489559134
 ----------------------------------------------------------------------
 Symbolic Z-matrix:
 Charge =  0 Multiplicity = 1

                         Standard orientation:
 ---------------------------------------------------------------------
 Center     Atomic      Atomic             Coordinates (Angstroms)
 Number     Number       Type             X           Y           Z
 ---------------------------------------------------------------------
      1          1           0        0.000000    0.458408    2.518934
      2          1           0        0.000000    0.916817    1.259467
      3          1           0       -0.000000    0.000000    1.259467
      4          1           0        0.000000    0.458408   -0.000000
      5          1           0        0.000000   -0.000000   -1.259467
      6          1           0       -0.000000   -0.458408   -2.518934
      7          1           0       -0.000000   -0.458408    0.000000
      8          1           0       -0.000000   -0.916817   -1.259467
      9          1           0       -0.000000   -0.458408    2.518934
     10          1           0       -0.000000   -0.916817    1.259467
     11          1           0        0.000000    0.916817   -1.259467
     12          1           0        0.000000    0.458408   -2.518934
 ---------------------------------------------------------------------

 SCF Done:  E(RHF) =  -5.75946061638     A.U. after    7 cycles
 E2 =    -0.1342574008D+00 EUMP2 =    -0.58937180171439D+01

 The electronic state is 1-AG.
 Alpha  occ. eigenvalues --   -0.84644  -0.77472  -0.58517  -0.45208  -0.39620
 Alpha  occ. eigenvalues --   -0.24402
 Alpha virt. eigenvalues --   -0.13712   0.30464   0.42211   0.48933   0.55637
 Alpha virt. eigenvalues --    0.65526

 Mulliken charges:
               1
     1  H   -0.024259
     2  H    0.156763
     3  H   -0.125305
     4  H   -0.139703
     5  H   -0.125305
     6  H   -0.024259
     7  H   -0.139703
     8  H    0.156763
     9  H   -0.024259
    10  H    0.156763
    11  H    0.156763
    12  H   -0.024259
 Sum of Mulliken charges =  -0.00000

 Dipole moment (field-independent basis, Debye):
    X=             -0.0000    Y=              0.0000    Z=              0.0000  Tot=              0.0000
 Quadrupole moment (field-independent basis, Debye-Ang):
   XX=            -14.9108   YY=            -12.3137   ZZ=            -22.6572
   XY=              0.0000   XZ=              0.0000   YZ=             -0.0000

 Normal termination of Gaussian 09 at Fri Feb 17 15:17:41 2017.
