 Gaussian 09, Revision E.01,
 Gaussian 09:  ES64L-G09RevE.01 30-Nov-2015

 ----------------------------------------------------------------------
 #rhf/gen scf(symm,tight,novaracc,noincfock,fulldiag) stable(crhf) gues
 s=read geom=nocrowd test
 ----------------------------------------------------------------------

 hf stability analysis of h10 triangular lattice, y= 0.9080427759821990
 7
 ----------------------------------------------------------------------
 Symbolic Z-matrix:
 Charge =  0 Multiplicity = 1

                         Standard orientation:
 ---------------------------------------------------------------------
 Center     Atomic      Atomic             Coordinates (Angstroms)
 Number     Number       Type             X           Y           Z
 ---------------------------------------------------------------------
      1          1           0        0.000000    0.635818    1.816086
      2          1           0        0.000000    1.271637    0.908043
      3          1           0       -0.000000    0.000000    0.908043
      4          1           0       -0.000000    0.635818   -0.000000
      5          1           0        0.000000   -0.000000   -0.908043
      6          1           0       -0.000000   -0.635818   -1.816086
      7          1           0       -0.000000   -0.635818    0.000000
      8          1           0       -0.000000   -1.271637   -0.908043
      9          1           0       -0.000000   -0.635818    1.816086
     10          1           0       -0.000000   -1.271637    0.908043
     11          1           0        0.000000    1.271637   -0.908043
     12          1           0        0.000000    0.635818   -1.816086
 ---------------------------------------------------------------------

 SCF Done:  E(RHF) =  -5.19968913967     A.U. after   13 cycles
 E2 =    -0.2763612013D+00 EUMP2 =    -0.54760503410074D+01

 The electronic state is 1-AG.
 Alpha  occ. eigenvalues --   -0.92484  -0.73471  -0.60342  -0.48604  -0.20678
 Alpha  occ. eigenvalues --   -0.14049
 Alpha virt. eigenvalues --   -0.19055   0.15883   0.22372   0.40582   0.58258
 Alpha virt. eigenvalues --    0.65701

 Mulliken charges:
               1
     1  H    0.050518
     2  H   -0.024038
     3  H   -0.146123
     4  H    0.093163
     5  H   -0.146123
     6  H    0.050518
     7  H    0.093163
     8  H   -0.024038
     9  H    0.050518
    10  H   -0.024038
    11  H   -0.024038
    12  H    0.050518
 Sum of Mulliken charges =  -0.00000

 Dipole moment (field-independent basis, Debye):
    X=             -0.0000    Y=              0.0000    Z=             -0.0000  Tot=              0.0000
 Quadrupole moment (field-independent basis, Debye-Ang):
   XX=            -14.7802   YY=            -17.3646   ZZ=            -18.2603
   XY=             -0.0000   XZ=              0.0000   YZ=              0.0000

 Normal termination of Gaussian 09 at Fri Feb 17 15:17:07 2017.
