 Gaussian 09, Revision E.01,
 Gaussian 09:  ES64L-G09RevE.01 30-Nov-2015

 ----------------------------------------------------------------------
 #rhf/gen scf(symm,tight,novaracc,noincfock,fulldiag) stable(crhf) gues
 s=read geom=nocrowd test
 ----------------------------------------------------------------------

 hf stability analysis of h10 triangular lattice, y= 0.8596363675198261
 9
 ----------------------------------------------------------------------
 Symbolic Z-matrix:
 Charge =  0 Multiplicity = 1

                         Standard orientation:
 ---------------------------------------------------------------------
 Center     Atomic      Atomic             Coordinates (Angstroms)
 Number     Number       Type             X           Y           Z
 ---------------------------------------------------------------------
      1          1           0        0.000000    0.671622    1.719273
      2          1           0        0.000000    1.343243    0.859636
      3          1           0        0.000000    0.000000    0.859636
      4          1           0        0.000000    0.671622    0.000000
      5          1           0        0.000000    0.000000   -0.859636
      6          1           0       -0.000000   -0.671622   -1.719273
      7          1           0       -0.000000   -0.671622    0.000000
      8          1           0       -0.000000   -1.343243   -0.859636
      9          1           0       -0.000000   -0.671622    1.719273
     10          1           0       -0.000000   -1.343243    0.859636
     11          1           0        0.000000    1.343243   -0.859636
     12          1           0        0.000000    0.671622   -1.719273
 ---------------------------------------------------------------------

 SCF Done:  E(RHF) =  -5.13396431132     A.U. after   14 cycles
 E2 =    -0.2370130472D+00 EUMP2 =    -0.53709773585717D+01

 The electronic state is 1-AG.
 Alpha  occ. eigenvalues --   -0.93995  -0.73453  -0.62399  -0.46499  -0.25394
 Alpha  occ. eigenvalues --   -0.07889
 Alpha virt. eigenvalues --   -0.19900   0.14455   0.20117   0.40025   0.52614
 Alpha virt. eigenvalues --    0.74698

 Mulliken charges:
               1
     1  H    0.097418
     2  H   -0.091874
     3  H   -0.071430
     4  H    0.060341
     5  H   -0.071430
     6  H    0.097418
     7  H    0.060341
     8  H   -0.091874
     9  H    0.097418
    10  H   -0.091874
    11  H   -0.091874
    12  H    0.097418
 Sum of Mulliken charges =   0.00000

 Dipole moment (field-independent basis, Debye):
    X=              0.0000    Y=             -0.0000    Z=              0.0000  Tot=              0.0000
 Quadrupole moment (field-independent basis, Debye-Ang):
   XX=            -14.7184   YY=            -19.7325   ZZ=            -16.1104
   XY=             -0.0000   XZ=              0.0000   YZ=              0.0000

 Normal termination of Gaussian 09 at Fri Feb 17 15:17:00 2017.
