 Gaussian 09, Revision E.01,
 Gaussian 09:  ES64L-G09RevE.01 30-Nov-2015

 ----------------------------------------------------------------------
 #rhf/gen scf(symm,tight,novaracc,noincfock,fulldiag) stable(crhf) gues
 s=read geom=nocrowd test
 ----------------------------------------------------------------------

 hf stability analysis of h10 triangular lattice, y= 0.2662511995880488
 8
 ----------------------------------------------------------------------
 Symbolic Z-matrix:
 Charge =  0 Multiplicity = 1

                         Standard orientation:
 ---------------------------------------------------------------------
 Center     Atomic      Atomic             Coordinates (Angstroms)
 Number     Number       Type             X           Y           Z
 ---------------------------------------------------------------------
      1          1           0        0.000000    0.532502    2.168442
      2          1           0       -0.000000    0.266251    4.336884
      3          1           0        0.000000    0.266251    0.000000
      4          1           0       -0.000000    0.000000    2.168442
      5          1           0       -0.000000   -0.266251    0.000000
      6          1           0       -0.000000   -0.532502   -2.168442
      7          1           0        0.000000    0.000000   -2.168442
      8          1           0       -0.000000   -0.266251   -4.336884
      9          1           0        0.000000    0.532502   -2.168442
     10          1           0        0.000000    0.266251   -4.336884
     11          1           0       -0.000000   -0.266251    4.336884
     12          1           0       -0.000000   -0.532502    2.168442
 ---------------------------------------------------------------------

 SCF Done:  E(RHF) =  -3.04720102523     A.U. after   12 cycles
 E2 =    -0.3298867222D+01 EUMP2 =    -0.63460682474410D+01

 The electronic state is 1-AG.
 Alpha  occ. eigenvalues --   -0.89885  -0.89409  -0.68734  -0.51611  -0.16134
 Alpha  occ. eigenvalues --    0.33939
 Alpha virt. eigenvalues --   -0.45522  -0.03537   0.40405   0.61071   1.32941
 Alpha virt. eigenvalues --    1.33206

 Mulliken charges:
               1
     1  H    0.261614
     2  H    0.007450
     3  H   -0.033318
     4  H   -0.504811
     5  H   -0.033318
     6  H    0.261614
     7  H   -0.504811
     8  H    0.007450
     9  H    0.261614
    10  H    0.007450
    11  H    0.007450
    12  H    0.261614
 Sum of Mulliken charges =  -0.00000

 Dipole moment (field-independent basis, Debye):
    X=             -0.0000    Y=             -0.0000    Z=             -0.0000  Tot=              0.0000
 Quadrupole moment (field-independent basis, Debye-Ang):
   XX=            -14.5256   YY=            -18.4785   ZZ=            -12.8861
   XY=             -0.0000   XZ=              0.0000   YZ=             -0.0000

 Normal termination of Gaussian 09 at Fri Feb 17 15:15:20 2017.
