 Gaussian 09, Revision E.01,
 Gaussian 09:  ES64L-G09RevE.01 30-Nov-2015

 ----------------------------------------------------------------------
 #rhf/gen scf(symm,tight,novaracc,noincfock,fulldiag) stable(crhf) gues
 s=read geom=nocrowd test
 ----------------------------------------------------------------------

 ----------------------------------------------------------------------
 hf stability analysis of h10 triangular lattice, y= 1.0000000336490449
 ----------------------------------------------------------------------
 Symbolic Z-matrix:
 Charge =  0 Multiplicity = 1

                         Standard orientation:
 ---------------------------------------------------------------------
 Center     Atomic      Atomic             Coordinates (Angstroms)
 Number     Number       Type             X           Y           Z
 ---------------------------------------------------------------------
      1          1           0        0.000000    0.577350    2.000000
      2          1           0        0.000000    1.154701    1.000000
      3          1           0        0.000000    0.000000    1.000000
      4          1           0       -0.000000    0.577350    0.000000
      5          1           0        0.000000   -0.000000   -1.000000
      6          1           0       -0.000000   -0.577350   -2.000000
      7          1           0       -0.000000   -0.577350    0.000000
      8          1           0       -0.000000   -1.154701   -1.000000
      9          1           0       -0.000000   -0.577350    2.000000
     10          1           0       -0.000000   -1.154701    1.000000
     11          1           0        0.000000    1.154701   -1.000000
     12          1           0        0.000000    0.577350   -2.000000
 ---------------------------------------------------------------------

 SCF Done:  E(RHF) =  -5.26615215666     A.U. after   13 cycles
 E2 =    -0.1936622814D+00 EUMP2 =    -0.54598144380907D+01

 The electronic state is 1-AG.
 Alpha  occ. eigenvalues --   -0.91694  -0.75591  -0.55315  -0.53324  -0.24645
 Alpha  occ. eigenvalues --   -0.11781
 Alpha virt. eigenvalues --   -0.17791   0.17792   0.27774   0.39950   0.46686
 Alpha virt. eigenvalues --    0.63676

 Mulliken charges:
               1
     1  H    0.041974
     2  H   -0.029961
     3  H   -0.141088
     4  H    0.117063
     5  H   -0.141088
     6  H    0.041974
     7  H    0.117063
     8  H   -0.029961
     9  H    0.041974
    10  H   -0.029961
    11  H   -0.029961
    12  H    0.041974
 Sum of Mulliken charges =  -0.00000

 Dipole moment (field-independent basis, Debye):
    X=             -0.0000    Y=             -0.0000    Z=             -0.0000  Tot=              0.0000
 Quadrupole moment (field-independent basis, Debye-Ang):
   XX=            -14.8530   YY=            -17.7018   ZZ=            -18.2639
   XY=             -0.0000   XZ=              0.0000   YZ=              0.0000

 Normal termination of Gaussian 09 at Fri Feb 17 15:17:18 2017.
