 Gaussian 09, Revision E.01,
 Gaussian 09:  ES64L-G09RevE.01 30-Nov-2015

 ----------------------------------------------------------------------
 #rhf/gen scf(symm,tight,novaracc,noincfock,fulldiag) stable(crhf) gues
 s=read geom=nocrowd test
 ----------------------------------------------------------------------

 hf stability analysis of h10 triangular lattice, y= 0.4331194750473593
 1
 ----------------------------------------------------------------------
 Symbolic Z-matrix:
 Charge =  0 Multiplicity = 1

                         Standard orientation:
 ---------------------------------------------------------------------
 Center     Atomic      Atomic             Coordinates (Angstroms)
 Number     Number       Type             X           Y           Z
 ---------------------------------------------------------------------
      1          1           0       -0.000000    0.866239    1.333005
      2          1           0       -0.000000    0.433119    2.666009
      3          1           0        0.000000    0.433119   -0.000000
      4          1           0       -0.000000    0.000000    1.333005
      5          1           0       -0.000000   -0.433119   -0.000000
      6          1           0       -0.000000   -0.866239   -1.333005
      7          1           0        0.000000    0.000000   -1.333005
      8          1           0       -0.000000   -0.433119   -2.666009
      9          1           0        0.000000    0.866239   -1.333005
     10          1           0        0.000000    0.433119   -2.666009
     11          1           0       -0.000000   -0.433119    2.666009
     12          1           0       -0.000000   -0.866239    1.333005
 ---------------------------------------------------------------------

 SCF Done:  E(RHF) =  -4.68667958488     A.U. after   11 cycles
 E2 =    -0.7885312364D+00 EUMP2 =    -0.54752108212674D+01

 The electronic state is 1-AG.
 Alpha  occ. eigenvalues --   -0.83534  -0.77764  -0.52764  -0.37727  -0.24073
 Alpha  occ. eigenvalues --    0.10624
 Alpha virt. eigenvalues --   -0.26329  -0.14749   0.32863   0.53860   0.59519
 Alpha virt. eigenvalues --    0.63355

 Mulliken charges:
               1
     1  H    0.248536
     2  H   -0.037906
     3  H   -0.359121
     4  H   -0.062138
     5  H   -0.359121
     6  H    0.248536
     7  H   -0.062138
     8  H   -0.037906
     9  H    0.248536
    10  H   -0.037906
    11  H   -0.037906
    12  H    0.248536
 Sum of Mulliken charges =  -0.00000

 Dipole moment (field-independent basis, Debye):
    X=             -0.0000    Y=              0.0000    Z=             -0.0000  Tot=              0.0000
 Quadrupole moment (field-independent basis, Debye-Ang):
   XX=            -14.5818   YY=            -15.1115   ZZ=            -16.8186
   XY=             -0.0000   XZ=              0.0000   YZ=             -0.0000

 Normal termination of Gaussian 09 at Fri Feb 17 15:15:44 2017.
