 Gaussian 09, Revision E.01,
 Gaussian 09:  ES64L-G09RevE.01 30-Nov-2015

 ----------------------------------------------------------------------
 #rhf/gen scf(symm,tight,novaracc,noincfock,fulldiag) stable(crhf) gues
 s=read geom=nocrowd test
 ----------------------------------------------------------------------

 hf stability analysis of h10 triangular lattice, y= 0.8914339662136427
 9
 ----------------------------------------------------------------------
 Symbolic Z-matrix:
 Charge =  0 Multiplicity = 1

                         Standard orientation:
 ---------------------------------------------------------------------
 Center     Atomic      Atomic             Coordinates (Angstroms)
 Number     Number       Type             X           Y           Z
 ---------------------------------------------------------------------
      1          1           0        0.000000    0.647665    1.782868
      2          1           0        0.000000    1.295329    0.891434
      3          1           0        0.000000    0.000000    0.891434
      4          1           0        0.000000    0.647665    0.000000
      5          1           0        0.000000    0.000000   -0.891434
      6          1           0       -0.000000   -0.647665   -1.782868
      7          1           0       -0.000000   -0.647665    0.000000
      8          1           0       -0.000000   -1.295329   -0.891434
      9          1           0       -0.000000   -0.647665    1.782868
     10          1           0       -0.000000   -1.295329    0.891434
     11          1           0        0.000000    1.295329   -0.891434
     12          1           0        0.000000    0.647665   -1.782868
 ---------------------------------------------------------------------

 SCF Done:  E(RHF) =  -5.17849002354     A.U. after   13 cycles
 E2 =    -0.2438968855D+00 EUMP2 =    -0.54223869090282D+01

 The electronic state is 1-AG.
 Alpha  occ. eigenvalues --   -0.92825  -0.73243  -0.61166  -0.47788  -0.22332
 Alpha  occ. eigenvalues --   -0.11996
 Alpha virt. eigenvalues --   -0.19290   0.15517   0.21559   0.40533   0.56522
 Alpha virt. eigenvalues --    0.69021

 Mulliken charges:
               1
     1  H    0.057427
     2  H   -0.034567
     3  H   -0.130390
     4  H    0.084671
     5  H   -0.130390
     6  H    0.057427
     7  H    0.084671
     8  H   -0.034567
     9  H    0.057427
    10  H   -0.034567
    11  H   -0.034567
    12  H    0.057427
 Sum of Mulliken charges =  -0.00000

 Dipole moment (field-independent basis, Debye):
    X=             -0.0000    Y=             -0.0000    Z=              0.0000  Tot=              0.0000
 Quadrupole moment (field-independent basis, Debye-Ang):
   XX=            -14.7618   YY=            -17.6768   ZZ=            -17.9885
   XY=             -0.0000   XZ=              0.0000   YZ=             -0.0000

 Normal termination of Gaussian 09 at Fri Feb 17 15:17:05 2017.
