 Gaussian 09, Revision E.01,
 Gaussian 09:  ES64L-G09RevE.01 30-Nov-2015

 ----------------------------------------------------------------------
 #rhf/gen scf(symm,tight,novaracc,noincfock,fulldiag) stable(crhf) gues
 s=read geom=nocrowd test
 ----------------------------------------------------------------------

 hf stability analysis of h10 triangular lattice, y= 0.8753112166669652
 1
 ----------------------------------------------------------------------
 Symbolic Z-matrix:
 Charge =  0 Multiplicity = 1

                         Standard orientation:
 ---------------------------------------------------------------------
 Center     Atomic      Atomic             Coordinates (Angstroms)
 Number     Number       Type             X           Y           Z
 ---------------------------------------------------------------------
      1          1           0        0.000000    0.659594    1.750622
      2          1           0        0.000000    1.319189    0.875311
      3          1           0        0.000000   -0.000000    0.875311
      4          1           0        0.000000    0.659594    0.000000
      5          1           0        0.000000    0.000000   -0.875311
      6          1           0       -0.000000   -0.659594   -1.750622
      7          1           0       -0.000000   -0.659594   -0.000000
      8          1           0       -0.000000   -1.319189   -0.875311
      9          1           0       -0.000000   -0.659594    1.750622
     10          1           0       -0.000000   -1.319189    0.875311
     11          1           0        0.000000    1.319189   -0.875311
     12          1           0        0.000000    0.659594   -1.750622
 ---------------------------------------------------------------------

 SCF Done:  E(RHF) =  -5.15595127401     A.U. after   13 cycles
 E2 =    -0.2359510998D+00 EUMP2 =    -0.53919023738345D+01

 The electronic state is 1-AG.
 Alpha  occ. eigenvalues --   -0.93301  -0.73183  -0.61887  -0.47068  -0.23913
 Alpha  occ. eigenvalues --   -0.09958
 Alpha virt. eigenvalues --   -0.19547   0.15079   0.20817   0.40366   0.54616
 Alpha virt. eigenvalues --    0.72039

 Mulliken charges:
               1
     1  H    0.070370
     2  H   -0.054100
     3  H   -0.106705
     4  H    0.074165
     5  H   -0.106705
     6  H    0.070370
     7  H    0.074165
     8  H   -0.054100
     9  H    0.070370
    10  H   -0.054100
    11  H   -0.054100
    12  H    0.070370
 Sum of Mulliken charges =  -0.00000

 Dipole moment (field-independent basis, Debye):
    X=             -0.0000    Y=              0.0000    Z=              0.0000  Tot=              0.0000
 Quadrupole moment (field-independent basis, Debye-Ang):
   XX=            -14.7416   YY=            -18.3390   ZZ=            -17.4072
   XY=             -0.0000   XZ=              0.0000   YZ=              0.0000

 Normal termination of Gaussian 09 at Fri Feb 17 15:17:02 2017.
