 Gaussian 09, Revision E.01,
 Gaussian 09:  ES64L-G09RevE.01 30-Nov-2015

 ----------------------------------------------------------------------
 #rhf/gen scf(symm,tight,novaracc,noincfock,fulldiag) stable(crhf) gues
 s=read geom=nocrowd test
 ----------------------------------------------------------------------

 hf stability analysis of h10 triangular lattice, y= 0.5423787099077283
 0
 ----------------------------------------------------------------------
 Symbolic Z-matrix:
 Charge =  0 Multiplicity = 1

                         Standard orientation:
 ---------------------------------------------------------------------
 Center     Atomic      Atomic             Coordinates (Angstroms)
 Number     Number       Type             X           Y           Z
 ---------------------------------------------------------------------
      1          1           0        0.000000    1.084757    1.064478
      2          1           0       -0.000000    0.542379    2.128956
      3          1           0        0.000000    0.542379    0.000000
      4          1           0       -0.000000    0.000000    1.064478
      5          1           0       -0.000000   -0.542379   -0.000000
      6          1           0       -0.000000   -1.084757   -1.064478
      7          1           0        0.000000   -0.000000   -1.064478
      8          1           0       -0.000000   -0.542379   -2.128956
      9          1           0        0.000000    1.084757   -1.064478
     10          1           0        0.000000    0.542379   -2.128956
     11          1           0       -0.000000   -0.542379    2.128956
     12          1           0       -0.000000   -1.084757    1.064478
 ---------------------------------------------------------------------

 SCF Done:  E(RHF) =  -4.76798095208     A.U. after   13 cycles
 E2 =    -0.3512888855D+00 EUMP2 =    -0.51192698376088D+01

 The electronic state is 1-AG.
 Alpha  occ. eigenvalues --   -0.89493  -0.76288  -0.51965  -0.51828  -0.05387
 Alpha  occ. eigenvalues --   -0.04275
 Alpha virt. eigenvalues --   -0.19716  -0.04655   0.31054   0.35248   0.39212
 Alpha virt. eigenvalues --    0.64573

 Mulliken charges:
               1
     1  H    0.085970
     2  H   -0.016196
     3  H   -0.209814
     4  H    0.070265
     5  H   -0.209814
     6  H    0.085970
     7  H    0.070265
     8  H   -0.016196
     9  H    0.085970
    10  H   -0.016196
    11  H   -0.016196
    12  H    0.085970
 Sum of Mulliken charges =  -0.00000

 Dipole moment (field-independent basis, Debye):
    X=              0.0000    Y=             -0.0000    Z=             -0.0000  Tot=              0.0000
 Quadrupole moment (field-independent basis, Debye-Ang):
   XX=            -14.6591   YY=            -19.4845   ZZ=            -15.0495
   XY=             -0.0000   XZ=              0.0000   YZ=             -0.0000

 Normal termination of Gaussian 09 at Fri Feb 17 15:16:03 2017.
