 Gaussian 09, Revision E.01,
 Gaussian 09:  ES64L-G09RevE.01 30-Nov-2015

 ----------------------------------------------------------------------
 #rhf/gen scf(symm,tight,novaracc,noincfock,fulldiag) stable(crhf) gues
 s=read geom=nocrowd test
 ----------------------------------------------------------------------

 ----------------------------------------------------------------------
 hf stability analysis of h10 triangular lattice, y= 1.5813852119866876
 ----------------------------------------------------------------------
 Symbolic Z-matrix:
 Charge =  0 Multiplicity = 1

                         Standard orientation:
 ---------------------------------------------------------------------
 Center     Atomic      Atomic             Coordinates (Angstroms)
 Number     Number       Type             X           Y           Z
 ---------------------------------------------------------------------
      1          1           0       -0.000000    0.365092    3.162770
      2          1           0       -0.000000    0.730183    1.581385
      3          1           0       -0.000000    0.000000    1.581385
      4          1           0        0.000000    0.365092   -0.000000
      5          1           0        0.000000   -0.000000   -1.581385
      6          1           0       -0.000000   -0.365092   -3.162770
      7          1           0       -0.000000   -0.365092    0.000000
      8          1           0       -0.000000   -0.730183   -1.581385
      9          1           0       -0.000000   -0.365092    3.162770
     10          1           0       -0.000000   -0.730183    1.581385
     11          1           0        0.000000    0.730183   -1.581385
     12          1           0        0.000000    0.365092   -3.162770
 ---------------------------------------------------------------------

 SCF Done:  E(RHF) =  -5.96582524226     A.U. after    7 cycles
 E2 =    -0.1291863133D+00 EUMP2 =    -0.60950115555986D+01

 The electronic state is 1-AG.
 Alpha  occ. eigenvalues --   -0.84605  -0.81330  -0.64128  -0.59300  -0.50640
 Alpha  occ. eigenvalues --   -0.28821
 Alpha virt. eigenvalues --   -0.09512   0.41227   0.46443   0.58885   0.80313
 Alpha virt. eigenvalues --    0.83193

 Mulliken charges:
               1
     1  H   -0.015386
     2  H    0.172152
     3  H   -0.231080
     4  H   -0.082452
     5  H   -0.231080
     6  H   -0.015386
     7  H   -0.082452
     8  H    0.172152
     9  H   -0.015386
    10  H    0.172152
    11  H    0.172152
    12  H   -0.015386
 Sum of Mulliken charges =   0.00000

 Dipole moment (field-independent basis, Debye):
    X=             -0.0000    Y=              0.0000    Z=              0.0000  Tot=              0.0000
 Quadrupole moment (field-independent basis, Debye-Ang):
   XX=            -15.2784   YY=            -14.2997   ZZ=            -20.7473
   XY=              0.0000   XZ=              0.0000   YZ=              0.0000

 Normal termination of Gaussian 09 at Fri Feb 17 15:17:56 2017.
