 Gaussian 09, Revision E.01,
 Gaussian 09:  ES64L-G09RevE.01 30-Nov-2015

 ----------------------------------------------------------------------
 #rhf/gen scf(symm,tight,novaracc,noincfock,fulldiag) stable(crhf) gues
 s=read geom=nocrowd test
 ----------------------------------------------------------------------

 hf stability analysis of h10 triangular lattice, y= 0.3650915174764740
 0
 ----------------------------------------------------------------------
 Symbolic Z-matrix:
 Charge =  0 Multiplicity = 1

                         Standard orientation:
 ---------------------------------------------------------------------
 Center     Atomic      Atomic             Coordinates (Angstroms)
 Number     Number       Type             X           Y           Z
 ---------------------------------------------------------------------
      1          1           0        0.000000    0.730183    1.581385
      2          1           0        0.000000    0.365092    3.162770
      3          1           0        0.000000    0.365092   -0.000000
      4          1           0        0.000000    0.000000    1.581385
      5          1           0       -0.000000   -0.365092    0.000000
      6          1           0       -0.000000   -0.730183   -1.581385
      7          1           0        0.000000   -0.000000   -1.581385
      8          1           0       -0.000000   -0.365092   -3.162770
      9          1           0        0.000000    0.730183   -1.581385
     10          1           0        0.000000    0.365092   -3.162770
     11          1           0       -0.000000   -0.365092    3.162770
     12          1           0       -0.000000   -0.730183    1.581385
 ---------------------------------------------------------------------

 SCF Done:  E(RHF) =  -4.39716813244     A.U. after   12 cycles
 E2 =    -0.1408731213D+01 EUMP2 =    -0.58058993452876D+01

 The electronic state is 1-AG.
 Alpha  occ. eigenvalues --   -0.83896  -0.80760  -0.55634  -0.41417  -0.29486
 Alpha  occ. eigenvalues --    0.18845
 Alpha virt. eigenvalues --   -0.36897  -0.10726   0.32352   0.59115   0.78798
 Alpha virt. eigenvalues --    0.81628

 Mulliken charges:
               1
     1  H    0.208337
     2  H    0.000492
     3  H   -0.215883
     4  H   -0.201775
     5  H   -0.215883
     6  H    0.208337
     7  H   -0.201775
     8  H    0.000492
     9  H    0.208337
    10  H    0.000492
    11  H    0.000492
    12  H    0.208337
 Sum of Mulliken charges =  -0.00000

 Dipole moment (field-independent basis, Debye):
    X=             -0.0000    Y=             -0.0000    Z=             -0.0000  Tot=              0.0000
 Quadrupole moment (field-independent basis, Debye-Ang):
   XX=            -14.6340   YY=            -16.9425   ZZ=            -12.7617
   XY=             -0.0000   XZ=              0.0000   YZ=              0.0000

 Normal termination of Gaussian 09 at Fri Feb 17 15:15:33 2017.
