 Gaussian 09, Revision E.01,
 Gaussian 09:  ES64L-G09RevE.01 30-Nov-2015

 ----------------------------------------------------------------------
 #rhf/gen scf(symm,tight,novaracc,noincfock,fulldiag) stable(crhf) gues
 s=read geom=nocrowd test
 ----------------------------------------------------------------------

 hf stability analysis of h10 triangular lattice, y= 0.5070038553873883
 5
 ----------------------------------------------------------------------
 Symbolic Z-matrix:
 Charge =  0 Multiplicity = 1

                         Standard orientation:
 ---------------------------------------------------------------------
 Center     Atomic      Atomic             Coordinates (Angstroms)
 Number     Number       Type             X           Y           Z
 ---------------------------------------------------------------------
      1          1           0       -0.000000    1.014008    1.138749
      2          1           0       -0.000000    0.507004    2.277499
      3          1           0       -0.000000    0.507004    0.000000
      4          1           0       -0.000000    0.000000    1.138749
      5          1           0       -0.000000   -0.507004    0.000000
      6          1           0       -0.000000   -1.014008   -1.138749
      7          1           0        0.000000    0.000000   -1.138749
      8          1           0       -0.000000   -0.507004   -2.277499
      9          1           0        0.000000    1.014008   -1.138749
     10          1           0        0.000000    0.507004   -2.277499
     11          1           0       -0.000000   -0.507004    2.277499
     12          1           0       -0.000000   -1.014008    1.138749
 ---------------------------------------------------------------------

 SCF Done:  E(RHF) =  -4.66818979070     A.U. after   13 cycles
 E2 =    -0.5783922871D+00 EUMP2 =    -0.52465820777638D+01

 The electronic state is 1-AG.
 Alpha  occ. eigenvalues --   -0.85989  -0.76422  -0.51517  -0.46019  -0.04698
 Alpha  occ. eigenvalues --    0.01896
 Alpha virt. eigenvalues --   -0.18234  -0.13126   0.34519   0.35415   0.41624
 Alpha virt. eigenvalues --    0.66522

 Mulliken charges:
               1
     1  H    0.185462
     2  H   -0.054681
     3  H   -0.381644
     4  H    0.120081
     5  H   -0.381644
     6  H    0.185462
     7  H    0.120081
     8  H   -0.054681
     9  H    0.185462
    10  H   -0.054681
    11  H   -0.054681
    12  H    0.185462
 Sum of Mulliken charges =  -0.00000

 Dipole moment (field-independent basis, Debye):
    X=              0.0000    Y=             -0.0000    Z=             -0.0000  Tot=              0.0000
 Quadrupole moment (field-independent basis, Debye-Ang):
   XX=            -14.4900   YY=            -15.4895   ZZ=            -18.5766
   XY=             -0.0000   XZ=              0.0000   YZ=             -0.0000

 Normal termination of Gaussian 09 at Fri Feb 17 15:15:57 2017.
