 Gaussian 09, Revision E.01,
 Gaussian 09:  ES64L-G09RevE.01 30-Nov-2015

 ----------------------------------------------------------------------
 #rhf/gen scf(symm,tight,novaracc,noincfock,fulldiag) stable(crhf) gues
 s=read geom=nocrowd test
 ----------------------------------------------------------------------

 hf stability analysis of h10 triangular lattice, y= 0.5773502789032680
 7
 ----------------------------------------------------------------------
 Symbolic Z-matrix:
 Charge =  0 Multiplicity = 1

                         Standard orientation:
 ---------------------------------------------------------------------
 Center     Atomic      Atomic             Coordinates (Angstroms)
 Number     Number       Type             X           Y           Z
 ---------------------------------------------------------------------
      1          1           0        0.000000    1.154701    1.000000
      2          1           0        0.000000    0.577350    2.000000
      3          1           0        0.000000    0.577350    0.000000
      4          1           0       -0.000000    0.000000    1.000000
      5          1           0       -0.000000   -0.577350    0.000000
      6          1           0       -0.000000   -1.154701   -1.000000
      7          1           0        0.000000   -0.000000   -1.000000
      8          1           0       -0.000000   -0.577350   -2.000000
      9          1           0        0.000000    1.154701   -1.000000
     10          1           0        0.000000    0.577350   -2.000000
     11          1           0       -0.000000   -0.577350    2.000000
     12          1           0       -0.000000   -1.154701    1.000000
 ---------------------------------------------------------------------

 SCF Done:  E(RHF) =  -4.93272684865     A.U. after   12 cycles
 E2 =     0.2003448367D+00 EUMP2 =    -0.47323820119668D+01

 The electronic state is 1-AG.
 Alpha  occ. eigenvalues --   -0.89866  -0.74617  -0.55674  -0.49431  -0.11197
 Alpha  occ. eigenvalues --   -0.06419
 Alpha virt. eigenvalues --   -0.20679   0.02701   0.26807   0.37139   0.51023
 Alpha virt. eigenvalues --    0.64149

 Mulliken charges:
               1
     1  H    0.126175
     2  H   -0.030075
     3  H   -0.214473
     4  H    0.022273
     5  H   -0.214473
     6  H    0.126175
     7  H    0.022273
     8  H   -0.030075
     9  H    0.126175
    10  H   -0.030075
    11  H   -0.030075
    12  H    0.126175
 Sum of Mulliken charges =   0.00000

 Dipole moment (field-independent basis, Debye):
    X=             -0.0000    Y=             -0.0000    Z=              0.0000  Tot=              0.0000
 Quadrupole moment (field-independent basis, Debye-Ang):
   XX=            -14.6835   YY=            -18.3446   ZZ=            -16.1049
   XY=             -0.0000   XZ=              0.0000   YZ=              0.0000

 Normal termination of Gaussian 09 at Fri Feb 17 15:16:10 2017.
