 Gaussian 09, Revision E.01,
 Gaussian 09:  ES64L-G09RevE.01 30-Nov-2015

 ----------------------------------------------------------------------
 #rhf/gen scf(symm,tight,novaracc,noincfock,fulldiag) stable(crhf) gues
 s=read geom=nocrowd test
 ----------------------------------------------------------------------

 hf stability analysis of h10 triangular lattice, y= 0.6960275979088506
 0
 ----------------------------------------------------------------------
 Symbolic Z-matrix:
 Charge =  0 Multiplicity = 1

                         Standard orientation:
 ---------------------------------------------------------------------
 Center     Atomic      Atomic             Coordinates (Angstroms)
 Number     Number       Type             X           Y           Z
 ---------------------------------------------------------------------
      1          1           0        0.000000    1.392055    0.829493
      2          1           0        0.000000    0.696028    1.658987
      3          1           0       -0.000000    0.696028   -0.000000
      4          1           0        0.000000    0.000000    0.829493
      5          1           0       -0.000000   -0.696028    0.000000
      6          1           0       -0.000000   -1.392055   -0.829493
      7          1           0        0.000000    0.000000   -0.829493
      8          1           0       -0.000000   -0.696028   -1.658987
      9          1           0        0.000000    1.392055   -0.829493
     10          1           0        0.000000    0.696028   -1.658987
     11          1           0       -0.000000   -0.696028    1.658987
     12          1           0       -0.000000   -1.392055    0.829493
 ---------------------------------------------------------------------

 SCF Done:  E(RHF) =  -5.20686950430     A.U. after   12 cycles
 E2 =    -0.2745052408D+00 EUMP2 =    -0.54813747451301D+01

 The electronic state is 1-AG.
 Alpha  occ. eigenvalues --   -0.90895  -0.69059  -0.65053  -0.40404  -0.28372
 Alpha  occ. eigenvalues --   -0.08846
 Alpha virt. eigenvalues --   -0.22455   0.16599   0.28034   0.41652   0.48987
 Alpha virt. eigenvalues --    0.85350

 Mulliken charges:
               1
     1  H    0.190681
     2  H   -0.084816
     3  H   -0.239192
     4  H    0.027463
     5  H   -0.239192
     6  H    0.190681
     7  H    0.027463
     8  H   -0.084816
     9  H    0.190681
    10  H   -0.084816
    11  H   -0.084816
    12  H    0.190681
 Sum of Mulliken charges =   0.00000

 Dipole moment (field-independent basis, Debye):
    X=             -0.0000    Y=             -0.0000    Z=              0.0000  Tot=              0.0000
 Quadrupole moment (field-independent basis, Debye-Ang):
   XX=            -14.6944   YY=            -13.9798   ZZ=            -20.0459
   XY=              0.0000   XZ=              0.0000   YZ=             -0.0000

 Normal termination of Gaussian 09 at Fri Feb 17 15:16:32 2017.
