 Gaussian 09, Revision E.01,
 Gaussian 09:  ES64L-G09RevE.01 30-Nov-2015

 ----------------------------------------------------------------------
 #rhf/gen scf(symm,tight,novaracc,noincfock,fulldiag) stable(crhf) gues
 s=read geom=nocrowd test
 ----------------------------------------------------------------------

 hf stability analysis of h10 triangular lattice, y= 0.4707695940863088
 6
 ----------------------------------------------------------------------
 Symbolic Z-matrix:
 Charge =  0 Multiplicity = 1

                         Standard orientation:
 ---------------------------------------------------------------------
 Center     Atomic      Atomic             Coordinates (Angstroms)
 Number     Number       Type             X           Y           Z
 ---------------------------------------------------------------------
      1          1           0        0.000000    0.941539    1.226397
      2          1           0        0.000000    0.470770    2.452793
      3          1           0       -0.000000    0.470770   -0.000000
      4          1           0       -0.000000    0.000000    1.226397
      5          1           0       -0.000000   -0.470770    0.000000
      6          1           0       -0.000000   -0.941539   -1.226397
      7          1           0        0.000000   -0.000000   -1.226397
      8          1           0       -0.000000   -0.470770   -2.452793
      9          1           0        0.000000    0.941539   -1.226397
     10          1           0        0.000000    0.470770   -2.452793
     11          1           0       -0.000000   -0.470770    2.452793
     12          1           0       -0.000000   -0.941539    1.226397
 ---------------------------------------------------------------------

 SCF Done:  E(RHF) =  -4.70269048600     A.U. after   13 cycles
 E2 =    -0.9236874697D+00 EUMP2 =    -0.56263779556824D+01

 The electronic state is 1-AG.
 Alpha  occ. eigenvalues --   -0.83892  -0.76494  -0.51615  -0.41810  -0.13455
 Alpha  occ. eigenvalues --    0.06456
 Alpha virt. eigenvalues --   -0.19544  -0.16519   0.33912   0.43345   0.50468
 Alpha virt. eigenvalues --    0.66054

 Mulliken charges:
               1
     1  H    0.254530
     2  H   -0.057361
     3  H   -0.409913
     4  H    0.015575
     5  H   -0.409913
     6  H    0.254530
     7  H    0.015575
     8  H   -0.057361
     9  H    0.254530
    10  H   -0.057361
    11  H   -0.057361
    12  H    0.254530
 Sum of Mulliken charges =   0.00000

 Dipole moment (field-independent basis, Debye):
    X=             -0.0000    Y=             -0.0000    Z=             -0.0000  Tot=              0.0000
 Quadrupole moment (field-independent basis, Debye-Ang):
   XX=            -14.5113   YY=            -14.2401   ZZ=            -18.6640
   XY=             -0.0000   XZ=              0.0000   YZ=              0.0000

 Normal termination of Gaussian 09 at Fri Feb 17 15:15:50 2017.
