 Gaussian 09, Revision E.01,
 Gaussian 09:  ES64L-G09RevE.01 30-Nov-2015

 ----------------------------------------------------------------------
 #rhf/gen scf(symm,tight,novaracc,noincfock,fulldiag) stable(crhf) gues
 s=read geom=nocrowd test
 ----------------------------------------------------------------------

 hf stability analysis of h10 triangular lattice, y= 0.2247478695127229
 1
 ----------------------------------------------------------------------
 Symbolic Z-matrix:
 Charge =  0 Multiplicity = 1

                         Standard orientation:
 ---------------------------------------------------------------------
 Center     Atomic      Atomic             Coordinates (Angstroms)
 Number     Number       Type             X           Y           Z
 ---------------------------------------------------------------------
      1          1           0        0.000000    0.449496    2.568880
      2          1           0        0.000000    0.224748    5.137760
      3          1           0        0.000000    0.224748    0.000000
      4          1           0        0.000000   -0.000000    2.568880
      5          1           0       -0.000000   -0.224748   -0.000000
      6          1           0       -0.000000   -0.449496   -2.568880
      7          1           0        0.000000    0.000000   -2.568880
      8          1           0       -0.000000   -0.224748   -5.137760
      9          1           0        0.000000    0.449496   -2.568880
     10          1           0        0.000000    0.224748   -5.137760
     11          1           0       -0.000000   -0.224748    5.137760
     12          1           0       -0.000000   -0.449496    2.568880
 ---------------------------------------------------------------------

 SCF Done:  E(RHF) =  -1.87743904986     A.U. after   13 cycles
 E2 =    -0.4315433387D+01 EUMP2 =    -0.61928724370024D+01

 The electronic state is 1-AG.
 Alpha  occ. eigenvalues --   -0.95675  -0.95422  -0.73355  -0.53418  -0.10079
 Alpha  occ. eigenvalues --    0.42577
 Alpha virt. eigenvalues --   -0.48265   0.00246   0.47772   0.67216   1.66719
 Alpha virt. eigenvalues --    1.66755

 Mulliken charges:
               1
     1  H    0.385068
     2  H    0.002048
     3  H   -0.007464
     4  H   -0.766767
     5  H   -0.007464
     6  H    0.385068
     7  H   -0.766767
     8  H    0.002048
     9  H    0.385068
    10  H    0.002048
    11  H    0.002048
    12  H    0.385068
 Sum of Mulliken charges =  -0.00000

 Dipole moment (field-independent basis, Debye):
    X=             -0.0000    Y=             -0.0000    Z=             -0.0000  Tot=              0.0000
 Quadrupole moment (field-independent basis, Debye-Ang):
   XX=            -14.4519   YY=            -18.8421   ZZ=            -14.2346
   XY=             -0.0000   XZ=              0.0000   YZ=              0.0000

 Normal termination of Gaussian 09 at Fri Feb 17 15:15:16 2017.
