 Gaussian 09, Revision E.01,
 Gaussian 09:  ES64L-G09RevE.01 30-Nov-2015

 ----------------------------------------------------------------------
 #rhf/gen scf(symm,tight,novaracc,noincfock,fulldiag) stable(crhf) gues
 s=read geom=nocrowd test
 ----------------------------------------------------------------------

 hf stability analysis of h10 triangular lattice, y= 0.8149635215757493
 6
 ----------------------------------------------------------------------
 Symbolic Z-matrix:
 Charge =  0 Multiplicity = 1

                         Standard orientation:
 ---------------------------------------------------------------------
 Center     Atomic      Atomic             Coordinates (Angstroms)
 Number     Number       Type             X           Y           Z
 ---------------------------------------------------------------------
      1          1           0        0.000000    0.708437    1.629927
      2          1           0        0.000000    1.416874    0.814964
      3          1           0        0.000000    0.000000    0.814964
      4          1           0       -0.000000    0.708437   -0.000000
      5          1           0        0.000000   -0.000000   -0.814964
      6          1           0       -0.000000   -0.708437   -1.629927
      7          1           0       -0.000000   -0.708437    0.000000
      8          1           0       -0.000000   -1.416874   -0.814964
      9          1           0       -0.000000   -0.708437    1.629927
     10          1           0       -0.000000   -1.416874    0.814964
     11          1           0        0.000000    1.416874   -0.814964
     12          1           0        0.000000    0.708437   -1.629927
 ---------------------------------------------------------------------

 SCF Done:  E(RHF) =  -5.16727804494     A.U. after   19 cycles
 E2 =    -0.2283262076D+00 EUMP2 =    -0.53956042525394D+01

 The electronic state is 1-AG.
 Alpha  occ. eigenvalues --   -0.91209  -0.71356  -0.62398  -0.40741  -0.29907
 Alpha  occ. eigenvalues --   -0.06442
 Alpha virt. eigenvalues --   -0.21901   0.14086   0.27077   0.42037   0.48837
 Alpha virt. eigenvalues --    0.86696

 Mulliken charges:
               1
     1  H    0.221716
     2  H   -0.153050
     3  H   -0.192711
     4  H    0.055379
     5  H   -0.192711
     6  H    0.221716
     7  H    0.055379
     8  H   -0.153050
     9  H    0.221716
    10  H   -0.153050
    11  H   -0.153050
    12  H    0.221716
 Sum of Mulliken charges =   0.00000

 Dipole moment (field-independent basis, Debye):
    X=              0.0000    Y=             -0.0000    Z=              0.0000  Tot=              0.0000
 Quadrupole moment (field-independent basis, Debye-Ang):
   XX=            -14.6734   YY=            -23.2751   ZZ=             -9.4700
   XY=             -0.0000   XZ=             -0.0000   YZ=              0.0000

 Normal termination of Gaussian 09 at Fri Feb 17 15:16:52 2017.
