 Gaussian 09, Revision E.01,
 Gaussian 09:  ES64L-G09RevE.01 30-Nov-2015

 ----------------------------------------------------------------------
 #rhf/gen scf(symm,tight,novaracc,noincfock,fulldiag) stable(crhf) gues
 s=read geom=nocrowd test
 ----------------------------------------------------------------------

 hf stability analysis of h10 triangular lattice, y= 0.4458672966047664
 3
 ----------------------------------------------------------------------
 Symbolic Z-matrix:
 Charge =  0 Multiplicity = 1

                         Standard orientation:
 ---------------------------------------------------------------------
 Center     Atomic      Atomic             Coordinates (Angstroms)
 Number     Number       Type             X           Y           Z
 ---------------------------------------------------------------------
      1          1           0       -0.000000    0.891735    1.294893
      2          1           0        0.000000    0.445867    2.589785
      3          1           0       -0.000000    0.445867   -0.000000
      4          1           0        0.000000    0.000000    1.294893
      5          1           0       -0.000000   -0.445867    0.000000
      6          1           0       -0.000000   -0.891735   -1.294893
      7          1           0        0.000000   -0.000000   -1.294893
      8          1           0       -0.000000   -0.445867   -2.589785
      9          1           0        0.000000    0.891735   -1.294893
     10          1           0        0.000000    0.445867   -2.589785
     11          1           0       -0.000000   -0.445867    2.589785
     12          1           0       -0.000000   -0.891735    1.294893
 ---------------------------------------------------------------------

 SCF Done:  E(RHF) =  -4.70172325640     A.U. after   12 cycles
 E2 =     0.1408189713D+01 EUMP2 =    -0.32935335438576D+01

 The electronic state is 1-AG.
 Alpha  occ. eigenvalues --   -0.83591  -0.77291  -0.52353  -0.39135  -0.20483
 Alpha  occ. eigenvalues --    0.09184
 Alpha virt. eigenvalues --   -0.24060  -0.15373   0.33195   0.50070   0.56275
 Alpha virt. eigenvalues --    0.64329

 Mulliken charges:
               1
     1  H    0.253522
     2  H   -0.045132
     3  H   -0.379468
     4  H   -0.037310
     5  H   -0.379468
     6  H    0.253522
     7  H   -0.037310
     8  H   -0.045132
     9  H    0.253522
    10  H   -0.045132
    11  H   -0.045132
    12  H    0.253522
 Sum of Mulliken charges =  -0.00000

 Dipole moment (field-independent basis, Debye):
    X=             -0.0000    Y=              0.0000    Z=             -0.0000  Tot=              0.0000
 Quadrupole moment (field-independent basis, Debye-Ang):
   XX=            -14.5592   YY=            -14.7627   ZZ=            -17.5192
   XY=             -0.0000   XZ=              0.0000   YZ=             -0.0000

 Normal termination of Gaussian 09 at Fri Feb 17 15:15:46 2017.
