 Gaussian 09, Revision E.01,
 Gaussian 09:  ES64L-G09RevE.01 30-Nov-2015

 ----------------------------------------------------------------------
 #rhf/gen scf(symm,tight,novaracc,noincfock,fulldiag) stable(crhf) gues
 s=read geom=nocrowd test
 ----------------------------------------------------------------------

 hf stability analysis of h10 triangular lattice, y= 0.9251794552834028
 4
 ----------------------------------------------------------------------
 Symbolic Z-matrix:
 Charge =  0 Multiplicity = 1

                         Standard orientation:
 ---------------------------------------------------------------------
 Center     Atomic      Atomic             Coordinates (Angstroms)
 Number     Number       Type             X           Y           Z
 ---------------------------------------------------------------------
      1          1           0        0.000000    0.624041    1.850359
      2          1           0        0.000000    1.248083    0.925179
      3          1           0        0.000000    0.000000    0.925179
      4          1           0       -0.000000    0.624041    0.000000
      5          1           0        0.000000   -0.000000   -0.925179
      6          1           0       -0.000000   -0.624041   -1.850359
      7          1           0       -0.000000   -0.624041    0.000000
      8          1           0       -0.000000   -1.248083   -0.925179
      9          1           0       -0.000000   -0.624041    1.850359
     10          1           0       -0.000000   -1.248083    0.925179
     11          1           0        0.000000    1.248083   -0.925179
     12          1           0        0.000000    0.624041   -1.850359
 ---------------------------------------------------------------------

 SCF Done:  E(RHF) =  -5.21865538601     A.U. after   13 cycles
 E2 =    -0.1073332339D+01 EUMP2 =    -0.62919877252556D+01

 The electronic state is 1-AG.
 Alpha  occ. eigenvalues --   -0.92231  -0.73797  -0.59447  -0.49482  -0.18967
 Alpha  occ. eigenvalues --   -0.16122
 Alpha virt. eigenvalues --   -0.18819   0.16225   0.23265   0.40548   0.59796
 Alpha virt. eigenvalues --    0.62148

 Mulliken charges:
               1
     1  H    0.046683
     2  H   -0.018951
     3  H   -0.155722
     4  H    0.100257
     5  H   -0.155722
     6  H    0.046683
     7  H    0.100257
     8  H   -0.018951
     9  H    0.046683
    10  H   -0.018951
    11  H   -0.018951
    12  H    0.046683
 Sum of Mulliken charges =  -0.00000

 Dipole moment (field-independent basis, Debye):
    X=             -0.0000    Y=             -0.0000    Z=             -0.0000  Tot=              0.0000
 Quadrupole moment (field-independent basis, Debye-Ang):
   XX=            -14.7973   YY=            -17.2527   ZZ=            -18.3702
   XY=             -0.0000   XZ=              0.0000   YZ=              0.0000

 Normal termination of Gaussian 09 at Fri Feb 17 15:17:09 2017.
