 Gaussian 09, Revision E.01,
 Gaussian 09:  ES64L-G09RevE.01 30-Nov-2015

 ----------------------------------------------------------------------
 #rhf/gen scf(symm,tight,novaracc,noincfock,fulldiag) stable(crhf) gues
 s=read geom=nocrowd test
 ----------------------------------------------------------------------

 hf stability analysis of h10 triangular lattice, y= 0.6358183901871248
 3
 ----------------------------------------------------------------------
 Symbolic Z-matrix:
 Charge =  0 Multiplicity = 1

                         Standard orientation:
 ---------------------------------------------------------------------
 Center     Atomic      Atomic             Coordinates (Angstroms)
 Number     Number       Type             X           Y           Z
 ---------------------------------------------------------------------
      1          1           0       -0.000000    1.271637    0.908043
      2          1           0       -0.000000    0.635818    1.816085
      3          1           0       -0.000000    0.635818    0.000000
      4          1           0       -0.000000   -0.000000    0.908043
      5          1           0       -0.000000   -0.635818   -0.000000
      6          1           0       -0.000000   -1.271637   -0.908043
      7          1           0        0.000000    0.000000   -0.908043
      8          1           0       -0.000000   -0.635818   -1.816085
      9          1           0        0.000000    1.271637   -0.908043
     10          1           0        0.000000    0.635818   -1.816085
     11          1           0       -0.000000   -0.635818    1.816085
     12          1           0       -0.000000   -1.271637    0.908043
 ---------------------------------------------------------------------

 SCF Done:  E(RHF) =  -5.11947343519     A.U. after   11 cycles
 E2 =    -0.2569100975D+00 EUMP2 =    -0.53763835326609D+01

 The electronic state is 1-AG.
 Alpha  occ. eigenvalues --   -0.90507  -0.72039  -0.60772  -0.45170  -0.20428
 Alpha  occ. eigenvalues --   -0.08346
 Alpha virt. eigenvalues --   -0.21889   0.13347   0.22777   0.39789   0.58796
 Alpha virt. eigenvalues --    0.70263

 Mulliken charges:
               1
     1  H    0.165156
     2  H   -0.056559
     3  H   -0.231910
     4  H    0.014715
     5  H   -0.231910
     6  H    0.165156
     7  H    0.014715
     8  H   -0.056559
     9  H    0.165156
    10  H   -0.056559
    11  H   -0.056559
    12  H    0.165156
 Sum of Mulliken charges =  -0.00000

 Dipole moment (field-independent basis, Debye):
    X=             -0.0000    Y=              0.0000    Z=              0.0000  Tot=              0.0000
 Quadrupole moment (field-independent basis, Debye-Ang):
   XX=            -14.6945   YY=            -16.2069   ZZ=            -18.1896
   XY=             -0.0000   XZ=              0.0000   YZ=              0.0000

 Normal termination of Gaussian 09 at Fri Feb 17 15:16:21 2017.
