 Gaussian 09, Revision E.01,
 Gaussian 09:  ES64L-G09RevE.01 30-Nov-2015

 ----------------------------------------------------------------------
 #rhf/gen scf(symm,tight,novaracc,noincfock,fulldiag) stable(crhf) gues
 s=read geom=nocrowd test
 ----------------------------------------------------------------------

 ----------------------------------------------------------------------
 hf stability analysis of h10 triangular lattice, y= 1.2594669489559134
 ----------------------------------------------------------------------
 Symbolic Z-matrix:
 Charge =  0 Multiplicity = 1

                         Standard orientation:
 ---------------------------------------------------------------------
 Center     Atomic      Atomic             Coordinates (Angstroms)
 Number     Number       Type             X           Y           Z
 ---------------------------------------------------------------------
      1          1           0        1.723052    2.723602   -0.000000
      2          1           0        1.723052    1.383305   -0.000000
      3          1           0        0.861526    1.696875   -0.000000
      4          1           0        0.861526    0.356578    0.000000
      5          1           0        0.000000    0.670148   -0.000000
      6          1           0       -0.000000   -0.670148   -0.000000
      7          1           0       -0.861526   -0.356578    0.000000
      8          1           0       -0.861526   -1.696875   -0.000000
      9          1           0       -1.723052   -1.383305    0.000000
     10          1           0       -1.723052   -2.723602   -0.000000
 ---------------------------------------------------------------------

 SCF Done:  E(RHF) =  -4.69764017085     A.U. after    8 cycles
 E2 =    -0.1668469987D+00 EUMP2 =    -0.48644871695993D+01

 The electronic state is 1-AG.
 Alpha  occ. eigenvalues --   -0.84232  -0.74322  -0.58947  -0.39467  -0.11324
 Alpha virt. eigenvalues --    0.00497   0.10795   0.18266   0.37367   0.54107

 Mulliken charges:
               1
     1  H   -0.259824
     2  H    0.041964
     3  H    0.150147
     4  H    0.022768
     5  H    0.044946
     6  H    0.044946
     7  H    0.022768
     8  H    0.150147
     9  H    0.041964
    10  H   -0.259824
 Sum of Mulliken charges =  -0.00000

 Dipole moment (field-independent basis, Debye):
    X=             -0.0000    Y=              0.0000    Z=              0.0000  Tot=              0.0000
 Quadrupole moment (field-independent basis, Debye-Ang):
   XX=            -18.4801   YY=            -30.0836   ZZ=            -12.7881
   XY=            -11.6984   XZ=              0.0000   YZ=              0.0000

 Normal termination of Gaussian 09 at Tue Feb 21 12:47:29 2017.
