 Gaussian 09, Revision E.01,
 Gaussian 09:  ES64L-G09RevE.01 30-Nov-2015

 ----------------------------------------------------------------------
 #rhf/gen scf(symm,tight,novaracc,noincfock,fulldiag) stable(crhf) geom
 =nocrowd test
 ----------------------------------------------------------------------

 hf stability analysis of h10 triangular lattice, y= 0.2494204908049003
 4
 ----------------------------------------------------------------------
 Symbolic Z-matrix:
 Charge =  0 Multiplicity = 1

                         Standard orientation:
 ---------------------------------------------------------------------
 Center     Atomic      Atomic             Coordinates (Angstroms)
 Number     Number       Type             X           Y           Z
 ---------------------------------------------------------------------
      1          1           0        2.314767    0.498841    0.000000
      2          1           0        4.629534    0.249420    0.000000
      3          1           0        0.000000    0.249420   -0.000000
      4          1           0        2.314767    0.000000    0.000000
      5          1           0       -2.314767    0.000000    0.000000
      6          1           0       -0.000000   -0.249420   -0.000000
      7          1           0       -4.629534   -0.249420    0.000000
      8          1           0       -2.314767   -0.498841   -0.000000
 ---------------------------------------------------------------------

 SCF Done:  E(RHF) =  -3.57562689475     A.U. after    5 cycles
 E2 =    -0.7344571188D+00 EUMP2 =    -0.43100840135975D+01

 The electronic state is 1-AG.
 Alpha  occ. eigenvalues --   -0.73394  -0.71355  -0.68988  -0.21060
 Alpha virt. eigenvalues --   -0.15323   0.53737   0.61207   0.69871

 Mulliken charges:
               1
     1  H    0.000203
     2  H    0.000851
     3  H    0.000065
     4  H   -0.001119
     5  H   -0.001119
     6  H    0.000065
     7  H    0.000851
     8  H    0.000203
 Sum of Mulliken charges =   0.00000

 Dipole moment (field-independent basis, Debye):
    X=              0.0000    Y=             -0.0000    Z=              0.0000  Tot=              0.0000
 Quadrupole moment (field-independent basis, Debye-Ang):
   XX=            -12.1433   YY=            -10.1040   ZZ=            -10.7627
   XY=             -0.0841   XZ=             -0.0000   YZ=              0.0000

 Normal termination of Gaussian 09 at Thu Feb  9 15:28:41 2017.
