 Gaussian 09, Revision E.01,
 Gaussian 09:  ES64L-G09RevE.01 30-Nov-2015

 ----------------------------------------------------------------------
 #t rhf/gen scf(tight,novaracc,noincfock) stable(crhf) guess=mix geom=n
 ocrowd test
 ----------------------------------------------------------------------

 scf stability calculation for a triangular configuration of 8 H atoms
 (made up of 8 iscosceles triangles)
 ----------------------------------------------------------------------
 Symbolic Z-matrix:
 Charge =  0 Multiplicity = 1

                         Standard orientation:
 ---------------------------------------------------------------------
 Center     Atomic      Atomic             Coordinates (Angstroms)
 Number     Number       Type             X           Y           Z
 ---------------------------------------------------------------------
      1          1           0        0.000000    0.000000    1.540000
      2          1           0        0.000000    0.656079    0.660000
      3          1           0       -0.000000   -0.656079    0.660000
      4          1           0        0.000000    0.000000   -0.220000
      5          1           0        0.000000    1.312158   -0.220000
      6          1           0       -0.000000   -1.312158   -0.220000
      7          1           0        0.000000    0.656079   -1.100000
      8          1           0       -0.000000   -0.656079   -1.100000
 ---------------------------------------------------------------------

 SCF Done:  E(RHF) =  -3.81455978395     A.U. after   18 cycles
 E2 =    -0.8295230187D-01 EUMP2 =    -0.38975120858211D+01

 The electronic state is 1-A1.
 Alpha  occ. eigenvalues --   -0.92824  -0.59711  -0.58240  -0.23482
 Alpha virt. eigenvalues --    0.07608   0.07685   0.46358   0.56780

 Mulliken charges:
               1
     1  H   -0.232772
     2  H    0.121468
     3  H    0.121468
     4  H    0.104887
     5  H   -0.131550
     6  H   -0.131550
     7  H    0.074025
     8  H    0.074025
 Sum of Mulliken charges =  -0.00000

 Dipole moment (field-independent basis, Debye):
    X=              0.0000    Y=             -0.0000    Z=             -1.5667  Tot=              1.5667

 Test job not archived.
 1\1\GINC-SULU\Stability\RHF\Gen\H8\LCJ1\19-Jan-2017\0\\#t rhf/gen scf(
 tight,novaracc,noincfock) stable(crhf) guess=mix geom=nocrowd test\\sc
 f stability calculation for a triangular configuration of 8 H atoms (m
 ade up of 8 iscosceles triangles)\\0,1\H,0,0.,0.,0.88\H,0,0.656079,0.,
 0.\H,0,-0.656079,0.,0.\H,0,0.,0.,-0.88\H,0,1.312158,0.,-0.88\H,0,-1.31
 2158,0.,-0.88\H,0,0.656079,0.,-1.76\H,0,-0.656079,0.,-1.76\\Version=ES
 64L-G09RevE.01\State=1-A1\HF=-3.8145598\MP2=-3.8975121\RMSD=8.607e-09\
 Dipole=0.,0.,-0.6163881\Quadrupole=-0.3504767,1.6559245,-1.3054478,0.,

 Normal termination of Gaussian 09 at Thu Jan 19 22:09:53 2017.
