 Gaussian 09, Revision E.01,
 Gaussian 09:  ES64L-G09RevE.01 30-Nov-2015

 ----------------------------------------------------------------------
 #rhf/gen scf(tight,novaracc,noincfock,fulldiag) stable(crhf) guess=mix
  geom=nocrowd test
 ----------------------------------------------------------------------

 ----------------------------------------------------------------------
 hf stability analysis of h12 triangular lattice, y= 1.0205721581109972
 ----------------------------------------------------------------------
 Symbolic Z-matrix:
 Charge =  0 Multiplicity = 1

                         Standard orientation:
 ---------------------------------------------------------------------
 Center     Atomic      Atomic             Coordinates (Angstroms)
 Number     Number       Type             X           Y           Z
 ---------------------------------------------------------------------
      1          1           0        0.989566    2.368663   -0.000000
      2          1           0        0.000000    1.750313   -0.000000
      3          1           0        0.989566    1.201787   -0.000000
      4          1           0        0.000000    0.583438   -0.000000
      5          1           0       -0.989566    1.131963   -0.000000
      6          1           0       -0.989566   -0.034912    0.000000
      7          1           0       -0.989566   -1.201787    0.000000
      8          1           0       -0.000000   -0.583438    0.000000
      9          1           0        0.989566    0.034912    0.000000
     10          1           0        0.989566   -1.131963    0.000000
     11          1           0       -0.000000   -1.750313    0.000000
     12          1           0       -0.989566   -2.368663    0.000000
 ---------------------------------------------------------------------

 SCF Done:  E(RHF) =  -5.93949096914     A.U. after   15 cycles
 E2 =    -0.1124465851D+00 EUMP2 =    -0.60519375542201D+01

 The electronic state is 1-AG.
 Alpha  occ. eigenvalues --   -0.96534  -0.79005  -0.61510  -0.56451  -0.37997
 Alpha  occ. eigenvalues --   -0.31792
 Alpha virt. eigenvalues --    0.11724   0.21513   0.21619   0.37854   0.50223
 Alpha virt. eigenvalues --    0.56737

 Mulliken charges:
               1
     1  H   -0.123003
     2  H    0.084178
     3  H    0.067728
     4  H   -0.011270
     5  H   -0.062614
     6  H    0.044981
     7  H    0.067728
     8  H   -0.011270
     9  H    0.044981
    10  H   -0.062614
    11  H    0.084178
    12  H   -0.123003
 Sum of Mulliken charges =   0.00000

 Dipole moment (field-independent basis, Debye):
    X=             -0.0000    Y=              0.0000    Z=              0.0000  Tot=              0.0000
 Quadrupole moment (field-independent basis, Debye-Ang):
   XX=            -17.8063   YY=            -24.3106   ZZ=            -15.3469
   XY=             -1.6865   XZ=              0.0000   YZ=              0.0000

 Normal termination of Gaussian 09 at Thu Feb 16 18:35:15 2017.
