 Gaussian 09, Revision E.01,
 Gaussian 09:  ES64L-G09RevE.01 30-Nov-2015

 ----------------------------------------------------------------------
 #rhf/gen scf(tight,novaracc,noincfock,fulldiag) stable(crhf) guess=mix
  geom=nocrowd test
 ----------------------------------------------------------------------

 hf stability analysis of h12 triangular lattice, y= 0.9612250668035587
 9
 ----------------------------------------------------------------------
 Symbolic Z-matrix:
 Charge =  0 Multiplicity = 1

                         Standard orientation:
 ---------------------------------------------------------------------
 Center     Atomic      Atomic             Coordinates (Angstroms)
 Number     Number       Type             X           Y           Z
 ---------------------------------------------------------------------
      1          1           0        1.018743    2.197058   -0.000000
      2          1           0        0.000000    1.700184   -0.000000
      3          1           0        1.018743    1.063602   -0.000000
      4          1           0        0.000000    0.566728   -0.000000
      5          1           0       -1.018743    1.203309    0.000000
      6          1           0       -1.018743    0.069854    0.000000
      7          1           0       -1.018743   -1.063602    0.000000
      8          1           0       -0.000000   -0.566728    0.000000
      9          1           0        1.018743   -0.069854   -0.000000
     10          1           0        1.018743   -1.203309   -0.000000
     11          1           0       -0.000000   -1.700184    0.000000
     12          1           0       -1.018743   -2.197058    0.000000
 ---------------------------------------------------------------------

 SCF Done:  E(RHF) =  -5.89402087231     A.U. after   16 cycles
 E2 =    -0.1140037471D+00 EUMP2 =    -0.60080246194524D+01

 The electronic state is 1-AG.
 Alpha  occ. eigenvalues --   -0.98437  -0.79265  -0.64680  -0.55164  -0.40637
 Alpha  occ. eigenvalues --   -0.28780
 Alpha virt. eigenvalues --    0.05992   0.19145   0.27152   0.31753   0.57696
 Alpha virt. eigenvalues --    0.61176

 Mulliken charges:
               1
     1  H   -0.183684
     2  H    0.092365
     3  H    0.067429
     4  H   -0.002750
     5  H   -0.060250
     6  H    0.086890
     7  H    0.067429
     8  H   -0.002750
     9  H    0.086890
    10  H   -0.060250
    11  H    0.092365
    12  H   -0.183684
 Sum of Mulliken charges =   0.00000

 Dipole moment (field-independent basis, Debye):
    X=              0.0000    Y=             -0.0000    Z=             -0.0000  Tot=              0.0000
 Quadrupole moment (field-independent basis, Debye-Ang):
   XX=            -17.7410   YY=            -26.7416   ZZ=            -15.2858
   XY=             -3.1968   XZ=              0.0000   YZ=              0.0000

 Normal termination of Gaussian 09 at Thu Feb 16 18:34:35 2017.
