 Gaussian 09, Revision E.01,
 Gaussian 09:  ES64L-G09RevE.01 30-Nov-2015

 ----------------------------------------------------------------------
 #rhf/gen scf(tight,novaracc,noincfock,fulldiag) stable(crhf) guess=mix
  geom=nocrowd test
 ----------------------------------------------------------------------

 hf stability analysis of h12 triangular lattice, y= 0.4829747999860826
 7
 ----------------------------------------------------------------------
 Symbolic Z-matrix:
 Charge =  0 Multiplicity = 1

                         Standard orientation:
 ---------------------------------------------------------------------
 Center     Atomic      Atomic             Coordinates (Angstroms)
 Number     Number       Type             X           Y           Z
 ---------------------------------------------------------------------
      1          1           0        0.895613    1.006494    0.000000
      2          1           0        0.000000    1.933928    0.000000
      3          1           0        0.895613   -0.282792    0.000000
      4          1           0        0.000000    0.644643    0.000000
      5          1           0       -0.895613    2.861362   -0.000000
      6          1           0       -0.895613    1.572077   -0.000000
      7          1           0       -0.895613    0.282792    0.000000
      8          1           0       -0.000000   -0.644643    0.000000
      9          1           0        0.895613   -1.572077   -0.000000
     10          1           0        0.895613   -2.861362   -0.000000
     11          1           0       -0.000000   -1.933928    0.000000
     12          1           0       -0.895613   -1.006494    0.000000
 ---------------------------------------------------------------------

 SCF Done:  E(RHF) =  -5.94336772926     A.U. after   13 cycles
 E2 =    -0.1102042227D+00 EUMP2 =    -0.60535719519368D+01

 The electronic state is 1-AG.
 Alpha  occ. eigenvalues --   -0.89467  -0.76975  -0.58882  -0.50841  -0.38279
 Alpha  occ. eigenvalues --   -0.29396
 Alpha virt. eigenvalues --    0.07283   0.20225   0.29143   0.32481   0.54194
 Alpha virt. eigenvalues --    0.62636

 Mulliken charges:
               1
     1  H   -0.104756
     2  H    0.062466
     3  H   -0.064681
     4  H   -0.028531
     5  H    0.059619
     6  H    0.075883
     7  H   -0.064681
     8  H   -0.028531
     9  H    0.075883
    10  H    0.059619
    11  H    0.062466
    12  H   -0.104756
 Sum of Mulliken charges =   0.00000

 Dipole moment (field-independent basis, Debye):
    X=             -0.0000    Y=              0.0000    Z=             -0.0000  Tot=              0.0000
 Quadrupole moment (field-independent basis, Debye-Ang):
   XX=            -18.1785   YY=            -11.4763   ZZ=            -15.4817
   XY=             -3.4957   XZ=             -0.0000   YZ=             -0.0000

 Normal termination of Gaussian 09 at Thu Feb 16 18:27:02 2017.
