 Gaussian 09, Revision E.01,
 Gaussian 09:  ES64L-G09RevE.01 30-Nov-2015

 ----------------------------------------------------------------------
 #rhf/gen scf(tight,novaracc,noincfock,fulldiag) stable(crhf) guess=mix
  geom=nocrowd test
 ----------------------------------------------------------------------

 hf stability analysis of h12 triangular lattice, y= 0.8596363675198261
 9
 ----------------------------------------------------------------------
 Symbolic Z-matrix:
 Charge =  0 Multiplicity = 1

                         Standard orientation:
 ---------------------------------------------------------------------
 Center     Atomic      Atomic             Coordinates (Angstroms)
 Number     Number       Type             X           Y           Z
 ---------------------------------------------------------------------
      1          1           0        1.058490    1.900252    0.000000
      2          1           0        0.000000    1.636341    0.000000
      3          1           0        1.058490    0.809358    0.000000
      4          1           0        0.000000    0.545447    0.000000
      5          1           0       -1.058490    1.372430    0.000000
      6          1           0       -1.058490    0.281536   -0.000000
      7          1           0       -1.058490   -0.809358   -0.000000
      8          1           0       -0.000000   -0.545447   -0.000000
      9          1           0        1.058490   -0.281536   -0.000000
     10          1           0        1.058490   -1.372430   -0.000000
     11          1           0       -0.000000   -1.636341   -0.000000
     12          1           0       -1.058490   -1.900252   -0.000000
 ---------------------------------------------------------------------

 SCF Done:  E(RHF) =  -5.80275229387     A.U. after   25 cycles
 E2 =    -0.1404994630D+00 EUMP2 =    -0.59432517568491D+01

 The electronic state is 1-AG.
 Alpha  occ. eigenvalues --   -0.92873  -0.75659  -0.64372  -0.50212  -0.40112
 Alpha  occ. eigenvalues --   -0.24056
 Alpha virt. eigenvalues --    0.00464   0.19301   0.26400   0.40729   0.63517
 Alpha virt. eigenvalues --    0.89286

 Mulliken charges:
               1
     1  H    0.164141
     2  H   -0.058049
     3  H   -0.021279
     4  H   -0.049037
     5  H   -0.034509
     6  H   -0.001267
     7  H   -0.021279
     8  H   -0.049037
     9  H   -0.001267
    10  H   -0.034509
    11  H   -0.058049
    12  H    0.164141
 Sum of Mulliken charges =  -0.00000

 Dipole moment (field-independent basis, Debye):
    X=              0.0000    Y=             -0.0000    Z=              0.0000  Tot=              0.0000
 Quadrupole moment (field-independent basis, Debye-Ang):
   XX=            -19.5891   YY=            -13.2220   ZZ=            -15.1951
   XY=              4.2151   XZ=              0.0000   YZ=              0.0000

 Normal termination of Gaussian 09 at Thu Feb 16 18:33:20 2017.
