 Gaussian 09, Revision E.01,
 Gaussian 09:  ES64L-G09RevE.01 30-Nov-2015

 ----------------------------------------------------------------------
 #rhf/gen scf(tight,novaracc,noincfock,fulldiag) stable(crhf) guess=mix
  geom=nocrowd test
 ----------------------------------------------------------------------

 ----------------------------------------------------------------------
 hf stability analysis of h12 triangular lattice, y= 2.1684423371644423
 ----------------------------------------------------------------------
 Symbolic Z-matrix:
 Charge =  0 Multiplicity = 1

                         Standard orientation:
 ---------------------------------------------------------------------
 Center     Atomic      Atomic             Coordinates (Angstroms)
 Number     Number       Type             X           Y           Z
 ---------------------------------------------------------------------
      1          1           0        0.528533    5.396922   -0.000000
      2          1           0        0.000000    3.277090    0.000000
      3          1           0        0.528533    3.212195   -0.000000
      4          1           0        0.000000    1.092363    0.000000
      5          1           0       -0.528533    1.157259    0.000000
      6          1           0       -0.528533   -1.027468    0.000000
      7          1           0       -0.528533   -3.212195    0.000000
      8          1           0       -0.000000   -1.092363    0.000000
      9          1           0        0.528533    1.027468   -0.000000
     10          1           0        0.528533   -1.157259    0.000000
     11          1           0       -0.000000   -3.277090    0.000000
     12          1           0       -0.528533   -5.396922    0.000000
 ---------------------------------------------------------------------

 SCF Done:  E(RHF) =  -4.94571984990     A.U. after   15 cycles
 E2 =    -0.8451207296D+00 EUMP2 =    -0.57908405794787D+01

 The electronic state is 1-AG.
 Alpha  occ. eigenvalues --   -0.93316  -0.90099  -0.70810  -0.70710  -0.25107
 Alpha  occ. eigenvalues --   -0.19733
 Alpha virt. eigenvalues --   -0.14611   0.03843   0.57953   0.58350   1.24245
 Alpha virt. eigenvalues --    1.38169

 Mulliken charges:
               1
     1  H   -0.037256
     2  H   -0.004031
     3  H   -0.001614
     4  H   -0.509374
     5  H    0.278666
     6  H    0.273609
     7  H   -0.001614
     8  H   -0.509374
     9  H    0.273609
    10  H    0.278666
    11  H   -0.004031
    12  H   -0.037256
 Sum of Mulliken charges =  -0.00000

 Dipole moment (field-independent basis, Debye):
    X=              0.0000    Y=              0.0000    Z=             -0.0000  Tot=              0.0000
 Quadrupole moment (field-independent basis, Debye-Ang):
   XX=            -16.4321   YY=            -27.7389   ZZ=            -15.5341
   XY=             -1.4616   XZ=              0.0000   YZ=              0.0000

 Normal termination of Gaussian 09 at Thu Feb 16 18:39:43 2017.
