 Gaussian 09, Revision E.01,
 Gaussian 09:  ES64L-G09RevE.01 30-Nov-2015

 ----------------------------------------------------------------------
 #rhf/gen scf(tight,novaracc,noincfock,fulldiag) stable(crhf) guess=mix
  geom=nocrowd test
 ----------------------------------------------------------------------

 ----------------------------------------------------------------------
 hf stability analysis of h12 triangular lattice, y= 1.3330047374615932
 ----------------------------------------------------------------------
 Symbolic Z-matrix:
 Charge =  0 Multiplicity = 1

                         Standard orientation:
 ---------------------------------------------------------------------
 Center     Atomic      Atomic             Coordinates (Angstroms)
 Number     Number       Type             X           Y           Z
 ---------------------------------------------------------------------
      1          1           0        0.823842    3.236328   -0.000000
      2          1           0        0.000000    2.102406    0.000000
      3          1           0        0.823842    1.834724   -0.000000
      4          1           0        0.000000    0.700802    0.000000
      5          1           0       -0.823842    0.968485    0.000000
      6          1           0       -0.823842   -0.433119    0.000000
      7          1           0       -0.823842   -1.834724   -0.000000
      8          1           0       -0.000000   -0.700802    0.000000
      9          1           0        0.823842    0.433119    0.000000
     10          1           0        0.823842   -0.968485    0.000000
     11          1           0       -0.000000   -2.102406    0.000000
     12          1           0       -0.823842   -3.236328   -0.000000
 ---------------------------------------------------------------------

 SCF Done:  E(RHF) =  -5.83433861148     A.U. after   24 cycles
 E2 =    -0.1166853395D+00 EUMP2 =    -0.59510239509273D+01

 The electronic state is 1-AG.
 Alpha  occ. eigenvalues --   -0.83912  -0.74797  -0.59922  -0.45236  -0.38751
 Alpha  occ. eigenvalues --   -0.22315
 Alpha virt. eigenvalues --   -0.00051   0.05990   0.33352   0.43366   0.59767
 Alpha virt. eigenvalues --    0.80543

 Mulliken charges:
               1
     1  H    0.162998
     2  H    0.002889
     3  H    0.127039
     4  H   -0.043020
     5  H   -0.095559
     6  H   -0.154347
     7  H    0.127039
     8  H   -0.043020
     9  H   -0.154347
    10  H   -0.095559
    11  H    0.002889
    12  H    0.162998
 Sum of Mulliken charges =   0.00000

 Dipole moment (field-independent basis, Debye):
    X=              0.0000    Y=              0.0000    Z=             -0.0000  Tot=              0.0000
 Quadrupole moment (field-independent basis, Debye-Ang):
   XX=            -17.9798   YY=              0.9553   ZZ=            -15.5041
   XY=              6.5646   XZ=             -0.0000   YZ=              0.0000

 Normal termination of Gaussian 09 at Thu Feb 16 18:37:29 2017.
