 Gaussian 09, Revision E.01,
 Gaussian 09:  ES64L-G09RevE.01 30-Nov-2015

 ----------------------------------------------------------------------
 #rhf/gen scf(tight,novaracc,noincfock,fulldiag) stable(crhf) guess=mix
  geom=nocrowd test
 ----------------------------------------------------------------------

 hf stability analysis of h12 triangular lattice, y= 0.7598357022583297
 5
 ----------------------------------------------------------------------
 Symbolic Z-matrix:
 Charge =  0 Multiplicity = 1

                         Standard orientation:
 ---------------------------------------------------------------------
 Center     Atomic      Atomic             Coordinates (Angstroms)
 Number     Number       Type             X           Y           Z
 ---------------------------------------------------------------------
      1          1           0        0.000000    1.074570    1.611855
      2          1           0        0.000000    0.000000    1.611855
      3          1           0        0.000000    1.074570    0.537285
      4          1           0        0.000000    0.000000    0.537285
      5          1           0       -0.000000   -1.074570    1.611855
      6          1           0       -0.000000   -1.074570    0.537285
      7          1           0       -0.000000   -1.074570   -0.537285
      8          1           0        0.000000    0.000000   -0.537285
      9          1           0        0.000000    1.074570   -0.537285
     10          1           0        0.000000    1.074570   -1.611855
     11          1           0        0.000000    0.000000   -1.611855
     12          1           0       -0.000000   -1.074570   -1.611855
 ---------------------------------------------------------------------

 SCF Done:  E(RHF) =  -5.85803581899     A.U. after   13 cycles
 E2 =    -0.1378619368D+00 EUMP2 =    -0.59958977558332D+01

 The electronic state is 1-AG.
 Alpha  occ. eigenvalues --   -0.93787  -0.75462  -0.66534  -0.46023  -0.45140
 Alpha  occ. eigenvalues --   -0.27110
 Alpha virt. eigenvalues --    0.06360   0.18242   0.18741   0.53295   0.56209
 Alpha virt. eigenvalues --    1.00868

 Mulliken charges:
               1
     1  H    0.067274
     2  H   -0.057653
     3  H   -0.011894
     4  H   -0.053107
     5  H    0.067274
     6  H   -0.011894
     7  H   -0.011894
     8  H   -0.053107
     9  H   -0.011894
    10  H    0.067274
    11  H   -0.057653
    12  H    0.067274
 Sum of Mulliken charges =   0.00000

 Dipole moment (field-independent basis, Debye):
    X=             -0.0000    Y=              0.0000    Z=             -0.0000  Tot=              0.0000
 Quadrupole moment (field-independent basis, Debye-Ang):
   XX=            -15.1971   YY=            -19.3439   ZZ=            -15.0838
   XY=             -0.0000   XZ=              0.0000   YZ=              0.0000

 Normal termination of Gaussian 09 at Thu Feb 16 18:31:51 2017.
