 Gaussian 09, Revision E.01,
 Gaussian 09:  ES64L-G09RevE.01 30-Nov-2015

 ----------------------------------------------------------------------
 #rhf/gen scf(tight,novaracc,noincfock,fulldiag) stable(crhf) guess=mix
  geom=nocrowd test
 ----------------------------------------------------------------------

 hf stability analysis of h12 triangular lattice, y= 0.5188669005588153
 5
 ----------------------------------------------------------------------
 Symbolic Z-matrix:
 Charge =  0 Multiplicity = 1

                         Standard orientation:
 ---------------------------------------------------------------------
 Center     Atomic      Atomic             Coordinates (Angstroms)
 Number     Number       Type             X           Y           Z
 ---------------------------------------------------------------------
      1          1           0        0.940506    1.052437   -0.000000
      2          1           0        0.000000    1.841615    0.000000
      3          1           0        0.940506   -0.175307   -0.000000
      4          1           0        0.000000    0.613872    0.000000
      5          1           0       -0.940506    2.630794    0.000000
      6          1           0       -0.940506    1.403050    0.000000
      7          1           0       -0.940506    0.175307   -0.000000
      8          1           0       -0.000000   -0.613872    0.000000
      9          1           0        0.940506   -1.403050    0.000000
     10          1           0        0.940506   -2.630794    0.000000
     11          1           0       -0.000000   -1.841615    0.000000
     12          1           0       -0.940506   -1.052437   -0.000000
 ---------------------------------------------------------------------

 SCF Done:  E(RHF) =  -5.96499384950     A.U. after   12 cycles
 E2 =    -0.1109381505D+00 EUMP2 =    -0.60759320000199D+01

 The electronic state is 1-AG.
 Alpha  occ. eigenvalues --   -0.92999  -0.78134  -0.57963  -0.55990  -0.35668
 Alpha  occ. eigenvalues --   -0.33597
 Alpha virt. eigenvalues --    0.13003   0.23017   0.24184   0.33196   0.51854
 Alpha virt. eigenvalues --    0.54896

 Mulliken charges:
               1
     1  H   -0.080680
     2  H    0.073030
     3  H   -0.016004
     4  H   -0.021471
     5  H   -0.026121
     6  H    0.071247
     7  H   -0.016004
     8  H   -0.021471
     9  H    0.071247
    10  H   -0.026121
    11  H    0.073030
    12  H   -0.080680
 Sum of Mulliken charges =   0.00000

 Dipole moment (field-independent basis, Debye):
    X=             -0.0000    Y=              0.0000    Z=              0.0000  Tot=              0.0000
 Quadrupole moment (field-independent basis, Debye-Ang):
   XX=            -17.9856   YY=            -18.5862   ZZ=            -15.4277
   XY=             -1.0010   XZ=              0.0000   YZ=             -0.0000

 Normal termination of Gaussian 09 at Thu Feb 16 18:27:38 2017.
