 Gaussian 09, Revision E.01,
 Gaussian 09:  ES64L-G09RevE.01 30-Nov-2015

 ----------------------------------------------------------------------
 #rhf/gen scf(tight,novaracc,noincfock,fulldiag) stable(crhf) guess=mix
  geom=nocrowd test
 ----------------------------------------------------------------------

 hf stability analysis of h12 triangular lattice, y= 0.5889881594497650
 1
 ----------------------------------------------------------------------
 Symbolic Z-matrix:
 Charge =  0 Multiplicity = 1

                         Standard orientation:
 ---------------------------------------------------------------------
 Center     Atomic      Atomic             Coordinates (Angstroms)
 Number     Number       Type             X           Y           Z
 ---------------------------------------------------------------------
      1          1           0        1.009723    1.178494   -0.000000
      2          1           0        0.000000    1.715373   -0.000000
      3          1           0        1.009723    0.034912   -0.000000
      4          1           0        0.000000    0.571791   -0.000000
      5          1           0       -1.009723    2.252252   -0.000000
      6          1           0       -1.009723    1.108670   -0.000000
      7          1           0       -1.009723   -0.034912    0.000000
      8          1           0       -0.000000   -0.571791   -0.000000
      9          1           0        1.009723   -1.108670   -0.000000
     10          1           0        1.009723   -2.252252   -0.000000
     11          1           0       -0.000000   -1.715373   -0.000000
     12          1           0       -1.009723   -1.178494   -0.000000
 ---------------------------------------------------------------------

 SCF Done:  E(RHF) =  -5.91098187612     A.U. after   15 cycles
 E2 =    -0.1134429746D+00 EUMP2 =    -0.60244248506904D+01

 The electronic state is 1-AG.
 Alpha  occ. eigenvalues --   -0.97869  -0.79210  -0.63713  -0.55605  -0.39808
 Alpha  occ. eigenvalues --   -0.29788
 Alpha virt. eigenvalues --    0.07759   0.19957   0.25289   0.33731   0.57393
 Alpha virt. eigenvalues --    0.57452

 Mulliken charges:
               1
     1  H   -0.060134
     2  H    0.089683
     3  H    0.073543
     4  H   -0.005668
     5  H   -0.164631
     6  H    0.067207
     7  H    0.073543
     8  H   -0.005668
     9  H    0.067207
    10  H   -0.164631
    11  H    0.089683
    12  H   -0.060134
 Sum of Mulliken charges =  -0.00000

 Dipole moment (field-independent basis, Debye):
    X=              0.0000    Y=              0.0000    Z=              0.0000  Tot=              0.0000
 Quadrupole moment (field-independent basis, Debye-Ang):
   XX=            -17.7571   YY=            -26.0720   ZZ=            -15.3060
   XY=              2.7438   XZ=              0.0000   YZ=             -0.0000

 Normal termination of Gaussian 09 at Thu Feb 16 18:28:52 2017.
