 Gaussian 09, Revision E.01,
 Gaussian 09:  ES64L-G09RevE.01 30-Nov-2015

 ----------------------------------------------------------------------
 #rhf/gen scf(tight,novaracc,noincfock,fulldiag) stable(crhf) guess=mix
  geom=nocrowd test
 ----------------------------------------------------------------------

 ----------------------------------------------------------------------
 hf stability analysis of h12 triangular lattice, y= 2.3437412473608381
 ----------------------------------------------------------------------
 Symbolic Z-matrix:
 Charge =  0 Multiplicity = 1

                         Standard orientation:
 ---------------------------------------------------------------------
 Center     Atomic      Atomic             Coordinates (Angstroms)
 Number     Number       Type             X           Y           Z
 ---------------------------------------------------------------------
      1          1           0        0.489975    5.840130   -0.000000
      2          1           0        0.000000    3.534977    0.000000
      3          1           0        0.489975    3.483478   -0.000000
      4          1           0        0.000000    1.178326    0.000000
      5          1           0       -0.489975    1.229824    0.000000
      6          1           0       -0.489975   -1.126827    0.000000
      7          1           0       -0.489975   -3.483478    0.000000
      8          1           0       -0.000000   -1.178326    0.000000
      9          1           0        0.489975    1.126827    0.000000
     10          1           0        0.489975   -1.229824    0.000000
     11          1           0       -0.000000   -3.534977    0.000000
     12          1           0       -0.489975   -5.840130    0.000000
 ---------------------------------------------------------------------

 SCF Done:  E(RHF) =  -4.59484273127     A.U. after   15 cycles
 E2 =    -0.7746645714D+00 EUMP2 =    -0.53695073026904D+01

 The electronic state is 1-AG.
 Alpha  occ. eigenvalues --   -0.98030  -0.96631  -0.72429  -0.72413  -0.23305
 Alpha  occ. eigenvalues --   -0.18720
 Alpha virt. eigenvalues --   -0.13656   0.02222   0.61518   0.61705   1.36864
 Alpha virt. eigenvalues --    1.48387

 Mulliken charges:
               1
     1  H   -0.095607
     2  H   -0.002873
     3  H   -0.001513
     4  H   -0.638686
     5  H    0.370728
     6  H    0.367951
     7  H   -0.001513
     8  H   -0.638686
     9  H    0.367951
    10  H    0.370728
    11  H   -0.002873
    12  H   -0.095607
 Sum of Mulliken charges =   0.00000

 Dipole moment (field-independent basis, Debye):
    X=              0.0000    Y=             -0.0000    Z=              0.0000  Tot=              0.0000
 Quadrupole moment (field-independent basis, Debye-Ang):
   XX=            -16.3920   YY=            -47.3033   ZZ=            -15.5659
   XY=             -2.9473   XZ=              0.0000   YZ=              0.0000

 Normal termination of Gaussian 09 at Thu Feb 16 18:39:54 2017.
