 Gaussian 09, Revision E.01,
 Gaussian 09:  ES64L-G09RevE.01 30-Nov-2015

 ----------------------------------------------------------------------
 #rhf/gen scf(tight,novaracc,noincfock,fulldiag) stable(crhf) guess=mix
  geom=nocrowd test
 ----------------------------------------------------------------------

 hf stability analysis of h12 triangular lattice, y= 0.5423787099077283
 0
 ----------------------------------------------------------------------
 Symbolic Z-matrix:
 Charge =  0 Multiplicity = 1

                         Standard orientation:
 ---------------------------------------------------------------------
 Center     Atomic      Atomic             Coordinates (Angstroms)
 Number     Number       Type             X           Y           Z
 ---------------------------------------------------------------------
      1          1           0        0.966526    1.089815    0.000000
      2          1           0        0.000000    1.792038    0.000000
      3          1           0        0.966526   -0.104876    0.000000
      4          1           0        0.000000    0.597346    0.000000
      5          1           0       -0.966526    2.494260    0.000000
      6          1           0       -0.966526    1.299568   -0.000000
      7          1           0       -0.966526    0.104876   -0.000000
      8          1           0       -0.000000   -0.597346    0.000000
      9          1           0        0.966526   -1.299568    0.000000
     10          1           0        0.966526   -2.494260    0.000000
     11          1           0       -0.000000   -1.792038    0.000000
     12          1           0       -0.966526   -1.089815    0.000000
 ---------------------------------------------------------------------

 SCF Done:  E(RHF) =  -5.95850476566     A.U. after   14 cycles
 E2 =    -0.1116132689D+00 EUMP2 =    -0.60701180345428D+01

 The electronic state is 1-AG.
 Alpha  occ. eigenvalues --   -0.94919  -0.78655  -0.58941  -0.57242  -0.35944
 Alpha  occ. eigenvalues --   -0.33761
 Alpha virt. eigenvalues --    0.15209   0.19114   0.22988   0.38803   0.47122
 Alpha virt. eigenvalues --    0.55824

 Mulliken charges:
               1
     1  H   -0.069394
     2  H    0.078686
     3  H    0.014946
     4  H   -0.016536
     5  H   -0.076889
     6  H    0.069187
     7  H    0.014946
     8  H   -0.016536
     9  H    0.069187
    10  H   -0.076889
    11  H    0.078686
    12  H   -0.069394
 Sum of Mulliken charges =  -0.00000

 Dipole moment (field-independent basis, Debye):
    X=             -0.0000    Y=              0.0000    Z=             -0.0000  Tot=              0.0000
 Quadrupole moment (field-independent basis, Debye-Ang):
   XX=            -17.8823   YY=            -21.8764   ZZ=            -15.3878
   XY=              0.4358   XZ=             -0.0000   YZ=              0.0000

 Normal termination of Gaussian 09 at Thu Feb 16 18:28:02 2017.
