 Gaussian 09, Revision E.01,
 Gaussian 09:  ES64L-G09RevE.01 30-Nov-2015

 ----------------------------------------------------------------------
 #rhf/gen scf(tight,novaracc,noincfock,fulldiag) stable(crhf) guess=mix
  geom=nocrowd test
 ----------------------------------------------------------------------

 hf stability analysis of h12 triangular lattice, y= 0.9080427759821990
 7
 ----------------------------------------------------------------------
 Symbolic Z-matrix:
 Charge =  0 Multiplicity = 1

                         Standard orientation:
 ---------------------------------------------------------------------
 Center     Atomic      Atomic             Coordinates (Angstroms)
 Number     Number       Type             X           Y           Z
 ---------------------------------------------------------------------
      1          1           0        1.041664    2.041908    0.000000
      2          1           0        0.000000    1.662773   -0.000000
      3          1           0        1.041664    0.933392    0.000000
      4          1           0        0.000000    0.554258   -0.000000
      5          1           0       -1.041664    1.283639   -0.000000
      6          1           0       -1.041664    0.175123   -0.000000
      7          1           0       -1.041664   -0.933392    0.000000
      8          1           0       -0.000000   -0.554258    0.000000
      9          1           0        1.041664   -0.175123   -0.000000
     10          1           0        1.041664   -1.283639   -0.000000
     11          1           0       -0.000000   -1.662773    0.000000
     12          1           0       -1.041664   -2.041908    0.000000
 ---------------------------------------------------------------------

 SCF Done:  E(RHF) =  -5.83606702219     A.U. after   18 cycles
 E2 =    -0.1159757814D+00 EUMP2 =    -0.59520428035842D+01

 The electronic state is 1-AG.
 Alpha  occ. eigenvalues --   -0.99742  -0.79273  -0.67022  -0.53785  -0.42878
 Alpha  occ. eigenvalues --   -0.25769
 Alpha virt. eigenvalues --    0.01687   0.16522   0.26843   0.32665   0.57860
 Alpha virt. eigenvalues --    0.72377

 Mulliken charges:
               1
     1  H   -0.232184
     2  H    0.098728
     3  H    0.070163
     4  H    0.006674
     5  H   -0.063541
     6  H    0.120161
     7  H    0.070163
     8  H    0.006674
     9  H    0.120161
    10  H   -0.063541
    11  H    0.098728
    12  H   -0.232184
 Sum of Mulliken charges =   0.00000

 Dipole moment (field-independent basis, Debye):
    X=              0.0000    Y=              0.0000    Z=             -0.0000  Tot=              0.0000
 Quadrupole moment (field-independent basis, Debye-Ang):
   XX=            -17.7130   YY=            -28.0296   ZZ=            -15.2260
   XY=             -4.2357   XZ=              0.0000   YZ=              0.0000

 Normal termination of Gaussian 09 at Thu Feb 16 18:33:58 2017.
