 Gaussian 09, Revision E.01,
 Gaussian 09:  ES64L-G09RevE.01 30-Nov-2015

 ----------------------------------------------------------------------
 #rhf/gen scf(tight,novaracc,noincfock,fulldiag) stable(crhf) guess=mix
  geom=nocrowd test
 ----------------------------------------------------------------------

 hf stability analysis of h12 triangular lattice, y= 0.7868496627299574
 9
 ----------------------------------------------------------------------
 Symbolic Z-matrix:
 Charge =  0 Multiplicity = 1

                         Standard orientation:
 ---------------------------------------------------------------------
 Center     Atomic      Atomic             Coordinates (Angstroms)
 Number     Number       Type             X           Y           Z
 ---------------------------------------------------------------------
      1          1           0        1.073260    1.688871   -0.000000
      2          1           0        0.000000    1.613822   -0.000000
      3          1           0        1.073260    0.612990   -0.000000
      4          1           0        0.000000    0.537941   -0.000000
      5          1           0       -1.073260    1.538772   -0.000000
      6          1           0       -1.073260    0.462891   -0.000000
      7          1           0       -1.073260   -0.612990   -0.000000
      8          1           0       -0.000000   -0.537941   -0.000000
      9          1           0        1.073260   -0.462891    0.000000
     10          1           0        1.073260   -1.538772    0.000000
     11          1           0       -0.000000   -1.613822   -0.000000
     12          1           0       -1.073260   -1.688871   -0.000000
 ---------------------------------------------------------------------

 SCF Done:  E(RHF) =  -5.85367611123     A.U. after   16 cycles
 E2 =    -0.1380656772D+00 EUMP2 =    -0.59917417883902D+01

 The electronic state is 1-AG.
 Alpha  occ. eigenvalues --   -0.93713  -0.75488  -0.66349  -0.47071  -0.44025
 Alpha  occ. eigenvalues --   -0.26863
 Alpha virt. eigenvalues --    0.05615   0.18564   0.19394   0.50838   0.58229
 Alpha virt. eigenvalues --    0.99840

 Mulliken charges:
               1
     1  H    0.095429
     2  H   -0.057679
     3  H   -0.014981
     4  H   -0.052779
     5  H    0.038732
     6  H   -0.008723
     7  H   -0.014981
     8  H   -0.052779
     9  H   -0.008723
    10  H    0.038732
    11  H   -0.057679
    12  H    0.095429
 Sum of Mulliken charges =   0.00000

 Dipole moment (field-independent basis, Debye):
    X=             -0.0000    Y=              0.0000    Z=             -0.0000  Tot=              0.0000
 Quadrupole moment (field-independent basis, Debye-Ang):
   XX=            -19.3642   YY=            -14.9340   ZZ=            -15.1970
   XY=              1.2078   XZ=             -0.0000   YZ=              0.0000

 Normal termination of Gaussian 09 at Thu Feb 16 18:32:17 2017.
