 Gaussian 09, Revision E.01,
 Gaussian 09:  ES64L-G09RevE.01 30-Nov-2015

 ----------------------------------------------------------------------
 #rhf/gen scf(tight,novaracc,noincfock,fulldiag) stable(crhf) guess=mix
  geom=nocrowd test
 ----------------------------------------------------------------------

 ----------------------------------------------------------------------
 hf stability analysis of h12 triangular lattice, y= 1.4189643903365978
 ----------------------------------------------------------------------
 Symbolic Z-matrix:
 Charge =  0 Multiplicity = 1

                         Standard orientation:
 ---------------------------------------------------------------------
 Center     Atomic      Atomic             Coordinates (Angstroms)
 Number     Number       Type             X           Y           Z
 ---------------------------------------------------------------------
      1          1           0        0.782239    3.466066   -0.000000
      2          1           0        0.000000    2.214222   -0.000000
      3          1           0        0.782239    1.989918   -0.000000
      4          1           0        0.000000    0.738074   -0.000000
      5          1           0       -0.782239    0.962377   -0.000000
      6          1           0       -0.782239   -0.513770    0.000000
      7          1           0       -0.782239   -1.989918   -0.000000
      8          1           0       -0.000000   -0.738074   -0.000000
      9          1           0        0.782239    0.513770   -0.000000
     10          1           0        0.782239   -0.962377   -0.000000
     11          1           0       -0.000000   -2.214222   -0.000000
     12          1           0       -0.782239   -3.466066   -0.000000
 ---------------------------------------------------------------------

 SCF Done:  E(RHF) =  -5.75884424289     A.U. after   14 cycles
 E2 =    -0.1854614390D+00 EUMP2 =    -0.59443056818795D+01

 The electronic state is 1-AG.
 Alpha  occ. eigenvalues --   -0.86025  -0.74861  -0.61525  -0.49951  -0.39769
 Alpha  occ. eigenvalues --   -0.17342
 Alpha virt. eigenvalues --   -0.02274  -0.00495   0.37633   0.44600   0.61492
 Alpha virt. eigenvalues --    0.84689

 Mulliken charges:
               1
     1  H    0.043531
     2  H    0.100294
     3  H   -0.024045
     4  H   -0.136234
     5  H   -0.029056
     6  H    0.045510
     7  H   -0.024045
     8  H   -0.136234
     9  H    0.045510
    10  H   -0.029056
    11  H    0.100294
    12  H    0.043531
 Sum of Mulliken charges =  -0.00000

 Dipole moment (field-independent basis, Debye):
    X=             -0.0000    Y=             -0.0000    Z=             -0.0000  Tot=              0.0000
 Quadrupole moment (field-independent basis, Debye-Ang):
   XX=            -16.7900   YY=            -11.6700   ZZ=            -15.3040
   XY=              0.3268   XZ=              0.0000   YZ=             -0.0000

 Normal termination of Gaussian 09 at Thu Feb 16 18:37:55 2017.
