 Gaussian 09, Revision E.01,
 Gaussian 09:  ES64L-G09RevE.01 30-Nov-2015

 ----------------------------------------------------------------------
 #rhf/gen scf(tight,novaracc,noincfock,fulldiag) stable(crhf) guess=mix
  geom=nocrowd test
 ----------------------------------------------------------------------

 hf stability analysis of h12 triangular lattice, y= 0.9251794552834028
 4
 ----------------------------------------------------------------------
 Symbolic Z-matrix:
 Charge =  0 Multiplicity = 1

                         Standard orientation:
 ---------------------------------------------------------------------
 Center     Atomic      Atomic             Coordinates (Angstroms)
 Number     Number       Type             X           Y           Z
 ---------------------------------------------------------------------
      1          1           0        1.034708    2.092001   -0.000000
      2          1           0        0.000000    1.673952   -0.000000
      3          1           0        1.034708    0.976033   -0.000000
      4          1           0        0.000000    0.557984   -0.000000
      5          1           0       -1.034708    1.255903   -0.000000
      6          1           0       -1.034708    0.139935   -0.000000
      7          1           0       -1.034708   -0.976033   -0.000000
      8          1           0       -0.000000   -0.557984   -0.000000
      9          1           0        1.034708   -0.139935   -0.000000
     10          1           0        1.034708   -1.255903   -0.000000
     11          1           0       -0.000000   -1.673952   -0.000000
     12          1           0       -1.034708   -2.092001   -0.000000
 ---------------------------------------------------------------------

 SCF Done:  E(RHF) =  -5.85626492823     A.U. after   17 cycles
 E2 =    -0.1152631809D+00 EUMP2 =    -0.59715281091246D+01

 The electronic state is 1-AG.
 Alpha  occ. eigenvalues --   -0.99374  -0.79294  -0.66338  -0.54252  -0.42168
 Alpha  occ. eigenvalues --   -0.26767
 Alpha virt. eigenvalues --    0.02951   0.17430   0.28289   0.30848   0.57905
 Alpha virt. eigenvalues --    0.68712

 Mulliken charges:
               1
     1  H   -0.217681
     2  H    0.097075
     3  H    0.068953
     4  H    0.003374
     5  H   -0.062225
     6  H    0.110505
     7  H    0.068953
     8  H    0.003374
     9  H    0.110505
    10  H   -0.062225
    11  H    0.097075
    12  H   -0.217681
 Sum of Mulliken charges =   0.00000

 Dipole moment (field-independent basis, Debye):
    X=              0.0000    Y=             -0.0000    Z=              0.0000  Tot=              0.0000
 Quadrupole moment (field-independent basis, Debye-Ang):
   XX=            -17.7204   YY=            -27.7136   ZZ=            -15.2458
   XY=             -3.9443   XZ=             -0.0000   YZ=             -0.0000

 Normal termination of Gaussian 09 at Thu Feb 16 18:34:11 2017.
