 Gaussian 09, Revision E.01,
 Gaussian 09:  ES64L-G09RevE.01 30-Nov-2015

 ----------------------------------------------------------------------
 #rhf/gen scf(tight,novaracc,noincfock,fulldiag) stable(crhf) guess=mix
  geom=nocrowd test
 ----------------------------------------------------------------------

 ----------------------------------------------------------------------
 hf stability analysis of h12 triangular lattice, y= 2.0268354180156947
 ----------------------------------------------------------------------
 Symbolic Z-matrix:
 Charge =  0 Multiplicity = 1

                         Standard orientation:
 ---------------------------------------------------------------------
 Center     Atomic      Atomic             Coordinates (Angstroms)
 Number     Number       Type             X           Y           Z
 ---------------------------------------------------------------------
      1          1           0        0.564162    5.037598    0.000000
      2          1           0        0.000000    3.070131   -0.000000
      3          1           0        0.564162    2.990844    0.000000
      4          1           0        0.000000    1.023377   -0.000000
      5          1           0       -0.564162    1.102665   -0.000000
      6          1           0       -0.564162   -0.944089   -0.000000
      7          1           0       -0.564162   -2.990844    0.000000
      8          1           0       -0.000000   -1.023377   -0.000000
      9          1           0        0.564162    0.944089   -0.000000
     10          1           0        0.564162   -1.102665   -0.000000
     11          1           0       -0.000000   -3.070131   -0.000000
     12          1           0       -0.564162   -5.037598   -0.000000
 ---------------------------------------------------------------------

 SCF Done:  E(RHF) =  -5.20276194339     A.U. after   17 cycles
 E2 =    -0.8717440826D+00 EUMP2 =    -0.60745060259787D+01

 The electronic state is 1-AG.
 Alpha  occ. eigenvalues --   -0.90373  -0.85269  -0.69401  -0.69052  -0.27138
 Alpha  occ. eigenvalues --   -0.20102
 Alpha virt. eigenvalues --   -0.14837   0.04708   0.54848   0.55569   1.13152
 Alpha virt. eigenvalues --    1.29276

 Mulliken charges:
               1
     1  H   -0.003523
     2  H   -0.005348
     3  H   -0.000221
     4  H   -0.417771
     5  H    0.218414
     6  H    0.208449
     7  H   -0.000221
     8  H   -0.417771
     9  H    0.208449
    10  H    0.218414
    11  H   -0.005348
    12  H   -0.003523
 Sum of Mulliken charges =  -0.00000

 Dipole moment (field-independent basis, Debye):
    X=              0.0000    Y=              0.0000    Z=             -0.0000  Tot=              0.0000
 Quadrupole moment (field-independent basis, Debye-Ang):
   XX=            -16.3871   YY=            -18.9443   ZZ=            -15.5026
   XY=             -0.6610   XZ=              0.0000   YZ=             -0.0000

 Normal termination of Gaussian 09 at Thu Feb 16 18:39:31 2017.
