 Gaussian 09, Revision E.01,
 Gaussian 09:  ES64L-G09RevE.01 30-Nov-2015

 -----------------------
 #T ccsd/3-21g scan test
 -----------------------

 pes of trapezoidal model of four H atoms scanned over varying values o
 f angle delta, using ccsd in 3-21g basis
 ----------------------------------------------------------------------
 Symbolic Z-matrix:
 Charge =  0 Multiplicity = 1

 SCF Done:  E(RHF) =  -1.82216786253     A.U. after    7 cycles
 E2 =    -0.4675014569D-01 EUMP2 =    -0.18689180082199D+01

 Unable to determine electronic state:  an orbital has unidentified symmetry.
 Alpha  occ. eigenvalues --   -0.51853  -0.26528
 Alpha virt. eigenvalues --   -0.08921   0.14184   1.11384   1.11788   1.29277
 Alpha virt. eigenvalues --    1.32729

 Mulliken charges:
               1
     1  H    0.455532
     2  H   -0.455532
     3  H   -0.455532
     4  H    0.455532
 Sum of Mulliken charges =  -0.00000

 Dipole moment (field-independent basis, Debye):
    X=             -0.0000    Y=              0.0000    Z=             -0.0000  Tot=              0.0000
 Variable Step   Value
 -------- ---- -----------
     1       1    1.658063
 ---------------------------------------------------------------------------------------------------
                            Z-MATRIX (ANGSTROMS AND DEGREES)
   CD    Cent   Atom    N1       Length/X        N2       Alpha/Y        N3        Beta/Z          J
 ---------------------------------------------------------------------------------------------------
      1      1  H
      2      2  H        1   1.600000(     1)
      3      3  H        1   1.600000(     2)      2   95.000(     4)

 SCF Done:  E(RHF) =  -1.89524708618     A.U. after   10 cycles
 E2 =    -0.7543738312D-01 EUMP2 =    -0.19706844693050D+01
 SCF Done:  E(RHF) =  -1.91278305244     A.U. after    7 cycles
 E2 =    -0.7150307849D-01 EUMP2 =    -0.19842861309332D+01
 SCF Done:  E(RHF) =  -1.92519662923     A.U. after    7 cycles
 E2 =    -0.6882114732D-01 EUMP2 =    -0.19940177765538D+01
 SCF Done:  E(RHF) =  -1.93373873877     A.U. after    6 cycles
 E2 =    -0.6715416710D-01 EUMP2 =    -0.20008929058722D+01
 SCF Done:  E(RHF) =  -1.93955044226     A.U. after    6 cycles
 E2 =    -0.6615863481D-01 EUMP2 =    -0.20057090770720D+01
 SCF Done:  E(RHF) =  -1.94349352497     A.U. after    6 cycles
 E2 =    -0.6558481795D-01 EUMP2 =    -0.20090783429195D+01
 SCF Done:  E(RHF) =  -1.94617361459     A.U. after    6 cycles
 E2 =    -0.6527186652D-01 EUMP2 =    -0.20114454811098D+01
 SCF Done:  E(RHF) =  -1.94800156580     A.U. after    6 cycles
 E2 =    -0.6511875167D-01 EUMP2 =    -0.20131203174657D+01
 SCF Done:  E(RHF) =  -1.94925392581     A.U. after    6 cycles
 E2 =    -0.6506153071D-01 EUMP2 =    -0.20143154565253D+01
 SCF Done:  E(RHF) =  -1.95011774082     A.U. after    6 cycles
 E2 =    -0.6505929077D-01 EUMP2 =    -0.20151770315933D+01
 SCF Done:  E(RHF) =  -1.95071946031     A.U. after    6 cycles
 E2 =    -0.6508594861D-01 EUMP2 =    -0.20158054089135D+01
 SCF Done:  E(RHF) =  -1.95114354942     A.U. after    6 cycles
 E2 =    -0.6512519819D-01 EUMP2 =    -0.20162687476116D+01
 SCF Done:  E(RHF) =  -1.95144534881     A.U. after    6 cycles
 E2 =    -0.6516713370D-01 EUMP2 =    -0.20166124825147D+01
 SCF Done:  E(RHF) =  -1.95166036684     A.U. after    6 cycles
 E2 =    -0.6520592232D-01 EUMP2 =    -0.20168662891594D+01
 SCF Done:  E(RHF) =  -1.95181092756     A.U. after    6 cycles
 E2 =    -0.6523823395D-01 EUMP2 =    -0.20170491615099D+01
 SCF Done:  E(RHF) =  -1.95191073414     A.U. after    6 cycles
 E2 =    -0.6526222757D-01 EUMP2 =    -0.20171729617096D+01
 SCF Done:  E(RHF) =  -1.95196783779     A.U. after    6 cycles
 E2 =    -0.6527692951D-01 EUMP2 =    -0.20172447672922D+01

                         Standard orientation:
 ---------------------------------------------------------------------
 Center     Atomic      Atomic             Coordinates (Angstroms)
 Number     Number       Type             X           Y           Z
 ---------------------------------------------------------------------
      1          1           0        0.000000    0.000000    0.800000
      2          1           0        0.000000    0.000000   -0.800000
      3          1           0        0.000000    0.000000    2.400000
      4          1           0        0.000000    0.000000   -2.400000
 ---------------------------------------------------------------------

 SCF Done:  E(RHF) =  -1.95198643858     A.U. after    6 cycles
 E2 =    -0.6528187559D-01 EUMP2 =    -0.20172683141641D+01
 Normal termination of Gaussian 09 at Mon Dec  5 12:02:09 2016.
