 Gaussian 09, Revision E.01,
 Gaussian 09:  ES64L-G09RevE.01 30-Nov-2015

 ----------------------------------------------------------------------
 #rhf/gen scf(tight,novaracc,noincfock,fulldiag) stable(crhf) guess=rea
 d geom=nocrowd test
 ----------------------------------------------------------------------

 hf stability analysis of h10 triangular lattice, y= 0.9609611370972268
 6
 ----------------------------------------------------------------------
 Symbolic Z-matrix:
 Charge =  0 Multiplicity = 1

                         Standard orientation:
 ---------------------------------------------------------------------
 Center     Atomic      Atomic             Coordinates (Angstroms)
 Number     Number       Type             X           Y           Z
 ---------------------------------------------------------------------
      1          1           0        3.223719   -0.553092    0.000000
      2          1           0        3.223719   -2.317492    0.000000
      3          1           0        1.611860    0.164554   -0.000000
      4          1           0        1.611860   -1.599846    0.000000
      5          1           0        0.000000    0.882200   -0.000000
      6          1           0       -0.000000   -0.882200   -0.000000
      7          1           0       -1.611860    1.599846    0.000000
      8          1           0       -1.611860   -0.164554   -0.000000
      9          1           0       -3.223719    2.317492    0.000000
     10          1           0       -3.223719    0.553092    0.000000
 ---------------------------------------------------------------------

 SCF Done:  E(RHF) =  -4.66696884877     A.U. after   11 cycles
 E2 =    -0.1871031579D+00 EUMP2 =    -0.48540720066612D+01

 The electronic state is 1-AG.
 Alpha  occ. eigenvalues --   -0.55674  -0.49318  -0.39046  -0.33492  -0.26357
 Alpha virt. eigenvalues --   -0.09052   0.01658   0.04295   0.14189   0.18042

 Mulliken charges:
               1
     1  H   -0.069241
     2  H    0.060597
     3  H   -0.057575
     4  H    0.055344
     5  H    0.010875
     6  H    0.010875
     7  H    0.055344
     8  H   -0.057575
     9  H    0.060597
    10  H   -0.069241
 Sum of Mulliken charges =   0.00000

 Dipole moment (field-independent basis, Debye):
    X=              0.0000    Y=             -0.0000    Z=              0.0000  Tot=              0.0000
 Quadrupole moment (field-independent basis, Debye-Ang):
   XX=            -11.2794   YY=            -10.4177   ZZ=            -14.2475
   XY=             -7.5672   XZ=              0.0000   YZ=             -0.0000

 Normal termination of Gaussian 09 at Fri Feb 10 11:17:11 2017.
