 Gaussian 09, Revision E.01,
 Gaussian 09:  ES64L-G09RevE.01 30-Nov-2015

 ----------------------------------------------------------------------
 #rhf/gen scf(tight,novaracc,noincfock,fulldiag) stable(crhf) guess=rea
 d geom=nocrowd test
 ----------------------------------------------------------------------

 ----------------------------------------------------------------------
 hf stability analysis of h10 triangular lattice, y= 1.0862731327250787
 ----------------------------------------------------------------------
 Symbolic Z-matrix:
 Charge =  0 Multiplicity = 1

                         Standard orientation:
 ---------------------------------------------------------------------
 Center     Atomic      Atomic             Coordinates (Angstroms)
 Number     Number       Type             X           Y           Z
 ---------------------------------------------------------------------
      1          1           0        3.423980    0.028506   -0.000000
      2          1           0        3.423980   -1.735894   -0.000000
      3          1           0        1.711990    0.455353    0.000000
      4          1           0        1.711990   -1.309047   -0.000000
      5          1           0        0.000000    0.882200    0.000000
      6          1           0       -0.000000   -0.882200    0.000000
      7          1           0       -1.711990    1.309047   -0.000000
      8          1           0       -1.711990   -0.455353    0.000000
      9          1           0       -3.423980    1.735894   -0.000000
     10          1           0       -3.423980   -0.028506    0.000000
 ---------------------------------------------------------------------

 SCF Done:  E(RHF) =  -4.69622101090     A.U. after   10 cycles
 E2 =    -0.1812660688D+00 EUMP2 =    -0.48774870796658D+01

 The electronic state is 1-AG.
 Alpha  occ. eigenvalues --   -0.54850  -0.48509  -0.38019  -0.35225  -0.28221
 Alpha virt. eigenvalues --   -0.08028  -0.01006   0.05253   0.12342   0.21097

 Mulliken charges:
               1
     1  H   -0.037465
     2  H    0.040962
     3  H   -0.022212
     4  H    0.027846
     5  H   -0.009131
     6  H   -0.009131
     7  H    0.027846
     8  H   -0.022212
     9  H    0.040962
    10  H   -0.037465
 Sum of Mulliken charges =   0.00000

 Dipole moment (field-independent basis, Debye):
    X=              0.0000    Y=              0.0000    Z=             -0.0000  Tot=              0.0000
 Quadrupole moment (field-independent basis, Debye-Ang):
   XX=             -8.8130   YY=            -13.9448   ZZ=            -14.3278
   XY=             -5.0234   XZ=             -0.0000   YZ=              0.0000

 Normal termination of Gaussian 09 at Fri Feb 10 11:17:01 2017.
