 Gaussian 09, Revision E.01,
 Gaussian 09:  ES64L-G09RevE.01 30-Nov-2015

 ----------------------------------------------------------------------
 #rhf/gen scf(tight,novaracc,noincfock,fulldiag) stable(crhf) guess=rea
 d geom=nocrowd test
 ----------------------------------------------------------------------

 hf stability analysis of h10 triangular lattice, y= 0.6609558909028850
 9
 ----------------------------------------------------------------------
 Symbolic Z-matrix:
 Charge =  0 Multiplicity = 1

                         Standard orientation:
 ---------------------------------------------------------------------
 Center     Atomic      Atomic             Coordinates (Angstroms)
 Number     Number       Type             X           Y           Z
 ---------------------------------------------------------------------
      1          1           0        2.451310   -1.656206   -0.000000
      2          1           0        2.451310   -3.420606   -0.000000
      3          1           0        1.225655   -0.387003   -0.000000
      4          1           0        1.225655   -2.151403   -0.000000
      5          1           0       -0.000000    0.882200    0.000000
      6          1           0       -0.000000   -0.882200   -0.000000
      7          1           0       -1.225655    2.151403   -0.000000
      8          1           0       -1.225655    0.387003   -0.000000
      9          1           0       -2.451310    3.420606   -0.000000
     10          1           0       -2.451310    1.656206   -0.000000
 ---------------------------------------------------------------------

 SCF Done:  E(RHF) =  -4.70563340649     A.U. after   12 cycles
 E2 =    -0.2700984697D+00 EUMP2 =    -0.49757318761886D+01

 The electronic state is 1-AG.
 Alpha  occ. eigenvalues --   -0.63467  -0.57511  -0.47470  -0.34839  -0.14235
 Alpha virt. eigenvalues --   -0.04391   0.01598   0.06877   0.15702   0.22001

 Mulliken charges:
               1
     1  H    0.033739
     2  H   -0.214391
     3  H    0.003191
     4  H    0.159696
     5  H    0.017765
     6  H    0.017765
     7  H    0.159696
     8  H    0.003191
     9  H   -0.214391
    10  H    0.033739
 Sum of Mulliken charges =  -0.00000

 Dipole moment (field-independent basis, Debye):
    X=              0.0000    Y=             -0.0000    Z=              0.0000  Tot=              0.0000
 Quadrupole moment (field-independent basis, Debye-Ang):
   XX=            -20.5353   YY=            -30.9244   ZZ=            -13.7650
   XY=             14.4244   XZ=              0.0000   YZ=             -0.0000

 Normal termination of Gaussian 09 at Fri Feb 10 11:17:32 2017.
