 Gaussian 09, Revision E.01,
 Gaussian 09:  ES64L-G09RevE.01 30-Nov-2015

 ----------------------------------------------------------------------
 #rhf/gen scf(tight,novaracc,noincfock,fulldiag) stable(crhf) guess=rea
 d geom=nocrowd test
 ----------------------------------------------------------------------

 hf stability analysis of h10 triangular lattice, y= 0.4863345637833727
 5
 ----------------------------------------------------------------------
 Symbolic Z-matrix:
 Charge =  0 Multiplicity = 1

                         Standard orientation:
 ---------------------------------------------------------------------
 Center     Atomic      Atomic             Coordinates (Angstroms)
 Number     Number       Type             X           Y           Z
 ---------------------------------------------------------------------
      1          1           0        1.869979   -2.110392    0.000000
      2          1           0        1.869979   -3.874792    0.000000
      3          1           0        0.934990   -0.614096    0.000000
      4          1           0        0.934990   -2.378496    0.000000
      5          1           0       -0.000000    0.882200    0.000000
      6          1           0       -0.000000   -0.882200    0.000000
      7          1           0       -0.934990    2.378496   -0.000000
      8          1           0       -0.934990    0.614096   -0.000000
      9          1           0       -1.869979    3.874792   -0.000000
     10          1           0       -1.869979    2.110392   -0.000000
 ---------------------------------------------------------------------

 SCF Done:  E(RHF) =  -4.94142318459     A.U. after    9 cycles
 E2 =    -0.5071148062D+00 EUMP2 =    -0.54485379907693D+01

 The electronic state is 1-AG.
 Alpha  occ. eigenvalues --   -0.68123  -0.62794  -0.54398  -0.44194  -0.15693
 Alpha virt. eigenvalues --   -0.08300   0.13333   0.20774   0.31225   0.40617

 Mulliken charges:
               1
     1  H    0.025956
     2  H   -0.112842
     3  H    0.010071
     4  H    0.060324
     5  H    0.016491
     6  H    0.016491
     7  H    0.060324
     8  H    0.010071
     9  H   -0.112842
    10  H    0.025956
 Sum of Mulliken charges =   0.00000

 Dipole moment (field-independent basis, Debye):
    X=             -0.0000    Y=              0.0000    Z=              0.0000  Tot=              0.0000
 Quadrupole moment (field-independent basis, Debye-Ang):
   XX=            -14.3603   YY=            -28.2351   ZZ=            -13.4161
   XY=              8.0501   XZ=             -0.0000   YZ=              0.0000

 Normal termination of Gaussian 09 at Fri Feb 10 11:17:44 2017.
