 Gaussian 09, Revision E.01,
 Gaussian 09:  ES64L-G09RevE.01 30-Nov-2015

 ----------------------------------------------------------------------
 #rhf/gen scf(tight,novaracc,noincfock,fulldiag) stable(crhf) guess=rea
 d geom=nocrowd test
 ----------------------------------------------------------------------

 hf stability analysis of h10 triangular lattice, y= 0.7176461518313748
 1
 ----------------------------------------------------------------------
 Symbolic Z-matrix:
 Charge =  0 Multiplicity = 1

                         Standard orientation:
 ---------------------------------------------------------------------
 Center     Atomic      Atomic             Coordinates (Angstroms)
 Number     Number       Type             X           Y           Z
 ---------------------------------------------------------------------
      1          1           0        2.622409   -1.479028    0.000000
      2          1           0        2.622409   -3.243428    0.000000
      3          1           0        1.311205   -0.298414    0.000000
      4          1           0        1.311205   -2.062814    0.000000
      5          1           0       -0.000000    0.882200    0.000000
      6          1           0       -0.000000   -0.882200   -0.000000
      7          1           0       -1.311205    2.062814    0.000000
      8          1           0       -1.311205    0.298414    0.000000
      9          1           0       -2.622409    3.243428    0.000000
     10          1           0       -2.622409    1.479028    0.000000
 ---------------------------------------------------------------------

 SCF Done:  E(RHF) =  -4.64920970652     A.U. after   12 cycles
 E2 =    -0.2088897552D+00 EUMP2 =    -0.48580994617574D+01

 The electronic state is 1-AG.
 Alpha  occ. eigenvalues --   -0.61365  -0.55744  -0.45163  -0.31674  -0.16614
 Alpha virt. eigenvalues --   -0.05914   0.02941   0.04313   0.12817   0.18719

 Mulliken charges:
               1
     1  H    0.029043
     2  H   -0.187101
     3  H   -0.055709
     4  H    0.183710
     5  H    0.030056
     6  H    0.030056
     7  H    0.183710
     8  H   -0.055709
     9  H   -0.187101
    10  H    0.029043
 Sum of Mulliken charges =   0.00000

 Dipole moment (field-independent basis, Debye):
    X=              0.0000    Y=             -0.0000    Z=             -0.0000  Tot=              0.0000
 Quadrupole moment (field-independent basis, Debye-Ang):
   XX=            -20.9953   YY=            -24.8267   ZZ=            -13.9035
   XY=             11.0543   XZ=              0.0000   YZ=             -0.0000

 Normal termination of Gaussian 09 at Fri Feb 10 11:17:28 2017.
