 Gaussian 09, Revision E.01,
 Gaussian 09:  ES64L-G09RevE.01 30-Nov-2015

 ----------------------------------------------------------------------
 #rhf/gen scf(tight,novaracc,noincfock,fulldiag) stable(crhf) guess=rea
 d geom=nocrowd test
 ----------------------------------------------------------------------

 hf stability analysis of h10 triangular lattice, y= 0.6323044269781495
 9
 ----------------------------------------------------------------------
 Symbolic Z-matrix:
 Charge =  0 Multiplicity = 1

                         Standard orientation:
 ---------------------------------------------------------------------
 Center     Atomic      Atomic             Coordinates (Angstroms)
 Number     Number       Type             X           Y           Z
 ---------------------------------------------------------------------
      1          1           0        2.361228   -1.740209   -0.000000
      2          1           0        2.361228   -3.504609   -0.000000
      3          1           0        1.180614   -0.429005   -0.000000
      4          1           0        1.180614   -2.193405   -0.000000
      5          1           0        0.000000    0.882200    0.000000
      6          1           0       -0.000000   -0.882200    0.000000
      7          1           0       -1.180614    2.193405   -0.000000
      8          1           0       -1.180614    0.429005   -0.000000
      9          1           0       -2.361228    3.504609   -0.000000
     10          1           0       -2.361228    1.740209   -0.000000
 ---------------------------------------------------------------------

 SCF Done:  E(RHF) =  -4.74332647708     A.U. after   12 cycles
 E2 =    -0.3218059019D+00 EUMP2 =    -0.50651323789374D+01

 The electronic state is 1-AG.
 Alpha  occ. eigenvalues --   -0.64373  -0.58300  -0.48567  -0.36458  -0.13842
 Alpha virt. eigenvalues --   -0.04483   0.02296   0.08661   0.17619   0.24269

 Mulliken charges:
               1
     1  H    0.036951
     2  H   -0.210752
     3  H    0.014623
     4  H    0.137876
     5  H    0.021302
     6  H    0.021302
     7  H    0.137876
     8  H    0.014623
     9  H   -0.210752
    10  H    0.036951
 Sum of Mulliken charges =  -0.00000

 Dipole moment (field-independent basis, Debye):
    X=             -0.0000    Y=              0.0000    Z=              0.0000  Tot=              0.0000
 Quadrupole moment (field-independent basis, Debye-Ang):
   XX=            -19.6065   YY=            -32.5325   ZZ=            -13.7005
   XY=             14.6014   XZ=              0.0000   YZ=             -0.0000

 Normal termination of Gaussian 09 at Fri Feb 10 11:17:34 2017.
