 Gaussian 09, Revision E.01,
 Gaussian 09:  ES64L-G09RevE.01 30-Nov-2015

 ----------------------------------------------------------------------
 #rhf/gen scf(tight,novaracc,noincfock,fulldiag) stable(crhf) guess=rea
 d geom=nocrowd test
 ----------------------------------------------------------------------

 hf stability analysis of h10 triangular lattice, y= 0.3969036511389808
 5
 ----------------------------------------------------------------------
 Symbolic Z-matrix:
 Charge =  0 Multiplicity = 1

                         Standard orientation:
 ---------------------------------------------------------------------
 Center     Atomic      Atomic             Coordinates (Angstroms)
 Number     Number       Type             X           Y           Z
 ---------------------------------------------------------------------
      1          1           0        1.546924   -2.289464   -0.000000
      2          1           0        1.546924   -4.053864   -0.000000
      3          1           0        0.773462   -0.703632   -0.000000
      4          1           0        0.773462   -2.468032   -0.000000
      5          1           0        0.000000    0.882200    0.000000
      6          1           0       -0.000000   -0.882200    0.000000
      7          1           0       -0.773462    2.468032   -0.000000
      8          1           0       -0.773462    0.703632   -0.000000
      9          1           0       -1.546924    4.053864   -0.000000
     10          1           0       -1.546924    2.289464   -0.000000
 ---------------------------------------------------------------------

 SCF Done:  E(RHF) =  -4.98984245010     A.U. after    8 cycles
 E2 =    -0.5932308770D+00 EUMP2 =    -0.55830733270782D+01

 The electronic state is 1-AG.
 Alpha  occ. eigenvalues --   -0.71414  -0.66745  -0.59234  -0.50260  -0.17257
 Alpha virt. eigenvalues --   -0.10517   0.22867   0.30905   0.42768   0.54142

 Mulliken charges:
               1
     1  H    0.016331
     2  H   -0.059197
     3  H    0.003921
     4  H    0.030188
     5  H    0.008757
     6  H    0.008757
     7  H    0.030188
     8  H    0.003921
     9  H   -0.059197
    10  H    0.016331
 Sum of Mulliken charges =  -0.00000

 Dipole moment (field-independent basis, Debye):
    X=             -0.0000    Y=              0.0000    Z=              0.0000  Tot=              0.0000
 Quadrupole moment (field-independent basis, Debye-Ang):
   XX=            -12.8614   YY=            -23.6196   ZZ=            -13.2254
   XY=              4.4755   XZ=             -0.0000   YZ=              0.0000

 Normal termination of Gaussian 09 at Fri Feb 10 11:17:50 2017.
