 Gaussian 09, Revision E.01,
 Gaussian 09:  ES64L-G09RevE.01 30-Nov-2015

 ----------------------------------------------------------------------
 #rhf/gen scf(tight,novaracc,noincfock,fulldiag) stable(crhf) guess=rea
 d geom=nocrowd test
 ----------------------------------------------------------------------

 hf stability analysis of h10 triangular lattice, y= 0.9087332021420028
 2
 ----------------------------------------------------------------------
 Symbolic Z-matrix:
 Charge =  0 Multiplicity = 1

                         Standard orientation:
 ---------------------------------------------------------------------
 Center     Atomic      Atomic             Coordinates (Angstroms)
 Number     Number       Type             X           Y           Z
 ---------------------------------------------------------------------
      1          1           0        3.115745   -0.774471   -0.000000
      2          1           0        3.115745   -2.538871   -0.000000
      3          1           0        1.557873    0.053864   -0.000000
      4          1           0        1.557873   -1.710536   -0.000000
      5          1           0        0.000000    0.882200    0.000000
      6          1           0       -0.000000   -0.882200    0.000000
      7          1           0       -1.557873    1.710536   -0.000000
      8          1           0       -1.557873   -0.053864    0.000000
      9          1           0       -3.115745    2.538871   -0.000000
     10          1           0       -3.115745    0.774471   -0.000000
 ---------------------------------------------------------------------

 SCF Done:  E(RHF) =  -4.64991163383     A.U. after   12 cycles
 E2 =    -0.1916516055D+00 EUMP2 =    -0.48415632393431D+01

 The electronic state is 1-AG.
 Alpha  occ. eigenvalues --   -0.56311  -0.49875  -0.39681  -0.32454  -0.25351
 Alpha virt. eigenvalues --   -0.09376   0.03035   0.03745   0.15255   0.16271

 Mulliken charges:
               1
     1  H   -0.076505
     2  H    0.055627
     3  H   -0.082919
     4  H    0.072781
     5  H    0.031016
     6  H    0.031016
     7  H    0.072781
     8  H   -0.082919
     9  H    0.055627
    10  H   -0.076505
 Sum of Mulliken charges =  -0.00000

 Dipole moment (field-independent basis, Debye):
    X=              0.0000    Y=             -0.0000    Z=             -0.0000  Tot=              0.0000
 Quadrupole moment (field-independent basis, Debye-Ang):
   XX=            -13.0693   YY=             -9.1497   ZZ=            -14.1998
   XY=             -7.4213   XZ=              0.0000   YZ=              0.0000

 Normal termination of Gaussian 09 at Fri Feb 10 11:17:15 2017.
