 Gaussian 09, Revision E.01,
 Gaussian 09:  ES64L-G09RevE.01 30-Nov-2015

 ----------------------------------------------------------------------
 #rhf/gen scf(tight,novaracc,noincfock,fulldiag) stable(crhf) guess=rea
 d geom=nocrowd test
 ----------------------------------------------------------------------

 hf stability analysis of h10 triangular lattice, y= 0.8822000222638896
 0
 ----------------------------------------------------------------------
 Symbolic Z-matrix:
 Charge =  0 Multiplicity = 1

                         Standard orientation:
 ---------------------------------------------------------------------
 Center     Atomic      Atomic             Coordinates (Angstroms)
 Number     Number       Type             X           Y           Z
 ---------------------------------------------------------------------
      1          1           0        3.056030   -0.882200   -0.000000
      2          1           0        3.056030   -2.646600   -0.000000
      3          1           0        1.528015    0.000000   -0.000000
      4          1           0        1.528015   -1.764400   -0.000000
      5          1           0        0.000000    0.882200    0.000000
      6          1           0       -0.000000   -0.882200    0.000000
      7          1           0       -1.528015    1.764400   -0.000000
      8          1           0       -1.528015    0.000000   -0.000000
      9          1           0       -3.056030    2.646600   -0.000000
     10          1           0       -3.056030    0.882200   -0.000000
 ---------------------------------------------------------------------

 SCF Done:  E(RHF) =  -4.64067446231     A.U. after   12 cycles
 E2 =    -0.1943088610D+00 EUMP2 =    -0.48349833232897D+01

 The electronic state is 1-AG.
 Alpha  occ. eigenvalues --   -0.56778  -0.50249  -0.40086  -0.31858  -0.24814
 Alpha virt. eigenvalues --   -0.09466   0.03504   0.03748   0.15211   0.15772

 Mulliken charges:
               1
     1  H   -0.074034
     2  H    0.043994
     3  H   -0.099374
     4  H    0.082334
     5  H    0.047081
     6  H    0.047081
     7  H    0.082334
     8  H   -0.099374
     9  H    0.043994
    10  H   -0.074034
 Sum of Mulliken charges =  -0.00000

 Dipole moment (field-independent basis, Debye):
    X=             -0.0000    Y=             -0.0000    Z=              0.0000  Tot=              0.0000
 Quadrupole moment (field-independent basis, Debye-Ang):
   XX=            -14.2459   YY=             -9.0467   ZZ=            -14.1713
   XY=             -6.6196   XZ=              0.0000   YZ=              0.0000

 Normal termination of Gaussian 09 at Fri Feb 10 11:17:17 2017.
