 Gaussian 09, Revision E.01,
 Gaussian 09:  ES64L-G09RevE.01 30-Nov-2015

 ----------------------------------------------------------------------
 #rhf/gen scf(tight,novaracc,noincfock,fulldiag) stable(crhf) guess=rea
 d geom=nocrowd test
 ----------------------------------------------------------------------

 ----------------------------------------------------------------------
 hf stability analysis of h10 triangular lattice, y= 1.0370883241028119
 ----------------------------------------------------------------------
 Symbolic Z-matrix:
 Charge =  0 Multiplicity = 1

                         Standard orientation:
 ---------------------------------------------------------------------
 Center     Atomic      Atomic             Coordinates (Angstroms)
 Number     Number       Type             X           Y           Z
 ---------------------------------------------------------------------
      1          1           0        3.356088   -0.208259    0.000000
      2          1           0        3.356088   -1.972659    0.000000
      3          1           0        1.678044    0.336970    0.000000
      4          1           0        1.678044   -1.427430    0.000000
      5          1           0       -0.000000    0.882200    0.000000
      6          1           0       -0.000000   -0.882200    0.000000
      7          1           0       -1.678044    1.427430    0.000000
      8          1           0       -1.678044   -0.336970    0.000000
      9          1           0       -3.356088    1.972659    0.000000
     10          1           0       -3.356088    0.208259    0.000000
 ---------------------------------------------------------------------

 SCF Done:  E(RHF) =  -4.68682380277     A.U. after   10 cycles
 E2 =    -0.1828855926D+00 EUMP2 =    -0.48697093953786D+01

 The electronic state is 1-AG.
 Alpha  occ. eigenvalues --   -0.55097  -0.48762  -0.38356  -0.34665  -0.27594
 Alpha virt. eigenvalues --   -0.08436  -0.00082   0.04965   0.12913   0.20074

 Mulliken charges:
               1
     1  H   -0.050321
     2  H    0.050787
     3  H   -0.033303
     4  H    0.036788
     5  H   -0.003950
     6  H   -0.003950
     7  H    0.036788
     8  H   -0.033303
     9  H    0.050787
    10  H   -0.050321
 Sum of Mulliken charges =   0.00000

 Dipole moment (field-independent basis, Debye):
    X=              0.0000    Y=             -0.0000    Z=              0.0000  Tot=              0.0000
 Quadrupole moment (field-independent basis, Debye-Ang):
   XX=             -9.5604   YY=            -12.6970   ZZ=            -14.3015
   XY=             -6.2655   XZ=              0.0000   YZ=              0.0000

 Normal termination of Gaussian 09 at Fri Feb 10 11:17:05 2017.
