 Gaussian 09, Revision E.01,
 Gaussian 09:  ES64L-G09RevE.01 30-Nov-2015

 ----------------------------------------------------------------------
 #rhf/gen scf(tight,novaracc,noincfock,fulldiag) stable(crhf) guess=rea
 d geom=nocrowd test
 ----------------------------------------------------------------------

 hf stability analysis of h10 triangular lattice, y= 0.2455570261227223
 7
 ----------------------------------------------------------------------
 Symbolic Z-matrix:
 Charge =  0 Multiplicity = 1

                         Standard orientation:
 ---------------------------------------------------------------------
 Center     Atomic      Atomic             Coordinates (Angstroms)
 Number     Number       Type             X           Y           Z
 ---------------------------------------------------------------------
      1          1           0        0.972669   -2.509900    0.000000
      2          1           0        0.972669   -4.274300    0.000000
      3          1           0        0.486335   -0.813850    0.000000
      4          1           0        0.486335   -2.578250    0.000000
      5          1           0        0.000000    0.882200    0.000000
      6          1           0       -0.000000   -0.882200    0.000000
      7          1           0       -0.486335    2.578250    0.000000
      8          1           0       -0.486335    0.813850    0.000000
      9          1           0       -0.972669    4.274300    0.000000
     10          1           0       -0.972669    2.509900    0.000000
 ---------------------------------------------------------------------

 SCF Done:  E(RHF) =  -4.44762913584     A.U. after    7 cycles
 E2 =    -0.6865414395D+00 EUMP2 =    -0.51341705753420D+01

 The electronic state is 1-AG.
 Alpha  occ. eigenvalues --   -0.79601  -0.76101  -0.70584  -0.64436  -0.19296
 Alpha virt. eigenvalues --   -0.13102   0.45286   0.55615   0.71300   0.87003

 Mulliken charges:
               1
     1  H    0.005559
     2  H   -0.006253
     3  H    0.000191
     4  H   -0.001574
     5  H    0.002076
     6  H    0.002076
     7  H   -0.001574
     8  H    0.000191
     9  H   -0.006253
    10  H    0.005559
 Sum of Mulliken charges =  -0.00000

 Dipole moment (field-independent basis, Debye):
    X=              0.0000    Y=             -0.0000    Z=             -0.0000  Tot=              0.0000
 Quadrupole moment (field-independent basis, Debye-Ang):
   XX=            -12.3414   YY=            -18.1259   ZZ=            -12.9020
   XY=              1.3166   XZ=              0.0000   YZ=              0.0000

 Normal termination of Gaussian 09 at Fri Feb 10 11:18:00 2017.
