 Gaussian 09, Revision E.01,
 Gaussian 09:  ES64L-G09RevE.01 30-Nov-2015

 ----------------------------------------------------------------------
 #rhf/gen scf(tight,novaracc,noincfock,fulldiag) stable(crhf) guess=rea
 d geom=nocrowd test
 ----------------------------------------------------------------------

 hf stability analysis of h10 triangular lattice, y= 0.4268470042368130
 4
 ----------------------------------------------------------------------
 Symbolic Z-matrix:
 Charge =  0 Multiplicity = 1

                         Standard orientation:
 ---------------------------------------------------------------------
 Center     Atomic      Atomic             Coordinates (Angstroms)
 Number     Number       Type             X           Y           Z
 ---------------------------------------------------------------------
      1          1           0        1.656671   -2.233545   -0.000000
      2          1           0        1.656671   -3.997945   -0.000000
      3          1           0        0.828336   -0.675673   -0.000000
      4          1           0        0.828336   -2.440073   -0.000000
      5          1           0        0.000000    0.882200    0.000000
      6          1           0       -0.000000   -0.882200   -0.000000
      7          1           0       -0.828336    2.440073   -0.000000
      8          1           0       -0.828336    0.675673   -0.000000
      9          1           0       -1.656671    3.997945   -0.000000
     10          1           0       -1.656671    2.233545   -0.000000
 ---------------------------------------------------------------------

 SCF Done:  E(RHF) =  -4.98691778396     A.U. after    8 cycles
 E2 =    -0.5663643284D+00 EUMP2 =    -0.55532821123793D+01

 The electronic state is 1-AG.
 Alpha  occ. eigenvalues --   -0.70184  -0.65296  -0.57472  -0.48056  -0.16752
 Alpha virt. eigenvalues --   -0.09827   0.19447   0.27236   0.38576   0.49262

 Mulliken charges:
               1
     1  H    0.019365
     2  H   -0.075379
     3  H    0.005598
     4  H    0.039330
     5  H    0.011086
     6  H    0.011086
     7  H    0.039330
     8  H    0.005598
     9  H   -0.075379
    10  H    0.019365
 Sum of Mulliken charges =  -0.00000

 Dipole moment (field-independent basis, Debye):
    X=             -0.0000    Y=             -0.0000    Z=              0.0000  Tot=              0.0000
 Quadrupole moment (field-independent basis, Debye-Ang):
   XX=            -13.2251   YY=            -25.1115   ZZ=            -13.2906
   XY=              5.5221   XZ=              0.0000   YZ=              0.0000

 Normal termination of Gaussian 09 at Fri Feb 10 11:17:48 2017.
