 Gaussian 09, Revision E.01,
 Gaussian 09:  ES64L-G09RevE.01 30-Nov-2015

 ----------------------------------------------------------------------
 #rhf/gen scf(tight,novaracc,noincfock,fulldiag) stable(crhf) guess=rea
 d geom=nocrowd test
 ----------------------------------------------------------------------

 hf stability analysis of h10 triangular lattice, y= 0.4566603355949588
 3
 ----------------------------------------------------------------------
 Symbolic Z-matrix:
 Charge =  0 Multiplicity = 1

                         Standard orientation:
 ---------------------------------------------------------------------
 Center     Atomic      Atomic             Coordinates (Angstroms)
 Number     Number       Type             X           Y           Z
 ---------------------------------------------------------------------
      1          1           0        1.764400   -2.173830    0.000000
      2          1           0        1.764400   -3.938230    0.000000
      3          1           0        0.882200   -0.645815    0.000000
      4          1           0        0.882200   -2.410215    0.000000
      5          1           0        0.000000    0.882200    0.000000
      6          1           0       -0.000000   -0.882200   -0.000000
      7          1           0       -0.882200    2.410215    0.000000
      8          1           0       -0.882200    0.645815    0.000000
      9          1           0       -1.764400    3.938230    0.000000
     10          1           0       -1.764400    2.173830    0.000000
 ---------------------------------------------------------------------

 SCF Done:  E(RHF) =  -4.96927330996     A.U. after    8 cycles
 E2 =    -0.5375102615D+00 EUMP2 =    -0.55067835715090D+01

 The electronic state is 1-AG.
 Alpha  occ. eigenvalues --   -0.69090  -0.63982  -0.55865  -0.46040  -0.16227
 Alpha virt. eigenvalues --   -0.09086   0.16276   0.23870   0.34741   0.44768

 Mulliken charges:
               1
     1  H    0.022605
     2  H   -0.093340
     3  H    0.007661
     4  H    0.049371
     5  H    0.013703
     6  H    0.013703
     7  H    0.049371
     8  H    0.007661
     9  H   -0.093340
    10  H    0.022605
 Sum of Mulliken charges =   0.00000

 Dipole moment (field-independent basis, Debye):
    X=             -0.0000    Y=              0.0000    Z=             -0.0000  Tot=              0.0000
 Quadrupole moment (field-independent basis, Debye-Ang):
   XX=            -13.7196   YY=            -26.6689   ZZ=            -13.3543
   XY=              6.7181   XZ=              0.0000   YZ=             -0.0000

 Normal termination of Gaussian 09 at Fri Feb 10 11:17:46 2017.
