 Gaussian 09, Revision E.01,
 Gaussian 09:  ES64L-G09RevE.01 30-Nov-2015

 ----------------------------------------------------------------------
 #rhf/gen scf(tight,novaracc,noincfock,fulldiag) stable(crhf) guess=rea
 d geom=nocrowd test
 ----------------------------------------------------------------------

 hf stability analysis of h10 triangular lattice, y= 0.6894060212492227
 9
 ----------------------------------------------------------------------
 Symbolic Z-matrix:
 Charge =  0 Multiplicity = 1

                         Standard orientation:
 ---------------------------------------------------------------------
 Center     Atomic      Atomic             Coordinates (Angstroms)
 Number     Number       Type             X           Y           Z
 ---------------------------------------------------------------------
      1          1           0        2.538406   -1.569110    0.000000
      2          1           0        2.538406   -3.333510    0.000000
      3          1           0        1.269203   -0.343455    0.000000
      4          1           0        1.269203   -2.107855    0.000000
      5          1           0        0.000000    0.882200   -0.000000
      6          1           0       -0.000000   -0.882200   -0.000000
      7          1           0       -1.269203    2.107855    0.000000
      8          1           0       -1.269203    0.343455    0.000000
      9          1           0       -2.538406    3.333510    0.000000
     10          1           0       -2.538406    1.569110    0.000000
 ---------------------------------------------------------------------

 SCF Done:  E(RHF) =  -4.67371777390     A.U. after   12 cycles
 E2 =    -0.2281656918D+00 EUMP2 =    -0.49018834657166D+01

 The electronic state is 1-AG.
 Alpha  occ. eigenvalues --   -0.62404  -0.56646  -0.46294  -0.33160  -0.15220
 Alpha virt. eigenvalues --   -0.04936   0.01927   0.05390   0.14121   0.20185

 Mulliken charges:
               1
     1  H    0.028978
     2  H   -0.203764
     3  H   -0.020495
     4  H    0.176994
     5  H    0.018286
     6  H    0.018286
     7  H    0.176994
     8  H   -0.020495
     9  H   -0.203764
    10  H    0.028978
 Sum of Mulliken charges =  -0.00000

 Dipole moment (field-independent basis, Debye):
    X=             -0.0000    Y=             -0.0000    Z=             -0.0000  Tot=              0.0000
 Quadrupole moment (field-independent basis, Debye-Ang):
   XX=            -20.9772   YY=            -27.9696   ZZ=            -13.8362
   XY=             13.0174   XZ=             -0.0000   YZ=             -0.0000

 Normal termination of Gaussian 09 at Fri Feb 10 11:17:30 2017.
