 Gaussian 09, Revision E.01,
 Gaussian 09:  ES64L-G09RevE.01 30-Nov-2015

 ----------------------------------------------------------------------
 #rhf/gen scf(tight,novaracc,noincfock,fulldiag) stable(crhf) guess=rea
 d geom=nocrowd test
 ----------------------------------------------------------------------

 hf stability analysis of h10 triangular lattice, y= 0.3668393973373911
 8
 ----------------------------------------------------------------------
 Symbolic Z-matrix:
 Charge =  0 Multiplicity = 1

                         Standard orientation:
 ---------------------------------------------------------------------
 Center     Atomic      Atomic             Coordinates (Angstroms)
 Number     Number       Type             X           Y           Z
 ---------------------------------------------------------------------
      1          1           0        1.435292   -2.341519    0.000000
      2          1           0        1.435292   -4.105919    0.000000
      3          1           0        0.717646   -0.729660    0.000000
      4          1           0        0.717646   -2.494060    0.000000
      5          1           0        0.000000    0.882200    0.000000
      6          1           0       -0.000000   -0.882200    0.000000
      7          1           0       -0.717646    2.494060    0.000000
      8          1           0       -0.717646    0.729660    0.000000
      9          1           0       -1.435292    4.105919    0.000000
     10          1           0       -1.435292    2.341519    0.000000
 ---------------------------------------------------------------------

 SCF Done:  E(RHF) =  -4.97183871541     A.U. after    7 cycles
 E2 =    -0.6176551322D+00 EUMP2 =    -0.55894938475992D+01

 The electronic state is 1-AG.
 Alpha  occ. eigenvalues --   -0.72785  -0.68335  -0.61161  -0.52669  -0.17735
 Alpha virt. eigenvalues --   -0.11150   0.26570   0.34917   0.47365   0.59466

 Mulliken charges:
               1
     1  H    0.013570
     2  H   -0.044927
     3  H    0.002618
     4  H    0.021966
     5  H    0.006773
     6  H    0.006773
     7  H    0.021966
     8  H    0.002618
     9  H   -0.044927
    10  H    0.013570
 Sum of Mulliken charges =  -0.00000

 Dipole moment (field-independent basis, Debye):
    X=              0.0000    Y=             -0.0000    Z=             -0.0000  Tot=              0.0000
 Quadrupole moment (field-independent basis, Debye-Ang):
   XX=            -12.6100   YY=            -22.2354   ZZ=            -13.1593
   XY=              3.5808   XZ=             -0.0000   YZ=             -0.0000

 Normal termination of Gaussian 09 at Fri Feb 10 11:17:52 2017.
