 Gaussian 09, Revision E.01,
 Gaussian 09:  ES64L-G09RevE.01 30-Nov-2015

 ----------------------------------------------------------------------
 #rhf/gen scf(tight,novaracc,noincfock,fulldiag) stable(crhf) guess=rea
 d geom=nocrowd test
 ----------------------------------------------------------------------

 ----------------------------------------------------------------------
 hf stability analysis of h10 triangular lattice, y= 1.2476192319931290
 ----------------------------------------------------------------------
 Symbolic Z-matrix:
 Charge =  0 Multiplicity = 1

                         Standard orientation:
 ---------------------------------------------------------------------
 Center     Atomic      Atomic             Coordinates (Angstroms)
 Number     Number       Type             X           Y           Z
 ---------------------------------------------------------------------
      1          1           0        0.000000    3.528800    0.882200
      2          1           0        0.000000    3.528800   -0.882200
      3          1           0        0.000000    1.764400    0.882200
      4          1           0        0.000000    1.764400   -0.882200
      5          1           0        0.000000    0.000000    0.882200
      6          1           0        0.000000   -0.000000   -0.882200
      7          1           0       -0.000000   -1.764400    0.882200
      8          1           0       -0.000000   -1.764400   -0.882200
      9          1           0       -0.000000   -3.528800    0.882200
     10          1           0       -0.000000   -3.528800   -0.882200
 ---------------------------------------------------------------------

 SCF Done:  E(RHF) =  -4.70954977089     A.U. after    1 cycles
 E2 =    -0.1793314074D+00 EUMP2 =    -0.48888811782470D+01

 The electronic state is 1-AG.
 Alpha  occ. eigenvalues --   -0.54510  -0.48150  -0.37501  -0.36040  -0.29178
 Alpha virt. eigenvalues --   -0.07190  -0.02575   0.05562   0.11640   0.22678

 Mulliken charges:
               1
     1  H    0.003390
     2  H    0.003390
     3  H    0.004215
     4  H    0.004215
     5  H   -0.015211
     6  H   -0.015211
     7  H    0.004215
     8  H    0.004215
     9  H    0.003390
    10  H    0.003390
 Sum of Mulliken charges =  -0.00000

 Dipole moment (field-independent basis, Debye):
    X=             -0.0000    Y=              0.0000    Z=              0.0000  Tot=              0.0000
 Quadrupole moment (field-independent basis, Debye-Ang):
   XX=            -14.3665   YY=             -7.7746   ZZ=            -15.8681
   XY=              0.0000   XZ=              0.0000   YZ=              0.0000

 Normal termination of Gaussian 09 at Fri Feb 10 11:16:47 2017.
