 Gaussian 09, Revision E.01,
 Gaussian 09:  ES64L-G09RevE.01 30-Nov-2015

 ----------------------------------------------------------------------
 #rhf/gen scf(tight,novaracc,noincfock,fulldiag) stable(crhf) guess=rea
 d geom=nocrowd test
 ----------------------------------------------------------------------

 hf stability analysis of h10 triangular lattice, y= 0.3366634006955003
 8
 ----------------------------------------------------------------------
 Symbolic Z-matrix:
 Charge =  0 Multiplicity = 1

                         Standard orientation:
 ---------------------------------------------------------------------
 Center     Atomic      Atomic             Coordinates (Angstroms)
 Number     Number       Type             X           Y           Z
 ---------------------------------------------------------------------
      1          1           0        1.321912   -2.389646   -0.000000
      2          1           0        1.321912   -4.154046   -0.000000
      3          1           0        0.660956   -0.753723   -0.000000
      4          1           0        0.660956   -2.518123   -0.000000
      5          1           0        0.000000    0.882200    0.000000
      6          1           0       -0.000000   -0.882200    0.000000
      7          1           0       -0.660956    2.518123   -0.000000
      8          1           0       -0.660956    0.753723   -0.000000
      9          1           0       -1.321912    4.154046   -0.000000
     10          1           0       -1.321912    2.389646   -0.000000
 ---------------------------------------------------------------------

 SCF Done:  E(RHF) =  -4.92422105266     A.U. after    7 cycles
 E2 =    -0.6392900196D+00 EUMP2 =    -0.55635110722686D+01

 The electronic state is 1-AG.
 Alpha  occ. eigenvalues --   -0.74297  -0.70070  -0.63260  -0.55291  -0.18179
 Alpha virt. eigenvalues --   -0.11724   0.30600   0.39323   0.52430   0.65310

 Mulliken charges:
               1
     1  H    0.011117
     2  H   -0.032596
     3  H    0.001649
     4  H    0.014686
     5  H    0.005144
     6  H    0.005144
     7  H    0.014686
     8  H    0.001649
     9  H   -0.032596
    10  H    0.011117
 Sum of Mulliken charges =  -0.00000

 Dipole moment (field-independent basis, Debye):
    X=              0.0000    Y=              0.0000    Z=              0.0000  Tot=              0.0000
 Quadrupole moment (field-independent basis, Debye-Ang):
   XX=            -12.4512   YY=            -20.9862   ZZ=            -13.0931
   XY=              2.8316   XZ=              0.0000   YZ=             -0.0000

 Normal termination of Gaussian 09 at Fri Feb 10 11:17:54 2017.
