 Gaussian 09, Revision E.01,
 Gaussian 09:  ES64L-G09RevE.01 30-Nov-2015

 ----------------------------------------------------------------------
 #rhf/gen scf(tight,novaracc,noincfock,fulldiag) stable(crhf) guess=rea
 d geom=nocrowd test
 ----------------------------------------------------------------------

 ----------------------------------------------------------------------
 hf stability analysis of h10 triangular lattice, y= 1.1806140686063740
 ----------------------------------------------------------------------
 Symbolic Z-matrix:
 Charge =  0 Multiplicity = 1

                         Standard orientation:
 ---------------------------------------------------------------------
 Center     Atomic      Atomic             Coordinates (Angstroms)
 Number     Number       Type             X           Y           Z
 ---------------------------------------------------------------------
      1          1           0        3.509469    0.513340    0.000000
      2          1           0        3.509469   -1.251060    0.000000
      3          1           0        1.754734    0.697770    0.000000
      4          1           0        1.754734   -1.066630    0.000000
      5          1           0        0.000000    0.882200    0.000000
      6          1           0       -0.000000   -0.882200    0.000000
      7          1           0       -1.754734    1.066630    0.000000
      8          1           0       -1.754734   -0.697770    0.000000
      9          1           0       -3.509469    1.251060    0.000000
     10          1           0       -3.509469   -0.513340    0.000000
 ---------------------------------------------------------------------

 SCF Done:  E(RHF) =  -4.70720049258     A.U. after   10 cycles
 E2 =    -0.1796428916D+00 EUMP2 =    -0.48868433841382D+01

 The electronic state is 1-AG.
 Alpha  occ. eigenvalues --   -0.54570  -0.48214  -0.37597  -0.35894  -0.29002
 Alpha virt. eigenvalues --   -0.07374  -0.02262   0.05520   0.11750   0.22386

 Mulliken charges:
               1
     1  H   -0.013437
     2  H    0.019714
     3  H   -0.005770
     4  H    0.013719
     5  H   -0.014226
     6  H   -0.014226
     7  H    0.013719
     8  H   -0.005770
     9  H    0.019714
    10  H   -0.013437
 Sum of Mulliken charges =  -0.00000

 Dipole moment (field-independent basis, Debye):
    X=              0.0000    Y=             -0.0000    Z=              0.0000  Tot=              0.0000
 Quadrupole moment (field-independent basis, Debye-Ang):
   XX=             -7.9576   YY=            -15.5161   ZZ=            -14.3595
   XY=             -2.2146   XZ=             -0.0000   YZ=              0.0000

 Normal termination of Gaussian 09 at Fri Feb 10 11:16:53 2017.
