 Gaussian 09, Revision E.01,
 Gaussian 09:  ES64L-G09RevE.01 30-Nov-2015

 ----------------------------------------------------------------------
 #rhf/gen scf(tight,novaracc,noincfock,fulldiag) stable(crhf) guess=rea
 d geom=nocrowd test
 ----------------------------------------------------------------------

 hf stability analysis of h10 triangular lattice, y= 0.7734620714201170
 3
 ----------------------------------------------------------------------
 Symbolic Z-matrix:
 Charge =  0 Multiplicity = 1

                         Standard orientation:
 ---------------------------------------------------------------------
 Center     Atomic      Atomic             Coordinates (Angstroms)
 Number     Number       Type             X           Y           Z
 ---------------------------------------------------------------------
      1          1           0        2.780732   -1.290346   -0.000000
      2          1           0        2.780732   -3.054746   -0.000000
      3          1           0        1.390366   -0.204073   -0.000000
      4          1           0        1.390366   -1.968473   -0.000000
      5          1           0       -0.000000    0.882200    0.000000
      6          1           0       -0.000000   -0.882200   -0.000000
      7          1           0       -1.390366    1.968473    0.000000
      8          1           0       -1.390366    0.204073    0.000000
      9          1           0       -2.780732    3.054746    0.000000
     10          1           0       -2.780732    1.290346    0.000000
 ---------------------------------------------------------------------

 SCF Done:  E(RHF) =  -4.61960665717     A.U. after   18 cycles
 E2 =    -0.1986133306D+00 EUMP2 =    -0.48182199878186D+01

 The electronic state is 1-AG.
 Alpha  occ. eigenvalues --   -0.59998  -0.53919  -0.43430  -0.29543  -0.20056
 Alpha virt. eigenvalues --   -0.08352   0.03558   0.04908   0.10956   0.16427

 Mulliken charges:
               1
     1  H    0.055095
     2  H   -0.164630
     3  H   -0.153229
     4  H    0.158349
     5  H    0.104415
     6  H    0.104415
     7  H    0.158349
     8  H   -0.153229
     9  H   -0.164630
    10  H    0.055095
 Sum of Mulliken charges =   0.00000

 Dipole moment (field-independent basis, Debye):
    X=              0.0000    Y=             -0.0000    Z=             -0.0000  Tot=              0.0000
 Quadrupole moment (field-independent basis, Debye-Ang):
   XX=            -20.5556   YY=            -21.1487   ZZ=            -14.0048
   XY=              7.9223   XZ=              0.0000   YZ=             -0.0000

 Normal termination of Gaussian 09 at Fri Feb 10 11:17:25 2017.
