 Gaussian 09, Revision E.01,
 Gaussian 09:  ES64L-G09RevE.01 30-Nov-2015

 ----------------------------------------------------------------------
 #rhf/gen scf(tight,novaracc,noincfock,fulldiag) stable(crhf) guess=mix
  geom=nocrowd test
 ----------------------------------------------------------------------

 hf stability analysis of h12 triangular lattice, y= 1.2948927059181552
  alpha= 71.000000000000000
 ----------------------------------------------------------------------
 Symbolic Z-matrix:
 Charge =  0 Multiplicity = 1

                         Standard orientation:
 ---------------------------------------------------------------------
 Center     Atomic      Atomic             Coordinates (Angstroms)
 Number     Number       Type             X           Y           Z
 ---------------------------------------------------------------------
      1          1           0        3.884678    0.891735   -0.000000
      2          1           0        2.589785    1.337602   -0.000000
      3          1           0        2.589785    0.445867   -0.000000
      4          1           0        1.294893    0.891735   -0.000000
      5          1           0        1.294893    0.000000   -0.000000
      6          1           0        0.000000    0.445867   -0.000000
      7          1           0       -0.000000   -0.445867    0.000000
      8          1           0       -1.294893    0.000000   -0.000000
      9          1           0       -1.294893   -0.891735   -0.000000
     10          1           0       -2.589785   -0.445867   -0.000000
     11          1           0       -2.589785   -1.337602   -0.000000
     12          1           0       -3.884678   -0.891735   -0.000000
 ---------------------------------------------------------------------

 SCF Done:  E(RHF) =  -5.71806265488     A.U. after   14 cycles
 E2 =    -0.1792046868D+00 EUMP2 =    -0.58972673416688D+01

 The electronic state is 1-AG.
 Alpha  occ. eigenvalues --   -0.79947  -0.75460  -0.65170  -0.50556  -0.32178
 Alpha  occ. eigenvalues --   -0.14120
 Alpha virt. eigenvalues --    0.03818   0.06764   0.16100   0.29238   0.47853
 Alpha virt. eigenvalues --    0.63741

 Mulliken charges:
               1
     1  H   -0.111083
     2  H    0.029527
     3  H    0.177650
     4  H   -0.027994
     5  H   -0.088163
     6  H    0.020063
     7  H    0.020063
     8  H   -0.088163
     9  H   -0.027994
    10  H    0.177650
    11  H    0.029527
    12  H   -0.111083
 Sum of Mulliken charges =   0.00000

 Dipole moment (field-independent basis, Debye):
    X=             -0.0000    Y=              0.0000    Z=              0.0000  Tot=              0.0000
 Quadrupole moment (field-independent basis, Debye-Ang):
   XX=            -25.0500   YY=            -15.7277   ZZ=            -15.5129
   XY=             -1.9046   XZ=              0.0000   YZ=              0.0000

 Normal termination of Gaussian 09 at Thu Feb 16 18:12:45 2017.
