 Gaussian 09, Revision E.01,
 Gaussian 09:  ES64L-G09RevE.01 30-Nov-2015

 ----------------------------------------------------------------------
 #rhf/gen scf(tight,novaracc,noincfock,fulldiag) stable(crhf) guess=mix
  geom=nocrowd test
 ----------------------------------------------------------------------

 hf stability analysis of h12 triangular lattice, y= 1.8095073443210954
  alpha= 80.000000000000000
 ----------------------------------------------------------------------
 Symbolic Z-matrix:
 Charge =  0 Multiplicity = 1

                         Standard orientation:
 ---------------------------------------------------------------------
 Center     Atomic      Atomic             Coordinates (Angstroms)
 Number     Number       Type             X           Y           Z
 ---------------------------------------------------------------------
      1          1           0        5.428522    0.638130    0.000000
      2          1           0        3.619015    0.957195    0.000000
      3          1           0        3.619015    0.319065    0.000000
      4          1           0        1.809507    0.638130    0.000000
      5          1           0        1.809507    0.000000    0.000000
      6          1           0        0.000000    0.319065    0.000000
      7          1           0       -0.000000   -0.319065    0.000000
      8          1           0       -1.809507    0.000000    0.000000
      9          1           0       -1.809507   -0.638130    0.000000
     10          1           0       -3.619015   -0.319065    0.000000
     11          1           0       -3.619015   -0.957195    0.000000
     12          1           0       -5.428522   -0.638130    0.000000
 ---------------------------------------------------------------------

 SCF Done:  E(RHF) =  -5.93902798938     A.U. after   20 cycles
 E2 =    -0.8859070702D+00 EUMP2 =    -0.68249350595708D+01

 The electronic state is 1-AG.
 Alpha  occ. eigenvalues --   -0.73986  -0.71594  -0.67309  -0.62024  -0.56580
 Alpha  occ. eigenvalues --   -0.18341
 Alpha virt. eigenvalues --   -0.13411   0.33970   0.39643   0.48893   0.59589
 Alpha virt. eigenvalues --    0.68816

 Mulliken charges:
               1
     1  H   -0.017084
     2  H    0.006490
     3  H    0.007906
     4  H   -0.000235
     5  H    0.002567
     6  H    0.000356
     7  H    0.000356
     8  H    0.002567
     9  H   -0.000235
    10  H    0.007906
    11  H    0.006490
    12  H   -0.017084
 Sum of Mulliken charges =   0.00000

 Dipole moment (field-independent basis, Debye):
    X=              0.0000    Y=             -0.0000    Z=             -0.0000  Tot=              0.0000
 Quadrupole moment (field-independent basis, Debye-Ang):
   XX=            -23.9393   YY=            -14.1321   ZZ=            -15.7378
   XY=             -0.9650   XZ=             -0.0000   YZ=              0.0000

 Normal termination of Gaussian 09 at Thu Feb 16 18:13:10 2017.
