 Gaussian 09, Revision E.01,
 Gaussian 09:  ES64L-G09RevE.01 30-Nov-2015

 ----------------------------------------------------------------------
 #rhf/gen scf(tight,novaracc,noincfock,fulldiag) stable(crhf) guess=mix
  geom=nocrowd test
 ----------------------------------------------------------------------

 hf stability analysis of h12 triangular lattice, y= 1.3330047374615932
  alpha= 72.000000000000000
 ----------------------------------------------------------------------
 Symbolic Z-matrix:
 Charge =  0 Multiplicity = 1

                         Standard orientation:
 ---------------------------------------------------------------------
 Center     Atomic      Atomic             Coordinates (Angstroms)
 Number     Number       Type             X           Y           Z
 ---------------------------------------------------------------------
      1          1           0        3.999014    0.866239   -0.000000
      2          1           0        2.666009    1.299358   -0.000000
      3          1           0        2.666009    0.433119   -0.000000
      4          1           0        1.333005    0.866239   -0.000000
      5          1           0        1.333005    0.000000   -0.000000
      6          1           0        0.000000    0.433119    0.000000
      7          1           0       -0.000000   -0.433119    0.000000
      8          1           0       -1.333005    0.000000   -0.000000
      9          1           0       -1.333005   -0.866239   -0.000000
     10          1           0       -2.666009   -0.433119   -0.000000
     11          1           0       -2.666009   -1.299358   -0.000000
     12          1           0       -3.999014   -0.866239   -0.000000
 ---------------------------------------------------------------------

 SCF Done:  E(RHF) =  -5.74012150638     A.U. after   18 cycles
 E2 =    -0.2309556582D+00 EUMP2 =    -0.59710771646174D+01

 The electronic state is 1-AG.
 Alpha  occ. eigenvalues --   -0.80388  -0.75205  -0.65671  -0.52410  -0.35917
 Alpha  occ. eigenvalues --   -0.11338
 Alpha virt. eigenvalues --    0.00865   0.08800   0.17957   0.31467   0.48304
 Alpha virt. eigenvalues --    0.62336

 Mulliken charges:
               1
     1  H   -0.164740
     2  H    0.017440
     3  H    0.143515
     4  H    0.010005
     5  H   -0.039568
     6  H    0.033348
     7  H    0.033348
     8  H   -0.039568
     9  H    0.010005
    10  H    0.143515
    11  H    0.017440
    12  H   -0.164740
 Sum of Mulliken charges =   0.00000

 Dipole moment (field-independent basis, Debye):
    X=              0.0000    Y=             -0.0000    Z=              0.0000  Tot=              0.0000
 Quadrupole moment (field-independent basis, Debye-Ang):
   XX=            -36.8043   YY=            -14.7294   ZZ=            -15.3392
   XY=             -4.6931   XZ=              0.0000   YZ=             -0.0000

 Normal termination of Gaussian 09 at Thu Feb 16 18:12:48 2017.
