 Gaussian 09, Revision E.01,
 Gaussian 09:  ES64L-G09RevE.01 30-Nov-2015

 ----------------------------------------------------------------------
 #rhf/gen scf(tight,novaracc,noincfock,fulldiag) stable(crhf) guess=mix
  geom=nocrowd test
 ----------------------------------------------------------------------

 hf stability analysis of h12 triangular lattice, y= 0.7598357022583297
 5 alpha= 45.000000000000000
 ----------------------------------------------------------------------
 Symbolic Z-matrix:
 Charge =  0 Multiplicity = 1

                         Standard orientation:
 ---------------------------------------------------------------------
 Center     Atomic      Atomic             Coordinates (Angstroms)
 Number     Number       Type             X           Y           Z
 ---------------------------------------------------------------------
      1          1           0        0.000000    0.537285    2.686425
      2          1           0       -0.000000   -0.537285    2.686425
      3          1           0        0.000000    0.537285    1.611855
      4          1           0       -0.000000   -0.537285    1.611855
      5          1           0        0.000000    0.537285    0.537285
      6          1           0       -0.000000   -0.537285    0.537285
      7          1           0        0.000000    0.537285   -0.537285
      8          1           0       -0.000000   -0.537285   -0.537285
      9          1           0        0.000000    0.537285   -1.611855
     10          1           0       -0.000000   -0.537285   -1.611855
     11          1           0        0.000000    0.537285   -2.686425
     12          1           0       -0.000000   -0.537285   -2.686425
 ---------------------------------------------------------------------

 SCF Done:  E(RHF) =  -5.94224541179     A.U. after   13 cycles
 E2 =    -0.1265032222D+00 EUMP2 =    -0.60687486339823D+01

 The electronic state is 1-AG.
 Alpha  occ. eigenvalues --   -0.89056  -0.79818  -0.63563  -0.46837  -0.42779
 Alpha  occ. eigenvalues --   -0.34764
 Alpha virt. eigenvalues --    0.04957   0.07242   0.30132   0.41761   0.63391
 Alpha virt. eigenvalues --    0.96017

 Mulliken charges:
               1
     1  H    0.028349
     2  H    0.028349
     3  H   -0.023296
     4  H   -0.023296
     5  H   -0.005053
     6  H   -0.005053
     7  H   -0.005053
     8  H   -0.005053
     9  H   -0.023296
    10  H   -0.023296
    11  H    0.028349
    12  H    0.028349
 Sum of Mulliken charges =  -0.00000

 Dipole moment (field-independent basis, Debye):
    X=              0.0000    Y=             -0.0000    Z=              0.0000  Tot=              0.0000
 Quadrupole moment (field-independent basis, Debye-Ang):
   XX=            -15.5265   YY=            -19.3948   ZZ=            -14.5214
   XY=             -0.0000   XZ=             -0.0000   YZ=              0.0000

 Normal termination of Gaussian 09 at Thu Feb 16 18:11:27 2017.
