 Gaussian 09, Revision E.01,
 Gaussian 09:  ES64L-G09RevE.01 30-Nov-2015

 ----------------------------------------------------------------------
 #rhf/gen scf(tight,novaracc,noincfock,fulldiag) stable(crhf) guess=mix
  geom=nocrowd test
 ----------------------------------------------------------------------

 hf stability analysis of h12 triangular lattice, y= 1.0000000336490449
  alpha= 60.000000000000000
 ----------------------------------------------------------------------
 Symbolic Z-matrix:
 Charge =  0 Multiplicity = 1

                         Standard orientation:
 ---------------------------------------------------------------------
 Center     Atomic      Atomic             Coordinates (Angstroms)
 Number     Number       Type             X           Y           Z
 ---------------------------------------------------------------------
      1          1           0        3.000000    1.154701   -0.000000
      2          1           0        2.000000    1.732051   -0.000000
      3          1           0        2.000000    0.577350   -0.000000
      4          1           0        1.000000    1.154701   -0.000000
      5          1           0        1.000000    0.000000   -0.000000
      6          1           0        0.000000    0.577350   -0.000000
      7          1           0       -0.000000   -0.577350   -0.000000
      8          1           0       -1.000000    0.000000   -0.000000
      9          1           0       -1.000000   -1.154701   -0.000000
     10          1           0       -2.000000   -0.577350   -0.000000
     11          1           0       -2.000000   -1.732051   -0.000000
     12          1           0       -3.000000   -1.154701   -0.000000
 ---------------------------------------------------------------------

 SCF Done:  E(RHF) =  -5.84602582888     A.U. after   15 cycles
 E2 =    -0.1302069571D+00 EUMP2 =    -0.59762327860250D+01

 The electronic state is 1-AG.
 Alpha  occ. eigenvalues --   -0.86576  -0.78063  -0.64493  -0.44891  -0.38686
 Alpha  occ. eigenvalues --   -0.28745
 Alpha virt. eigenvalues --    0.01137   0.08050   0.30265   0.34105   0.60366
 Alpha virt. eigenvalues --    0.61349

 Mulliken charges:
               1
     1  H   -0.015660
     2  H    0.071738
     3  H    0.143617
     4  H   -0.208271
     5  H   -0.173278
     6  H    0.181854
     7  H    0.181854
     8  H   -0.173278
     9  H   -0.208271
    10  H    0.143617
    11  H    0.071738
    12  H   -0.015660
 Sum of Mulliken charges =  -0.00000

 Dipole moment (field-independent basis, Debye):
    X=             -0.0000    Y=              0.0000    Z=             -0.0000  Tot=              0.0000
 Quadrupole moment (field-independent basis, Debye-Ang):
   XX=            -14.3963   YY=            -18.3607   ZZ=            -15.6337
   XY=              2.5670   XZ=              0.0000   YZ=             -0.0000

 Normal termination of Gaussian 09 at Thu Feb 16 18:12:12 2017.
