 Gaussian 09, Revision E.01,
 Gaussian 09:  ES64L-G09RevE.01 30-Nov-2015

 ----------------------------------------------------------------------
 #rhf/gen scf(tight,novaracc,noincfock,fulldiag) stable(crhf) guess=mix
  geom=nocrowd test
 ----------------------------------------------------------------------

 hf stability analysis of h12 triangular lattice, y= 1.5813852119866876
  alpha= 77.000000000000000
 ----------------------------------------------------------------------
 Symbolic Z-matrix:
 Charge =  0 Multiplicity = 1

                         Standard orientation:
 ---------------------------------------------------------------------
 Center     Atomic      Atomic             Coordinates (Angstroms)
 Number     Number       Type             X           Y           Z
 ---------------------------------------------------------------------
      1          1           0        4.744156    0.730183   -0.000000
      2          1           0        3.162770    1.095275   -0.000000
      3          1           0        3.162770    0.365092   -0.000000
      4          1           0        1.581385    0.730183   -0.000000
      5          1           0        1.581385    0.000000   -0.000000
      6          1           0        0.000000    0.365092    0.000000
      7          1           0       -0.000000   -0.365092    0.000000
      8          1           0       -1.581385    0.000000   -0.000000
      9          1           0       -1.581385   -0.730183    0.000000
     10          1           0       -3.162770   -0.365092   -0.000000
     11          1           0       -3.162770   -1.095275    0.000000
     12          1           0       -4.744156   -0.730183   -0.000000
 ---------------------------------------------------------------------

 SCF Done:  E(RHF) =  -5.94809587542     A.U. after   15 cycles
 E2 =    -0.6701809516D+00 EUMP2 =    -0.66182768270294D+01

 The electronic state is 1-AG.
 Alpha  occ. eigenvalues --   -0.75951  -0.72442  -0.65989  -0.57727  -0.48259
 Alpha  occ. eigenvalues --   -0.15372
 Alpha virt. eigenvalues --   -0.09333   0.23435   0.30276   0.41681   0.54984
 Alpha virt. eigenvalues --    0.66629

 Mulliken charges:
               1
     1  H   -0.068875
     2  H    0.018550
     3  H    0.032318
     4  H    0.003773
     5  H    0.010293
     6  H    0.003942
     7  H    0.003942
     8  H    0.010293
     9  H    0.003773
    10  H    0.032318
    11  H    0.018550
    12  H   -0.068875
 Sum of Mulliken charges =   0.00000

 Dipole moment (field-independent basis, Debye):
    X=              0.0000    Y=              0.0000    Z=              0.0000  Tot=              0.0000
 Quadrupole moment (field-independent basis, Debye-Ang):
   XX=            -31.8361   YY=            -13.6894   ZZ=            -15.4756
   XY=             -2.4882   XZ=              0.0000   YZ=             -0.0000

 Normal termination of Gaussian 09 at Thu Feb 16 18:13:02 2017.
