 Gaussian 09, Revision E.01,
 Gaussian 09:  ES64L-G09RevE.01 30-Nov-2015

 ----------------------------------------------------------------------
 #rhf/gen scf(tight,novaracc,noincfock,fulldiag) stable(crhf) guess=mix
  geom=nocrowd test
 ----------------------------------------------------------------------

 hf stability analysis of h12 triangular lattice, y= 0.5423787099077283
 0 alpha= 27.000000000000000
 ----------------------------------------------------------------------
 Symbolic Z-matrix:
 Charge =  0 Multiplicity = 1

                         Standard orientation:
 ---------------------------------------------------------------------
 Center     Atomic      Atomic             Coordinates (Angstroms)
 Number     Number       Type             X           Y           Z
 ---------------------------------------------------------------------
      1          1           0        2.128956    1.627136    0.000000
      2          1           0        3.193434    1.084757    0.000000
      3          1           0        1.064478    1.084757    0.000000
      4          1           0        2.128956    0.542379    0.000000
      5          1           0        0.000000    0.542379   -0.000000
      6          1           0        1.064478    0.000000    0.000000
      7          1           0       -1.064478    0.000000    0.000000
      8          1           0       -0.000000   -0.542379   -0.000000
      9          1           0       -2.128956   -0.542379    0.000000
     10          1           0       -1.064478   -1.084757   -0.000000
     11          1           0       -3.193434   -1.084757    0.000000
     12          1           0       -2.128956   -1.627136   -0.000000
 ---------------------------------------------------------------------

 SCF Done:  E(RHF) =  -5.80242965092     A.U. after   14 cycles
 E2 =    -0.1369127585D+00 EUMP2 =    -0.59393424093797D+01

 The electronic state is 1-AG.
 Alpha  occ. eigenvalues --   -0.85395  -0.77940  -0.65094  -0.45908  -0.34113
 Alpha  occ. eigenvalues --   -0.27014
 Alpha virt. eigenvalues --    0.00553   0.09366   0.25914   0.32896   0.51022
 Alpha virt. eigenvalues --    0.61348

 Mulliken charges:
               1
     1  H    0.136564
     2  H   -0.101900
     3  H   -0.236144
     4  H    0.186260
     5  H    0.138142
     6  H   -0.122923
     7  H   -0.122923
     8  H    0.138142
     9  H    0.186260
    10  H   -0.236144
    11  H   -0.101900
    12  H    0.136564
 Sum of Mulliken charges =  -0.00000

 Dipole moment (field-independent basis, Debye):
    X=              0.0000    Y=             -0.0000    Z=             -0.0000  Tot=              0.0000
 Quadrupole moment (field-independent basis, Debye-Ang):
   XX=            -17.9969   YY=            -17.4301   ZZ=            -15.6362
   XY=              1.4660   XZ=             -0.0000   YZ=              0.0000

 Normal termination of Gaussian 09 at Thu Feb 16 18:10:35 2017.
