 Gaussian 09, Revision E.01,
 Gaussian 09:  ES64L-G09RevE.01 30-Nov-2015

 ----------------------------------------------------------------------
 #rhf/gen scf(tight,novaracc,noincfock,fulldiag) stable(crhf) guess=mix
  geom=nocrowd test
 ----------------------------------------------------------------------

 hf stability analysis of h12 triangular lattice, y= 1.2263967642726714
  alpha= 69.000000000000000
 ----------------------------------------------------------------------
 Symbolic Z-matrix:
 Charge =  0 Multiplicity = 1

                         Standard orientation:
 ---------------------------------------------------------------------
 Center     Atomic      Atomic             Coordinates (Angstroms)
 Number     Number       Type             X           Y           Z
 ---------------------------------------------------------------------
      1          1           0        3.679190    0.941539    0.000000
      2          1           0        2.452793    1.412309    0.000000
      3          1           0        2.452793    0.470770    0.000000
      4          1           0        1.226397    0.941539    0.000000
      5          1           0        1.226397    0.000000    0.000000
      6          1           0       -0.000000    0.470770    0.000000
      7          1           0        0.000000   -0.470770    0.000000
      8          1           0       -1.226397   -0.000000    0.000000
      9          1           0       -1.226397   -0.941539    0.000000
     10          1           0       -2.452793   -0.470770    0.000000
     11          1           0       -2.452793   -1.412309    0.000000
     12          1           0       -3.679190   -0.941539    0.000000
 ---------------------------------------------------------------------

 SCF Done:  E(RHF) =  -5.73339743670     A.U. after   18 cycles
 E2 =    -0.1650498017D+00 EUMP2 =    -0.58984472383752D+01

 The electronic state is 1-AG.
 Alpha  occ. eigenvalues --   -0.80729  -0.76549  -0.64628  -0.48489  -0.28467
 Alpha  occ. eigenvalues --   -0.19796
 Alpha virt. eigenvalues --    0.04881   0.06774   0.18781   0.25878   0.47022
 Alpha virt. eigenvalues --    0.64666

 Mulliken charges:
               1
     1  H   -0.086032
     2  H    0.103176
     3  H    0.172873
     4  H   -0.101122
     5  H   -0.072134
     6  H   -0.016761
     7  H   -0.016761
     8  H   -0.072134
     9  H   -0.101122
    10  H    0.172873
    11  H    0.103176
    12  H   -0.086032
 Sum of Mulliken charges =   0.00000

 Dipole moment (field-independent basis, Debye):
    X=              0.0000    Y=              0.0000    Z=              0.0000  Tot=              0.0000
 Quadrupole moment (field-independent basis, Debye-Ang):
   XX=            -16.6786   YY=            -16.1997   ZZ=            -15.6654
   XY=              1.0863   XZ=             -0.0000   YZ=              0.0000

 Normal termination of Gaussian 09 at Thu Feb 16 18:12:39 2017.
