 Gaussian 09, Revision E.01,
 Gaussian 09:  ES64L-G09RevE.01 30-Nov-2015

 ----------------------------------------------------------------------
 #rhf/gen scf(tight,novaracc,noincfock,fulldiag) stable(crhf) guess=mix
  geom=nocrowd test
 ----------------------------------------------------------------------

 hf stability analysis of h12 triangular lattice, y= 0.2662511995880488
 8 alpha= 7.0000000000000000
 ----------------------------------------------------------------------
 Symbolic Z-matrix:
 Charge =  0 Multiplicity = 1

                         Standard orientation:
 ---------------------------------------------------------------------
 Center     Atomic      Atomic             Coordinates (Angstroms)
 Number     Number       Type             X           Y           Z
 ---------------------------------------------------------------------
      1          1           0        4.336884    0.798754   -0.000000
      2          1           0        6.505326    0.532502   -0.000000
      3          1           0        2.168442    0.532502   -0.000000
      4          1           0        4.336884    0.266251   -0.000000
      5          1           0        0.000000    0.266251   -0.000000
      6          1           0        2.168442    0.000000   -0.000000
      7          1           0       -2.168442    0.000000   -0.000000
      8          1           0       -0.000000   -0.266251   -0.000000
      9          1           0       -4.336884   -0.266251   -0.000000
     10          1           0       -2.168442   -0.532502   -0.000000
     11          1           0       -6.505326   -0.532502   -0.000000
     12          1           0       -4.336884   -0.798754   -0.000000
 ---------------------------------------------------------------------

 SCF Done:  E(RHF) =  -5.65267840426     A.U. after   77 cycles
 E2 =    -0.1106720867D+01 EUMP2 =    -0.67593992712714D+01

 The electronic state is 1-AG.
 Alpha  occ. eigenvalues --   -0.73488  -0.72211  -0.70141  -0.67794  -0.65711
 Alpha  occ. eigenvalues --   -0.19887
 Alpha virt. eigenvalues --   -0.15828   0.47503   0.51676   0.58075   0.65217
 Alpha virt. eigenvalues --    0.71078

 Mulliken charges:
               1
     1  H    0.000675
     2  H   -0.000030
     3  H   -0.000239
     4  H   -0.000761
     5  H    0.000007
     6  H    0.000348
     7  H    0.000348
     8  H    0.000007
     9  H   -0.000761
    10  H   -0.000239
    11  H   -0.000030
    12  H    0.000675
 Sum of Mulliken charges =   0.00000

 Dipole moment (field-independent basis, Debye):
    X=              0.0000    Y=              0.0000    Z=              0.0000  Tot=              0.0000
 Quadrupole moment (field-independent basis, Debye-Ang):
   XX=            -19.2665   YY=            -14.8270   ZZ=            -16.0515
   XY=             -0.2706   XZ=              0.0000   YZ=             -0.0000

 Normal termination of Gaussian 09 at Thu Feb 16 18:09:34 2017.
