 Gaussian 09, Revision E.01,
 Gaussian 09:  ES64L-G09RevE.01 30-Nov-2015

 ----------------------------------------------------------------------
 #rhf/gen scf(tight,novaracc,noincfock,fulldiag) stable(crhf) guess=mix
  geom=nocrowd test
 ----------------------------------------------------------------------

 hf stability analysis of h12 triangular lattice, y= 0.8914339662136427
 9 alpha= 54.000000000000000
 ----------------------------------------------------------------------
 Symbolic Z-matrix:
 Charge =  0 Multiplicity = 1

                         Standard orientation:
 ---------------------------------------------------------------------
 Center     Atomic      Atomic             Coordinates (Angstroms)
 Number     Number       Type             X           Y           Z
 ---------------------------------------------------------------------
      1          1           0        2.674302    1.295329    0.000000
      2          1           0        1.782868    1.942994    0.000000
      3          1           0        1.782868    0.647665    0.000000
      4          1           0        0.891434    1.295329    0.000000
      5          1           0        0.891434    0.000000    0.000000
      6          1           0        0.000000    0.647665    0.000000
      7          1           0       -0.000000   -0.647665   -0.000000
      8          1           0       -0.891434    0.000000    0.000000
      9          1           0       -0.891434   -1.295329    0.000000
     10          1           0       -1.782868   -0.647665    0.000000
     11          1           0       -1.782868   -1.942994    0.000000
     12          1           0       -2.674302   -1.295329    0.000000
 ---------------------------------------------------------------------

 SCF Done:  E(RHF) =  -5.91339476856     A.U. after   13 cycles
 E2 =    -0.1264035753D+00 EUMP2 =    -0.60397983438871D+01

 The electronic state is 1-AG.
 Alpha  occ. eigenvalues --   -0.88137  -0.79086  -0.63867  -0.45018  -0.42601
 Alpha  occ. eigenvalues --   -0.32462
 Alpha virt. eigenvalues --    0.04437   0.06132   0.32159   0.37775   0.61954
 Alpha virt. eigenvalues --    0.80575

 Mulliken charges:
               1
     1  H    0.024194
     2  H    0.039426
     3  H    0.067014
     4  H   -0.121895
     5  H   -0.143716
     6  H    0.134977
     7  H    0.134977
     8  H   -0.143716
     9  H   -0.121895
    10  H    0.067014
    11  H    0.039426
    12  H    0.024194
 Sum of Mulliken charges =  -0.00000

 Dipole moment (field-independent basis, Debye):
    X=              0.0000    Y=              0.0000    Z=             -0.0000  Tot=              0.0000
 Quadrupole moment (field-independent basis, Debye-Ang):
   XX=            -14.9631   YY=            -17.9866   ZZ=            -15.5740
   XY=              2.8079   XZ=              0.0000   YZ=             -0.0000

 Normal termination of Gaussian 09 at Thu Feb 16 18:11:54 2017.
