 Gaussian 09, Revision E.01,
 Gaussian 09:  ES64L-G09RevE.01 30-Nov-2015

 ----------------------------------------------------------------------
 #rhf/gen scf(tight,novaracc,noincfock,fulldiag) stable(crhf) guess=mix
  geom=nocrowd test
 ----------------------------------------------------------------------

 hf stability analysis of h12 triangular lattice, y= 0.4201353311163031
 9 alpha= 17.000000000000000
 ----------------------------------------------------------------------
 Symbolic Z-matrix:
 Charge =  0 Multiplicity = 1

                         Standard orientation:
 ---------------------------------------------------------------------
 Center     Atomic      Atomic             Coordinates (Angstroms)
 Number     Number       Type             X           Y           Z
 ---------------------------------------------------------------------
      1          1           0        2.748401    1.260406   -0.000000
      2          1           0        4.122602    0.840271   -0.000000
      3          1           0        1.374201    0.840271   -0.000000
      4          1           0        2.748401    0.420135   -0.000000
      5          1           0        0.000000    0.420135    0.000000
      6          1           0        1.374201    0.000000   -0.000000
      7          1           0       -1.374201    0.000000   -0.000000
      8          1           0       -0.000000   -0.420135   -0.000000
      9          1           0       -2.748401   -0.420135   -0.000000
     10          1           0       -1.374201   -0.840271   -0.000000
     11          1           0       -4.122602   -0.840271   -0.000000
     12          1           0       -2.748401   -1.260406   -0.000000
 ---------------------------------------------------------------------

 SCF Done:  E(RHF) =  -5.78395290662     A.U. after   19 cycles
 E2 =    -0.3462553758D+00 EUMP2 =    -0.61302082824276D+01

 The electronic state is 1-AG.
 Alpha  occ. eigenvalues --   -0.80258  -0.74954  -0.65874  -0.53803  -0.39114
 Alpha  occ. eigenvalues --   -0.10691
 Alpha virt. eigenvalues --   -0.01366   0.11218   0.20003   0.33387   0.49168
 Alpha virt. eigenvalues --    0.62217

 Mulliken charges:
               1
     1  H    0.025323
     2  H   -0.180994
     3  H    0.021438
     4  H    0.102521
     5  H    0.028058
     6  H    0.003655
     7  H    0.003655
     8  H    0.028058
     9  H    0.102521
    10  H    0.021438
    11  H   -0.180994
    12  H    0.025323
 Sum of Mulliken charges =  -0.00000

 Dipole moment (field-independent basis, Debye):
    X=              0.0000    Y=             -0.0000    Z=              0.0000  Tot=              0.0000
 Quadrupole moment (field-independent basis, Debye-Ang):
   XX=            -42.5280   YY=            -14.0262   ZZ=            -15.2768
   XY=             -5.5628   XZ=             -0.0000   YZ=             -0.0000

 Normal termination of Gaussian 09 at Thu Feb 16 18:10:03 2017.
