 Gaussian 09, Revision E.01,
 Gaussian 09:  ES64L-G09RevE.01 30-Nov-2015

 ----------------------------------------------------------------------
 #rhf/gen scf(tight,novaracc,noincfock,fulldiag) stable(crhf) guess=mix
  geom=nocrowd test
 ----------------------------------------------------------------------

 hf stability analysis of h12 triangular lattice, y= 1.2594669489559134
  alpha= 70.000000000000000
 ----------------------------------------------------------------------
 Symbolic Z-matrix:
 Charge =  0 Multiplicity = 1

                         Standard orientation:
 ---------------------------------------------------------------------
 Center     Atomic      Atomic             Coordinates (Angstroms)
 Number     Number       Type             X           Y           Z
 ---------------------------------------------------------------------
      1          1           0        3.778401    0.916817   -0.000000
      2          1           0        2.518934    1.375225   -0.000000
      3          1           0        2.518934    0.458408   -0.000000
      4          1           0        1.259467    0.916817   -0.000000
      5          1           0        1.259467    0.000000   -0.000000
      6          1           0        0.000000    0.458408    0.000000
      7          1           0       -0.000000   -0.458408   -0.000000
      8          1           0       -1.259467    0.000000   -0.000000
      9          1           0       -1.259467   -0.916817   -0.000000
     10          1           0       -2.518934   -0.458408   -0.000000
     11          1           0       -2.518934   -1.375225   -0.000000
     12          1           0       -3.778401   -0.916817   -0.000000
 ---------------------------------------------------------------------

 SCF Done:  E(RHF) =  -5.72076462669     A.U. after   14 cycles
 E2 =    -0.1707274793D+00 EUMP2 =    -0.58914921060054D+01

 The electronic state is 1-AG.
 Alpha  occ. eigenvalues --   -0.80103  -0.76002  -0.64729  -0.49191  -0.29774
 Alpha  occ. eigenvalues --   -0.17190
 Alpha virt. eigenvalues --    0.05407   0.06126   0.16386   0.27277   0.47451
 Alpha virt. eigenvalues --    0.64694

 Mulliken charges:
               1
     1  H   -0.081336
     2  H    0.066855
     3  H    0.179004
     4  H   -0.070270
     5  H   -0.090423
     6  H   -0.003830
     7  H   -0.003830
     8  H   -0.090423
     9  H   -0.070270
    10  H    0.179004
    11  H    0.066855
    12  H   -0.081336
 Sum of Mulliken charges =  -0.00000

 Dipole moment (field-independent basis, Debye):
    X=             -0.0000    Y=              0.0000    Z=             -0.0000  Tot=              0.0000
 Quadrupole moment (field-independent basis, Debye-Ang):
   XX=            -17.9262   YY=            -16.1896   ZZ=            -15.6341
   XY=              0.3220   XZ=              0.0000   YZ=             -0.0000

 Normal termination of Gaussian 09 at Thu Feb 16 18:12:42 2017.
