 Gaussian 09, Revision E.01,
 Gaussian 09:  ES64L-G09RevE.01 30-Nov-2015

 ----------------------------------------------------------------------
 #rhf/gen scf(tight,novaracc,noincfock,fulldiag) stable(crhf) guess=mix
  geom=nocrowd test
 ----------------------------------------------------------------------

 hf stability analysis of h12 triangular lattice, y= 1.4678899319530556
  alpha= 75.000000000000000
 ----------------------------------------------------------------------
 Symbolic Z-matrix:
 Charge =  0 Multiplicity = 1

                         Standard orientation:
 ---------------------------------------------------------------------
 Center     Atomic      Atomic             Coordinates (Angstroms)
 Number     Number       Type             X           Y           Z
 ---------------------------------------------------------------------
      1          1           0        4.403670    0.786640    0.000000
      2          1           0        2.935780    1.179960    0.000000
      3          1           0        2.935780    0.393320    0.000000
      4          1           0        1.467890    0.786640    0.000000
      5          1           0        1.467890    0.000000    0.000000
      6          1           0        0.000000    0.393320    0.000000
      7          1           0       -0.000000   -0.393320    0.000000
      8          1           0       -1.467890    0.000000   -0.000000
      9          1           0       -1.467890   -0.786640    0.000000
     10          1           0       -2.935780   -0.393320   -0.000000
     11          1           0       -2.935780   -1.179960    0.000000
     12          1           0       -4.403670   -0.786640   -0.000000
 ---------------------------------------------------------------------

 SCF Done:  E(RHF) =  -5.87940246339     A.U. after   16 cycles
 E2 =    -0.5168860636D+00 EUMP2 =    -0.63962885269752D+01

 The electronic state is 1-AG.
 Alpha  occ. eigenvalues --   -0.78052  -0.73640  -0.65801  -0.55655  -0.43560
 Alpha  occ. eigenvalues --   -0.12804
 Alpha virt. eigenvalues --   -0.05589   0.17062   0.24804   0.37361   0.51956
 Alpha virt. eigenvalues --    0.64471

 Mulliken charges:
               1
     1  H   -0.126661
     2  H    0.027036
     3  H    0.058536
     4  H    0.011954
     5  H    0.017238
     6  H    0.011896
     7  H    0.011896
     8  H    0.017238
     9  H    0.011954
    10  H    0.058536
    11  H    0.027036
    12  H   -0.126661
 Sum of Mulliken charges =   0.00000

 Dipole moment (field-independent basis, Debye):
    X=             -0.0000    Y=              0.0000    Z=              0.0000  Tot=              0.0000
 Quadrupole moment (field-independent basis, Debye-Ang):
   XX=            -38.5647   YY=            -13.6426   ZZ=            -15.3464
   XY=             -4.0971   XZ=             -0.0000   YZ=             -0.0000

 Normal termination of Gaussian 09 at Thu Feb 16 18:12:57 2017.
