 Gaussian 09, Revision E.01,
 Gaussian 09:  ES64L-G09RevE.01 30-Nov-2015

 ----------------------------------------------------------------------
 #t rhf/gen scf(tight,novaracc,noincfock) stable(crhf) guess=mix geom=n
 ocrowd test
 ----------------------------------------------------------------------

 scf stability calculation for a triangular configuration of 10 H atoms
  (made up of 8 iscosceles triangles)
 ----------------------------------------------------------------------
 Symbolic Z-matrix:
 Charge =  0 Multiplicity = 1

                         Standard orientation:
 ---------------------------------------------------------------------
 Center     Atomic      Atomic             Coordinates (Angstroms)
 Number     Number       Type             X           Y           Z
 ---------------------------------------------------------------------
      1          1           0       -1.681601   -4.435712   -0.000000
      2          1           0       -0.420400   -2.276260   -0.000000
      3          1           0       -0.840800   -2.080523   -0.000000
      4          1           0       -1.261201   -1.884786   -0.000000
      5          1           0        0.420400    0.078929    0.000000
      6          1           0        0.000000    0.274666    0.000000
      7          1           0       -0.420400    0.470403    0.000000
      8          1           0        1.261201    2.434119    0.000000
      9          1           0        0.840800    2.629856    0.000000
     10          1           0        2.102001    4.789308    0.000000
 ---------------------------------------------------------------------

 SCF Done:  E(RHF) =  -3.40373773516     A.U. after   19 cycles
 E2 =    -0.3265332514D+00 EUMP2 =    -0.37302709865881D+01

 The electronic state is 1-A'.
 Alpha  occ. eigenvalues --   -1.05063  -1.04315  -0.73890  -0.24591  -0.18191
 Alpha virt. eigenvalues --   -0.09722  -0.00456   0.64134   1.44098   1.53665

 Mulliken charges:
               1
     1  H   -0.279365
     2  H    0.489389
     3  H   -0.787434
     4  H    0.563563
     5  H    0.496664
     6  H   -0.774877
     7  H    0.494086
     8  H   -0.001796
     9  H   -0.001380
    10  H   -0.198850
 Sum of Mulliken charges =  -0.00000

 Dipole moment (field-independent basis, Debye):
    X=             -0.9845    Y=             -0.9620    Z=             -0.0000  Tot=              1.3765

 Test job not archived.
 1\1\GINC-SULU\Stability\RHF\Gen\H10\LCJ1\05-Feb-2017\0\\#t rhf/gen scf
 (tight,novaracc,noincfock) stable(crhf) guess=mix geom=nocrowd test\\s
 cf stability calculation for a triangular configuration of 10 H atoms
 (made up of 8 iscosceles triangles)\\0,1\H,0,-0.231867,0.,4.98\H,0,-0.
 463734,0.,2.49\H,0,0.,0.,2.49\H,0,0.463734,0.,2.49\H,0,-0.231867,0.,0.
 \H,0,0.231867,0.,0.\H,0,0.695601,0.,0.\H,0,0.,0.,-2.49\H,0,0.463734,0.
 ,-2.49\H,0,0.231867,0.,-4.98\\Version=ES64L-G09RevE.01\State=1-A'\HF=-
 3.4037377\MP2=-3.730271\RMSD=7.684e-09\Dipole=0.1913996,0.,0.5066041\Q

 Normal termination of Gaussian 09 at Sun Feb  5 20:08:16 2017.
