 Gaussian 09, Revision E.01,
 Gaussian 09:  ES64L-G09RevE.01 30-Nov-2015

 ----------------------------------------------------------------------
 #rhf/gen scf(symm,tight,novaracc,noincfock,fulldiag) stable(crhf) gues
 s=read geom=nocrowd test
 ----------------------------------------------------------------------

 ----------------------------------------------------------------------
 hf stability analysis of h12 triangular lattice, y= 1.3531893207273342
 ----------------------------------------------------------------------
 Symbolic Z-matrix:
 Charge =  0 Multiplicity = 1

                         Standard orientation:
 ---------------------------------------------------------------------
 Center     Atomic      Atomic             Coordinates (Angstroms)
 Number     Number       Type             X           Y           Z
 ---------------------------------------------------------------------
      1          1           0        0.813824    3.290548   -0.000000
      2          1           0        0.000000    2.128288   -0.000000
      3          1           0        0.813824    1.871690   -0.000000
      4          1           0        0.000000    0.709429   -0.000000
      5          1           0       -0.813824    0.966027   -0.000000
      6          1           0       -0.813824   -0.452832   -0.000000
      7          1           0       -0.813824   -1.871690    0.000000
      8          1           0       -0.000000   -0.709429   -0.000000
      9          1           0        0.813824    0.452832   -0.000000
     10          1           0        0.813824   -0.966027   -0.000000
     11          1           0       -0.000000   -2.128288   -0.000000
     12          1           0       -0.813824   -3.290548    0.000000
 ---------------------------------------------------------------------

 SCF Done:  E(RHF) =  -5.65697872150     A.U. after    8 cycles
 E2 =    -0.6139358266D+00 EUMP2 =    -0.62709145481029D+01

 The electronic state is 1-AG.
 Alpha  occ. eigenvalues --   -0.89912  -0.75696  -0.60496  -0.50182  -0.43700
 Alpha  occ. eigenvalues --   -0.09024
 Alpha virt. eigenvalues --   -0.03596  -0.01539   0.36704   0.41276   0.53783
 Alpha virt. eigenvalues --    0.74689

 Mulliken charges:
               1
     1  H   -0.108314
     2  H   -0.007055
     3  H    0.070558
     4  H   -0.158359
     5  H    0.167613
     6  H    0.035557
     7  H    0.070558
     8  H   -0.158359
     9  H    0.035557
    10  H    0.167613
    11  H   -0.007055
    12  H   -0.108314
 Sum of Mulliken charges =   0.00000

 Dipole moment (field-independent basis, Debye):
    X=             -0.0000    Y=             -0.0000    Z=             -0.0000  Tot=              0.0000
 Quadrupole moment (field-independent basis, Debye-Ang):
   XX=            -14.9580   YY=            -29.1750   ZZ=            -15.0577
   XY=             -4.9476   XZ=              0.0000   YZ=              0.0000

 Normal termination of Gaussian 09 at Fri Feb 17 15:06:19 2017.
