 Gaussian 09, Revision E.01,
 Gaussian 09:  ES64L-G09RevE.01 30-Nov-2015

 ----------------------------------------------------------------------
 #rhf/gen scf(symm,tight,novaracc,noincfock,fulldiag) stable(crhf) gues
 s=read geom=nocrowd test
 ----------------------------------------------------------------------

 hf stability analysis of h12 triangular lattice, y= 0.6686047848167678
 8
 ----------------------------------------------------------------------
 Symbolic Z-matrix:
 Charge =  0 Multiplicity = 1

                         Standard orientation:
 ---------------------------------------------------------------------
 Center     Atomic      Atomic             Coordinates (Angstroms)
 Number     Number       Type             X           Y           Z
 ---------------------------------------------------------------------
      1          1           0        1.057318    1.364715   -0.000000
      2          1           0       -0.000000    1.638156   -0.000000
      3          1           0        1.057318    0.272611   -0.000000
      4          1           0       -0.000000    0.546052   -0.000000
      5          1           0       -1.057318    1.911597   -0.000000
      6          1           0       -1.057318    0.819493   -0.000000
      7          1           0       -1.057318   -0.272611   -0.000000
      8          1           0       -0.000000   -0.546052   -0.000000
      9          1           0        1.057318   -0.819493   -0.000000
     10          1           0        1.057318   -1.911597   -0.000000
     11          1           0       -0.000000   -1.638156   -0.000000
     12          1           0       -1.057318   -1.364715   -0.000000
 ---------------------------------------------------------------------

 SCF Done:  E(RHF) =  -5.05680678054     A.U. after   11 cycles
 E2 =    -0.1667749411D+00 EUMP2 =    -0.52235817216604D+01

 The electronic state is 1-AG.
 Alpha  occ. eigenvalues --   -0.90689  -0.73365  -0.60137  -0.50247  -0.19318
 Alpha  occ. eigenvalues --   -0.07274
 Alpha virt. eigenvalues --   -0.21157   0.07780   0.28914   0.39471   0.59909
 Alpha virt. eigenvalues --    0.88099

 Mulliken charges:
               1
     1  H    0.278964
     2  H   -0.010628
     3  H   -0.194140
     4  H   -0.083790
     5  H   -0.213360
     6  H    0.222954
     7  H   -0.194140
     8  H   -0.083790
     9  H    0.222954
    10  H   -0.213360
    11  H   -0.010628
    12  H    0.278964
 Sum of Mulliken charges =  -0.00000

 Dipole moment (field-independent basis, Debye):
    X=             -0.0000    Y=             -0.0000    Z=             -0.0000  Tot=              0.0000
 Quadrupole moment (field-independent basis, Debye-Ang):
   XX=            -13.2293   YY=            -24.9254   ZZ=            -14.5191
   XY=              5.9827   XZ=             -0.0000   YZ=              0.0000

 Normal termination of Gaussian 09 at Fri Feb 17 14:59:04 2017.
