 Gaussian 09, Revision E.01,
 Gaussian 09:  ES64L-G09RevE.01 30-Nov-2015

 ----------------------------------------------------------------------
 #rhf/gen scf(symm,tight,novaracc,noincfock,fulldiag) stable(crhf) gues
 s=read geom=nocrowd test
 ----------------------------------------------------------------------

 hf stability analysis of h12 triangular lattice, y= 0.3427291105198108
 1
 ----------------------------------------------------------------------
 Symbolic Z-matrix:
 Charge =  0 Multiplicity = 1

                         Standard orientation:
 ---------------------------------------------------------------------
 Center     Atomic      Atomic             Coordinates (Angstroms)
 Number     Number       Type             X           Y           Z
 ---------------------------------------------------------------------
      1          1           0        0.671697    0.996198    0.000000
      2          1           0        0.000000    2.578618    0.000000
      3          1           0        0.671697   -0.722881   -0.000000
      4          1           0        0.000000    0.859539    0.000000
      5          1           0       -0.671697    4.161038    0.000000
      6          1           0       -0.671697    2.441959    0.000000
      7          1           0       -0.671697    0.722881    0.000000
      8          1           0       -0.000000   -0.859539   -0.000000
      9          1           0        0.671697   -2.441959   -0.000000
     10          1           0        0.671697   -4.161038   -0.000000
     11          1           0       -0.000000   -2.578618   -0.000000
     12          1           0       -0.671697   -0.996198    0.000000
 ---------------------------------------------------------------------

 SCF Done:  E(RHF) =  -5.65385488693     A.U. after    6 cycles
 E2 =    -0.7092271726D+00 EUMP2 =    -0.63630820595087D+01

 The electronic state is 1-AG.
 Alpha  occ. eigenvalues --   -0.88638  -0.78369  -0.65554  -0.62251  -0.35419
 Alpha  occ. eigenvalues --   -0.17831
 Alpha virt. eigenvalues --   -0.11655   0.03012   0.46227   0.48896   0.81331
 Alpha virt. eigenvalues --    1.03027

 Mulliken charges:
               1
     1  H    0.159819
     2  H   -0.006675
     3  H    0.114450
     4  H   -0.256356
     5  H   -0.024250
     6  H    0.013012
     7  H    0.114450
     8  H   -0.256356
     9  H    0.013012
    10  H   -0.024250
    11  H   -0.006675
    12  H    0.159819
 Sum of Mulliken charges =   0.00000

 Dipole moment (field-independent basis, Debye):
    X=              0.0000    Y=              0.0000    Z=              0.0000  Tot=              0.0000
 Quadrupole moment (field-independent basis, Debye-Ang):
   XX=            -15.7707   YY=            -22.7017   ZZ=            -15.3611
   XY=              1.8423   XZ=              0.0000   YZ=             -0.0000

 Normal termination of Gaussian 09 at Fri Feb 17 14:53:43 2017.
