 Gaussian 09, Revision E.01,
 Gaussian 09:  ES64L-G09RevE.01 30-Nov-2015

 ----------------------------------------------------------------------
 #rhf/gen scf(symm,tight,novaracc,noincfock,fulldiag) stable(crhf) gues
 s=read geom=nocrowd test
 ----------------------------------------------------------------------

 hf stability analysis of h12 triangular lattice, y= 0.6152458342516039
 5
 ----------------------------------------------------------------------
 Symbolic Z-matrix:
 Charge =  0 Multiplicity = 1

                         Standard orientation:
 ---------------------------------------------------------------------
 Center     Atomic      Atomic             Coordinates (Angstroms)
 Number     Number       Type             X           Y           Z
 ---------------------------------------------------------------------
      1          1           0        1.029043    1.235726   -0.000000
      2          1           0        0.000000    1.683166    0.000000
      3          1           0        1.029043    0.113615   -0.000000
      4          1           0        0.000000    0.561055    0.000000
      5          1           0       -1.029043    2.130607    0.000000
      6          1           0       -1.029043    1.008496    0.000000
      7          1           0       -1.029043   -0.113615   -0.000000
      8          1           0       -0.000000   -0.561055    0.000000
      9          1           0        1.029043   -1.008496    0.000000
     10          1           0        1.029043   -2.130607    0.000000
     11          1           0       -0.000000   -1.683166    0.000000
     12          1           0       -1.029043   -1.235726   -0.000000
 ---------------------------------------------------------------------

 SCF Done:  E(RHF) =  -5.11641841745     A.U. after   11 cycles
 E2 =    -0.1807283752D+00 EUMP2 =    -0.52971467926723D+01

 The electronic state is 1-AG.
 Alpha  occ. eigenvalues --   -0.91786  -0.73783  -0.59970  -0.51661  -0.22452
 Alpha  occ. eigenvalues --   -0.02761
 Alpha virt. eigenvalues --   -0.18617   0.09277   0.32265   0.32798   0.58307
 Alpha virt. eigenvalues --    0.71067

 Mulliken charges:
               1
     1  H    0.367547
     2  H   -0.088108
     3  H   -0.180917
     4  H   -0.054638
     5  H   -0.185681
     6  H    0.141797
     7  H   -0.180917
     8  H   -0.054638
     9  H    0.141797
    10  H   -0.185681
    11  H   -0.088108
    12  H    0.367547
 Sum of Mulliken charges =   0.00000

 Dipole moment (field-independent basis, Debye):
    X=             -0.0000    Y=              0.0000    Z=             -0.0000  Tot=              0.0000
 Quadrupole moment (field-independent basis, Debye-Ang):
   XX=            -13.9786   YY=            -25.8762   ZZ=            -14.6409
   XY=              7.5540   XZ=              0.0000   YZ=             -0.0000

 Normal termination of Gaussian 09 at Fri Feb 17 14:58:09 2017.
