 Gaussian 09, Revision E.01,
 Gaussian 09:  ES64L-G09RevE.01 30-Nov-2015

 ----------------------------------------------------------------------
 #rhf/gen scf(symm,tight,novaracc,noincfock,fulldiag) stable(crhf) gues
 s=read geom=nocrowd test
 ----------------------------------------------------------------------

 hf stability analysis of h12 triangular lattice, y= 0.5335894054604231
 1
 ----------------------------------------------------------------------
 Symbolic Z-matrix:
 Charge =  0 Multiplicity = 1

                         Standard orientation:
 ---------------------------------------------------------------------
 Center     Atomic      Atomic             Coordinates (Angstroms)
 Number     Number       Type             X           Y           Z
 ---------------------------------------------------------------------
      1          1           0        0.957124    1.075215   -0.000000
      2          1           0        0.000000    1.809642   -0.000000
      3          1           0        0.957124   -0.131213   -0.000000
      4          1           0        0.000000    0.603214   -0.000000
      5          1           0       -0.957124    2.544069   -0.000000
      6          1           0       -0.957124    1.337641   -0.000000
      7          1           0       -0.957124    0.131213    0.000000
      8          1           0       -0.000000   -0.603214   -0.000000
      9          1           0        0.957124   -1.337641   -0.000000
     10          1           0        0.957124   -2.544069   -0.000000
     11          1           0       -0.000000   -1.809642   -0.000000
     12          1           0       -0.957124   -1.075215   -0.000000
 ---------------------------------------------------------------------

 SCF Done:  E(RHF) =  -5.21771534223     A.U. after   11 cycles
 E2 =    -0.1873526096D+00 EUMP2 =    -0.54050679518000D+01

 The electronic state is 1-AG.
 Alpha  occ. eigenvalues --   -0.92581  -0.72760  -0.57701  -0.53873  -0.30536
 Alpha  occ. eigenvalues --    0.04816
 Alpha virt. eigenvalues --   -0.11800   0.15238   0.22999   0.39332   0.48906
 Alpha virt. eigenvalues --    0.52169

 Mulliken charges:
               1
     1  H    0.333575
     2  H   -0.236374
     3  H   -0.024860
     4  H   -0.076226
     5  H   -0.024170
     6  H    0.028056
     7  H   -0.024860
     8  H   -0.076226
     9  H    0.028056
    10  H   -0.024170
    11  H   -0.236374
    12  H    0.333575
 Sum of Mulliken charges =   0.00000

 Dipole moment (field-independent basis, Debye):
    X=             -0.0000    Y=              0.0000    Z=             -0.0000  Tot=              0.0000
 Quadrupole moment (field-independent basis, Debye-Ang):
   XX=            -14.4762   YY=            -24.9824   ZZ=            -14.8452
   XY=              4.6352   XZ=             -0.0000   YZ=             -0.0000

 Normal termination of Gaussian 09 at Fri Feb 17 14:56:41 2017.
