 Gaussian 09, Revision E.01,
 Gaussian 09:  ES64L-G09RevE.01 30-Nov-2015

 ----------------------------------------------------------------------
 #rhf/gen scf(symm,tight,novaracc,noincfock,fulldiag) stable(crhf) gues
 s=read geom=nocrowd test
 ----------------------------------------------------------------------

 ----------------------------------------------------------------------
 hf stability analysis of h12 triangular lattice, y= 1.5658605742718710
 ----------------------------------------------------------------------
 Symbolic Z-matrix:
 Charge =  0 Multiplicity = 1

                         Standard orientation:
 ---------------------------------------------------------------------
 Center     Atomic      Atomic             Coordinates (Angstroms)
 Number     Number       Type             X           Y           Z
 ---------------------------------------------------------------------
      1          1           0        0.717792    3.852695   -0.000000
      2          1           0        0.000000    2.413027   -0.000000
      3          1           0        0.717792    2.244010   -0.000000
      4          1           0        0.000000    0.804342   -0.000000
      5          1           0       -0.717792    0.973360    0.000000
      6          1           0       -0.717792   -0.635325    0.000000
      7          1           0       -0.717792   -2.244010    0.000000
      8          1           0       -0.000000   -0.804342    0.000000
      9          1           0        0.717792    0.635325    0.000000
     10          1           0        0.717792   -0.973360    0.000000
     11          1           0       -0.000000   -2.413027    0.000000
     12          1           0       -0.717792   -3.852695    0.000000
 ---------------------------------------------------------------------

 SCF Done:  E(RHF) =  -5.72240064326     A.U. after    7 cycles
 E2 =    -0.6550533388D+00 EUMP2 =    -0.63774539821060D+01

 The electronic state is 1-AG.
 Alpha  occ. eigenvalues --   -0.88727  -0.76951  -0.63926  -0.58057  -0.38785
 Alpha  occ. eigenvalues --   -0.15928
 Alpha virt. eigenvalues --   -0.09495   0.01794   0.42925   0.46908   0.70195
 Alpha virt. eigenvalues --    0.93400

 Mulliken charges:
               1
     1  H   -0.044176
     2  H   -0.005810
     3  H    0.025499
     4  H   -0.214885
     5  H    0.153785
     6  H    0.085587
     7  H    0.025499
     8  H   -0.214885
     9  H    0.085587
    10  H    0.153785
    11  H   -0.005810
    12  H   -0.044176
 Sum of Mulliken charges =  -0.00000

 Dipole moment (field-independent basis, Debye):
    X=              0.0000    Y=             -0.0000    Z=              0.0000  Tot=              0.0000
 Quadrupole moment (field-independent basis, Debye-Ang):
   XX=            -15.4890   YY=            -24.8402   ZZ=            -15.2754
   XY=             -2.6616   XZ=              0.0000   YZ=              0.0000

 Normal termination of Gaussian 09 at Fri Feb 17 15:07:09 2017.
