 Gaussian 09, Revision E.01,
 Gaussian 09:  ES64L-G09RevE.01 30-Nov-2015

 ----------------------------------------------------------------------
 #rhf/gen scf(symm,tight,novaracc,noincfock,fulldiag) stable(crhf) gues
 s=read geom=nocrowd test
 ----------------------------------------------------------------------

 ----------------------------------------------------------------------
 hf stability analysis of h12 triangular lattice, y= 1.8828341599932619
 ----------------------------------------------------------------------
 Symbolic Z-matrix:
 Charge =  0 Multiplicity = 1

                         Standard orientation:
 ---------------------------------------------------------------------
 Center     Atomic      Atomic             Coordinates (Angstroms)
 Number     Number       Type             X           Y           Z
 ---------------------------------------------------------------------
      1          1           0        0.605303    4.670521   -0.000000
      2          1           0        0.000000    2.861461    0.000000
      3          1           0        0.605303    2.762881   -0.000000
      4          1           0        0.000000    0.953820    0.000000
      5          1           0       -0.605303    1.052400    0.000000
      6          1           0       -0.605303   -0.855240    0.000000
      7          1           0       -0.605303   -2.762881   -0.000000
      8          1           0       -0.000000   -0.953820   -0.000000
      9          1           0        0.605303    0.855240    0.000000
     10          1           0        0.605303   -1.052400   -0.000000
     11          1           0       -0.000000   -2.861461   -0.000000
     12          1           0       -0.605303   -4.670521   -0.000000
 ---------------------------------------------------------------------

 SCF Done:  E(RHF) =  -5.42811034423     A.U. after    6 cycles
 E2 =    -0.8087076343D+00 EUMP2 =    -0.62368179785398D+01

 The electronic state is 1-AG.
 Alpha  occ. eigenvalues --   -0.89305  -0.82018  -0.67908  -0.66962  -0.30368
 Alpha  occ. eigenvalues --   -0.19522
 Alpha virt. eigenvalues --   -0.13914   0.04207   0.51380   0.52646   0.99934
 Alpha virt. eigenvalues --    1.18413

 Mulliken charges:
               1
     1  H   -0.007057
     2  H   -0.006564
     3  H    0.002761
     4  H   -0.342567
     5  H    0.187046
     6  H    0.166381
     7  H    0.002761
     8  H   -0.342567
     9  H    0.166381
    10  H    0.187046
    11  H   -0.006564
    12  H   -0.007057
 Sum of Mulliken charges =   0.00000

 Dipole moment (field-independent basis, Debye):
    X=              0.0000    Y=             -0.0000    Z=              0.0000  Tot=              0.0000
 Quadrupole moment (field-independent basis, Debye-Ang):
   XX=            -16.1661   YY=            -19.9574   ZZ=            -15.4586
   XY=             -0.9795   XZ=              0.0000   YZ=             -0.0000

 Normal termination of Gaussian 09 at Fri Feb 17 15:07:56 2017.
