 Gaussian 09, Revision E.01,
 Gaussian 09:  ES64L-G09RevE.01 30-Nov-2015

 ----------------------------------------------------------------------
 #rhf/gen scf(symm,tight,novaracc,noincfock,fulldiag) stable(crhf) gues
 s=read geom=nocrowd test
 ----------------------------------------------------------------------

 hf stability analysis of h12 triangular lattice, y= 0.5948114929471706
 2
 ----------------------------------------------------------------------
 Symbolic Z-matrix:
 Charge =  0 Multiplicity = 1

                         Standard orientation:
 ---------------------------------------------------------------------
 Center     Atomic      Atomic             Coordinates (Angstroms)
 Number     Number       Type             X           Y           Z
 ---------------------------------------------------------------------
      1          1           0        1.014320    1.190775   -0.000000
      2          1           0        0.000000    1.707597    0.000000
      3          1           0        1.014320    0.052377   -0.000000
      4          1           0        0.000000    0.569199    0.000000
      5          1           0       -1.014320    2.224419    0.000000
      6          1           0       -1.014320    1.086021    0.000000
      7          1           0       -1.014320   -0.052377   -0.000000
      8          1           0       -0.000000   -0.569199    0.000000
      9          1           0        1.014320   -1.086021    0.000000
     10          1           0        1.014320   -2.224419    0.000000
     11          1           0       -0.000000   -1.707597    0.000000
     12          1           0       -1.014320   -1.190775   -0.000000
 ---------------------------------------------------------------------

 SCF Done:  E(RHF) =  -5.14458521641     A.U. after   10 cycles
 E2 =    -0.1727486432D+00 EUMP2 =    -0.53173338595835D+01

 The electronic state is 1-AG.
 Alpha  occ. eigenvalues --   -0.92286  -0.73673  -0.59831  -0.52252  -0.24121
 Alpha  occ. eigenvalues --   -0.00933
 Alpha virt. eigenvalues --   -0.17189   0.10197   0.30207   0.34613   0.56967
 Alpha virt. eigenvalues --    0.63924

 Mulliken charges:
               1
     1  H    0.374733
     2  H   -0.127606
     3  H   -0.142096
     4  H   -0.050989
     5  H   -0.150369
     6  H    0.096328
     7  H   -0.142096
     8  H   -0.050989
     9  H    0.096328
    10  H   -0.150369
    11  H   -0.127606
    12  H    0.374733
 Sum of Mulliken charges =   0.00000

 Dipole moment (field-independent basis, Debye):
    X=             -0.0000    Y=              0.0000    Z=             -0.0000  Tot=              0.0000
 Quadrupole moment (field-independent basis, Debye-Ang):
   XX=            -14.1653   YY=            -26.1298   ZZ=            -14.6927
   XY=              7.3909   XZ=             -0.0000   YZ=              0.0000

 Normal termination of Gaussian 09 at Fri Feb 17 14:57:48 2017.
