 Gaussian 09, Revision E.01,
 Gaussian 09:  ES64L-G09RevE.01 30-Nov-2015

 ----------------------------------------------------------------------
 #rhf/gen scf(symm,tight,novaracc,noincfock,fulldiag) stable(crhf) gues
 s=read geom=nocrowd test
 ----------------------------------------------------------------------

 hf stability analysis of h12 triangular lattice, y= 0.3614429856522110
 0
 ----------------------------------------------------------------------
 Symbolic Z-matrix:
 Charge =  0 Multiplicity = 1

                         Standard orientation:
 ---------------------------------------------------------------------
 Center     Atomic      Atomic             Coordinates (Angstroms)
 Number     Number       Type             X           Y           Z
 ---------------------------------------------------------------------
      1          1           0        0.705061    0.978404   -0.000000
      2          1           0        0.000000    2.456596   -0.000000
      3          1           0        0.705061   -0.659326   -0.000000
      4          1           0        0.000000    0.818865   -0.000000
      5          1           0       -0.705061    3.934788    0.000000
      6          1           0       -0.705061    2.297057    0.000000
      7          1           0       -0.705061    0.659326   -0.000000
      8          1           0       -0.000000   -0.818865   -0.000000
      9          1           0        0.705061   -2.297057    0.000000
     10          1           0        0.705061   -3.934788    0.000000
     11          1           0       -0.000000   -2.456596   -0.000000
     12          1           0       -0.705061   -0.978404   -0.000000
 ---------------------------------------------------------------------

 SCF Done:  E(RHF) =  -5.71021486311     A.U. after    7 cycles
 E2 =    -0.6685286280D+00 EUMP2 =    -0.63787434911506D+01

 The electronic state is 1-AG.
 Alpha  occ. eigenvalues --   -0.88664  -0.77267  -0.64375  -0.59267  -0.37870
 Alpha  occ. eigenvalues --   -0.16526
 Alpha virt. eigenvalues --   -0.10144   0.02169   0.43817   0.47422   0.73127
 Alpha virt. eigenvalues --    0.95998

 Mulliken charges:
               1
     1  H    0.154527
     2  H   -0.006091
     3  H    0.093114
     4  H   -0.225133
     5  H   -0.037962
     6  H    0.021545
     7  H    0.093114
     8  H   -0.225133
     9  H    0.021545
    10  H   -0.037962
    11  H   -0.006091
    12  H    0.154527
 Sum of Mulliken charges =  -0.00000

 Dipole moment (field-independent basis, Debye):
    X=             -0.0000    Y=             -0.0000    Z=             -0.0000  Tot=              0.0000
 Quadrupole moment (field-independent basis, Debye-Ang):
   XX=            -15.5662   YY=            -24.2401   ZZ=            -15.3004
   XY=              2.4165   XZ=              0.0000   YZ=             -0.0000

 Normal termination of Gaussian 09 at Fri Feb 17 14:53:57 2017.
