 Gaussian 09, Revision E.01,
 Gaussian 09:  ES64L-G09RevE.01 30-Nov-2015

 ----------------------------------------------------------------------
 #rhf/gen scf(symm,tight,novaracc,noincfock,fulldiag) stable(crhf) gues
 s=read geom=nocrowd test
 ----------------------------------------------------------------------

 hf stability analysis of h12 triangular lattice, y= 0.7499531690997017
 8
 ----------------------------------------------------------------------
 Symbolic Z-matrix:
 Charge =  0 Multiplicity = 1

                         Standard orientation:
 ---------------------------------------------------------------------
 Center     Atomic      Atomic             Coordinates (Angstroms)
 Number     Number       Type             X           Y           Z
 ---------------------------------------------------------------------
      1          1           0        1.074386    1.583997    0.000000
      2          1           0        0.000000    1.612131    0.000000
      3          1           0        1.074386    0.509243   -0.000000
      4          1           0        0.000000    0.537377    0.000000
      5          1           0       -1.074386    1.640265    0.000000
      6          1           0       -1.074386    0.565511    0.000000
      7          1           0       -1.074386   -0.509243   -0.000000
      8          1           0       -0.000000   -0.537377    0.000000
      9          1           0        1.074386   -0.565511    0.000000
     10          1           0        1.074386   -1.640265    0.000000
     11          1           0       -0.000000   -1.612131    0.000000
     12          1           0       -1.074386   -1.583997   -0.000000
 ---------------------------------------------------------------------

 SCF Done:  E(RHF) =  -5.02351363098     A.U. after   10 cycles
 E2 =    -0.1444631737D+00 EUMP2 =    -0.51679768046398D+01

 The electronic state is 1-AG.
 Alpha  occ. eigenvalues --   -0.90366  -0.72290  -0.60794  -0.49422  -0.14997
 Alpha  occ. eigenvalues --   -0.13310
 Alpha virt. eigenvalues --   -0.22147   0.06427   0.28580   0.46284   0.58572
 Alpha virt. eigenvalues --    1.00861

 Mulliken charges:
               1
     1  H    0.032157
     2  H   -0.012373
     3  H    0.022518
     4  H   -0.094371
     5  H   -0.028967
     6  H    0.081036
     7  H    0.022518
     8  H   -0.094371
     9  H    0.081036
    10  H   -0.028967
    11  H   -0.012373
    12  H    0.032157
 Sum of Mulliken charges =   0.00000

 Dipole moment (field-independent basis, Debye):
    X=              0.0000    Y=              0.0000    Z=             -0.0000  Tot=              0.0000
 Quadrupole moment (field-independent basis, Debye-Ang):
   XX=            -12.2706   YY=            -24.3007   ZZ=            -14.4229
   XY=              0.6730   XZ=              0.0000   YZ=              0.0000

 Normal termination of Gaussian 09 at Fri Feb 17 15:00:29 2017.
