 Gaussian 09, Revision E.01,
 Gaussian 09:  ES64L-G09RevE.01 30-Nov-2015

 ----------------------------------------------------------------------
 #rhf/gen scf(symm,tight,novaracc,noincfock,fulldiag) stable(crhf) gues
 s=read geom=nocrowd test
 ----------------------------------------------------------------------

 ----------------------------------------------------------------------
 hf stability analysis of h12 triangular lattice, y= 1.1523084791052536
 ----------------------------------------------------------------------
 Symbolic Z-matrix:
 Charge =  0 Multiplicity = 1

                         Standard orientation:
 ---------------------------------------------------------------------
 Center     Atomic      Atomic             Coordinates (Angstroms)
 Number     Number       Type             X           Y           Z
 ---------------------------------------------------------------------
      1          1           0        0.918964    2.741734   -0.000000
      2          1           0        0.000000    1.884787    0.000000
      3          1           0        0.918964    1.485210   -0.000000
      4          1           0        0.000000    0.628262    0.000000
      5          1           0       -0.918964    1.027839    0.000000
      6          1           0       -0.918964   -0.228685    0.000000
      7          1           0       -0.918964   -1.485210    0.000000
      8          1           0       -0.000000   -0.628262    0.000000
      9          1           0        0.918964    0.228685    0.000000
     10          1           0        0.918964   -1.027839    0.000000
     11          1           0       -0.000000   -1.884787    0.000000
     12          1           0       -0.918964   -2.741734    0.000000
 ---------------------------------------------------------------------

 SCF Done:  E(RHF) =  -5.27627212531     A.U. after   11 cycles
 E2 =    -0.4789613149D+00 EUMP2 =    -0.57552334402012D+01

 The electronic state is 1-AG.
 Alpha  occ. eigenvalues --   -0.92376  -0.74164  -0.55801  -0.55788  -0.35076
 Alpha  occ. eigenvalues --    0.05724
 Alpha virt. eigenvalues --   -0.08017   0.09051   0.25092   0.31910   0.51711
 Alpha virt. eigenvalues --    0.54867

 Mulliken charges:
               1
     1  H   -0.139699
     2  H   -0.178356
     3  H    0.184439
     4  H   -0.113637
     5  H    0.242199
     6  H    0.005053
     7  H    0.184439
     8  H   -0.113637
     9  H    0.005053
    10  H    0.242199
    11  H   -0.178356
    12  H   -0.139699
 Sum of Mulliken charges =  -0.00000

 Dipole moment (field-independent basis, Debye):
    X=              0.0000    Y=              0.0000    Z=              0.0000  Tot=              0.0000
 Quadrupole moment (field-independent basis, Debye-Ang):
   XX=            -14.2469   YY=            -30.6920   ZZ=            -14.7937
   XY=             -6.2144   XZ=              0.0000   YZ=              0.0000

 Normal termination of Gaussian 09 at Fri Feb 17 15:05:04 2017.
