 Gaussian 09, Revision E.01,
 Gaussian 09:  ES64L-G09RevE.01 30-Nov-2015

 ----------------------------------------------------------------------
 #rhf/gen scf(symm,tight,novaracc,noincfock,fulldiag) stable(crhf) gues
 s=read geom=nocrowd test
 ----------------------------------------------------------------------

 hf stability analysis of h12 triangular lattice, y= 0.4676948326587840
 9
 ----------------------------------------------------------------------
 Symbolic Z-matrix:
 Charge =  0 Multiplicity = 1

                         Standard orientation:
 ---------------------------------------------------------------------
 Center     Atomic      Atomic             Coordinates (Angstroms)
 Number     Number       Type             X           Y           Z
 ---------------------------------------------------------------------
      1          1           0        0.874716    0.991443   -0.000000
      2          1           0        0.000000    1.980130   -0.000000
      3          1           0        0.874716   -0.328643   -0.000000
      4          1           0        0.000000    0.660043   -0.000000
      5          1           0       -0.874716    2.968816   -0.000000
      6          1           0       -0.874716    1.648730    0.000000
      7          1           0       -0.874716    0.328643    0.000000
      8          1           0       -0.000000   -0.660043   -0.000000
      9          1           0        0.874716   -1.648730   -0.000000
     10          1           0        0.874716   -2.968816   -0.000000
     11          1           0       -0.000000   -1.980130   -0.000000
     12          1           0       -0.874716   -0.991443   -0.000000
 ---------------------------------------------------------------------

 SCF Done:  E(RHF) =  -5.47268540871     A.U. after    9 cycles
 E2 =    -0.1317773448D+01 EUMP2 =    -0.67904588567612D+01

 The electronic state is 1-AG.
 Alpha  occ. eigenvalues --   -0.91152  -0.75279  -0.58141  -0.52335  -0.39697
 Alpha  occ. eigenvalues --   -0.01607
 Alpha virt. eigenvalues --   -0.05584   0.02891   0.32486   0.33326   0.51654
 Alpha virt. eigenvalues --    0.63155

 Mulliken charges:
               1
     1  H    0.192932
     2  H   -0.028907
     3  H    0.007155
     4  H   -0.132610
     5  H   -0.160331
     6  H    0.121760
     7  H    0.007155
     8  H   -0.132610
     9  H    0.121760
    10  H   -0.160331
    11  H   -0.028907
    12  H    0.192932
 Sum of Mulliken charges =   0.00000

 Dipole moment (field-independent basis, Debye):
    X=             -0.0000    Y=             -0.0000    Z=              0.0000  Tot=              0.0000
 Quadrupole moment (field-independent basis, Debye-Ang):
   XX=            -14.6944   YY=            -31.2692   ZZ=            -14.8935
   XY=              6.6141   XZ=              0.0000   YZ=             -0.0000

 Normal termination of Gaussian 09 at Fri Feb 17 14:55:33 2017.
