 Gaussian 09, Revision E.01,
 Gaussian 09:  ES64L-G09RevE.01 30-Nov-2015

 ----------------------------------------------------------------------
 #rhf/gen scf(symm,tight,novaracc,noincfock,fulldiag) stable(crhf) gues
 s=read geom=nocrowd test
 ----------------------------------------------------------------------

 ----------------------------------------------------------------------
 hf stability analysis of h12 triangular lattice, y= 1.7868378553155890
 ----------------------------------------------------------------------
 Symbolic Z-matrix:
 Charge =  0 Multiplicity = 1

                         Standard orientation:
 ---------------------------------------------------------------------
 Center     Atomic      Atomic             Coordinates (Angstroms)
 Number     Number       Type             X           Y           Z
 ---------------------------------------------------------------------
      1          1           0        0.635913    4.424551   -0.000000
      2          1           0        0.000000    2.723726   -0.000000
      3          1           0        0.635913    2.608734   -0.000000
      4          1           0        0.000000    0.907909   -0.000000
      5          1           0       -0.635913    1.022900    0.000000
      6          1           0       -0.635913   -0.792917    0.000000
      7          1           0       -0.635913   -2.608734   -0.000000
      8          1           0       -0.000000   -0.907909    0.000000
      9          1           0        0.635913    0.792917    0.000000
     10          1           0        0.635913   -1.022900    0.000000
     11          1           0       -0.000000   -2.723726    0.000000
     12          1           0       -0.635913   -4.424551    0.000000
 ---------------------------------------------------------------------

 SCF Done:  E(RHF) =  -5.55199896551     A.U. after    6 cycles
 E2 =    -0.7600899398D+00 EUMP2 =    -0.63120889052686D+01

 The electronic state is 1-AG.
 Alpha  occ. eigenvalues --   -0.88867  -0.80084  -0.66822  -0.65015  -0.32727
 Alpha  occ. eigenvalues --   -0.18872
 Alpha virt. eigenvalues --   -0.12987   0.03721   0.48940   0.50768   0.90960
 Alpha virt. eigenvalues --    1.11037

 Mulliken charges:
               1
     1  H   -0.013454
     2  H   -0.006849
     3  H    0.006496
     4  H   -0.298255
     5  H    0.171472
     6  H    0.140589
     7  H    0.006496
     8  H   -0.298255
     9  H    0.140589
    10  H    0.171472
    11  H   -0.006849
    12  H   -0.013454
 Sum of Mulliken charges =  -0.00000

 Dipole moment (field-independent basis, Debye):
    X=              0.0000    Y=              0.0000    Z=              0.0000  Tot=              0.0000
 Quadrupole moment (field-independent basis, Debye-Ang):
   XX=            -15.9877   YY=            -21.1560   ZZ=            -15.4180
   XY=             -1.3332   XZ=              0.0000   YZ=              0.0000

 Normal termination of Gaussian 09 at Fri Feb 17 15:07:45 2017.
