 Gaussian 09, Revision E.01,
 Gaussian 09:  ES64L-G09RevE.01 30-Nov-2015

 ----------------------------------------------------------------------
 #rhf/gen scf(symm,tight,novaracc,noincfock,fulldiag) stable(crhf) gues
 s=read geom=nocrowd test
 ----------------------------------------------------------------------

 hf stability analysis of h12 triangular lattice, y= 0.8519558688473642
 9
 ----------------------------------------------------------------------
 Symbolic Z-matrix:
 Charge =  0 Multiplicity = 1

                         Standard orientation:
 ---------------------------------------------------------------------
 Center     Atomic      Atomic             Coordinates (Angstroms)
 Number     Number       Type             X           Y           Z
 ---------------------------------------------------------------------
      1          1           0        1.060710    1.877801    0.000000
      2          1           0        0.000000    1.632917   -0.000000
      3          1           0        1.060710    0.789190    0.000000
      4          1           0        0.000000    0.544306   -0.000000
      5          1           0       -1.060710    1.388032   -0.000000
      6          1           0       -1.060710    0.299421   -0.000000
      7          1           0       -1.060710   -0.789190    0.000000
      8          1           0       -0.000000   -0.544306   -0.000000
      9          1           0        1.060710   -0.299421   -0.000000
     10          1           0        1.060710   -1.388032   -0.000000
     11          1           0       -0.000000   -1.632917   -0.000000
     12          1           0       -1.060710   -1.877801   -0.000000
 ---------------------------------------------------------------------

 SCF Done:  E(RHF) =  -5.04981782224     A.U. after   10 cycles
 E2 =    -0.1683766233D+00 EUMP2 =    -0.52181944455794D+01

 The electronic state is 1-AG.
 Alpha  occ. eigenvalues --   -0.90596  -0.73209  -0.60216  -0.50064  -0.18858
 Alpha  occ. eigenvalues --   -0.08030
 Alpha virt. eigenvalues --   -0.21409   0.07550   0.28726   0.40559   0.59881
 Alpha virt. eigenvalues --    0.90474

 Mulliken charges:
               1
     1  H   -0.204411
     2  H   -0.006582
     3  H    0.222457
     4  H   -0.087641
     5  H    0.255720
     6  H   -0.179543
     7  H    0.222457
     8  H   -0.087641
     9  H   -0.179543
    10  H    0.255720
    11  H   -0.006582
    12  H   -0.204411
 Sum of Mulliken charges =  -0.00000

 Dipole moment (field-independent basis, Debye):
    X=             -0.0000    Y=              0.0000    Z=             -0.0000  Tot=              0.0000
 Quadrupole moment (field-independent basis, Debye-Ang):
   XX=            -13.0689   YY=            -24.8109   ZZ=            -14.5016
   XY=             -5.4896   XZ=             -0.0000   YZ=             -0.0000

 Normal termination of Gaussian 09 at Fri Feb 17 15:02:00 2017.
