 Gaussian 09, Revision E.01,
 Gaussian 09:  ES64L-G09RevE.01 30-Nov-2015

 ----------------------------------------------------------------------
 #rhf/gen scf(symm,tight,novaracc,noincfock,fulldiag) stable(crhf) gues
 s=read geom=nocrowd test
 ----------------------------------------------------------------------

 hf stability analysis of h12 triangular lattice, y= 0.3310791093259662
 4
 ----------------------------------------------------------------------
 Symbolic Z-matrix:
 Charge =  0 Multiplicity = 1

                         Standard orientation:
 ---------------------------------------------------------------------
 Center     Atomic      Atomic             Coordinates (Angstroms)
 Number     Number       Type             X           Y           Z
 ---------------------------------------------------------------------
      1          1           0        0.650538    1.011006    0.000000
      2          1           0        0.000000    2.662491    0.000000
      3          1           0        0.650538   -0.763989    0.000000
      4          1           0        0.000000    0.887497    0.000000
      5          1           0       -0.650538    4.313977    0.000000
      6          1           0       -0.650538    2.538983    0.000000
      7          1           0       -0.650538    0.763989    0.000000
      8          1           0       -0.000000   -0.887497    0.000000
      9          1           0        0.650538   -2.538983    0.000000
     10          1           0        0.650538   -4.313977    0.000000
     11          1           0       -0.000000   -2.662491    0.000000
     12          1           0       -0.650538   -1.011006    0.000000
 ---------------------------------------------------------------------

 SCF Done:  E(RHF) =  -5.59901179869     A.U. after    6 cycles
 E2 =    -0.7384891362D+00 EUMP2 =    -0.63375009348645D+01

 The electronic state is 1-AG.
 Alpha  occ. eigenvalues --   -0.88739  -0.79312  -0.66303  -0.63948  -0.33835
 Alpha  occ. eigenvalues --   -0.18486
 Alpha virt. eigenvalues --   -0.12477   0.03453   0.47815   0.49962   0.86918
 Alpha virt. eigenvalues --    1.07694

 Mulliken charges:
               1
     1  H    0.165908
     2  H   -0.006844
     3  H    0.129440
     4  H   -0.279955
     5  H   -0.017404
     6  H    0.008855
     7  H    0.129440
     8  H   -0.279955
     9  H    0.008855
    10  H   -0.017404
    11  H   -0.006844
    12  H    0.165908
 Sum of Mulliken charges =  -0.00000

 Dipole moment (field-independent basis, Debye):
    X=              0.0000    Y=              0.0000    Z=              0.0000  Tot=              0.0000
 Quadrupole moment (field-independent basis, Debye-Ang):
   XX=            -15.8997   YY=            -21.7711   ZZ=            -15.3959
   XY=              1.5283   XZ=              0.0000   YZ=             -0.0000

 Normal termination of Gaussian 09 at Fri Feb 17 14:53:35 2017.
