 Gaussian 09, Revision E.01,
 Gaussian 09:  ES64L-G09RevE.01 30-Nov-2015

 ----------------------------------------------------------------------
 #rhf/gen scf(symm,tight,novaracc,noincfock,fulldiag) stable(crhf) gues
 s=read geom=nocrowd test
 ----------------------------------------------------------------------

 ----------------------------------------------------------------------
 hf stability analysis of h12 triangular lattice, y= 1.2426558648313226
 ----------------------------------------------------------------------
 Symbolic Z-matrix:
 Charge =  0 Multiplicity = 1

                         Standard orientation:
 ---------------------------------------------------------------------
 Center     Atomic      Atomic             Coordinates (Angstroms)
 Number     Number       Type             X           Y           Z
 ---------------------------------------------------------------------
      1          1           0        0.870375    2.991258   -0.000000
      2          1           0        0.000000    1.990007   -0.000000
      3          1           0        0.870375    1.664587   -0.000000
      4          1           0        0.000000    0.663336   -0.000000
      5          1           0       -0.870375    0.988755   -0.000000
      6          1           0       -0.870375   -0.337916    0.000000
      7          1           0       -0.870375   -1.664587    0.000000
      8          1           0       -0.000000   -0.663336    0.000000
      9          1           0        0.870375    0.337916    0.000000
     10          1           0        0.870375   -0.988755    0.000000
     11          1           0       -0.000000   -1.990007    0.000000
     12          1           0       -0.870375   -2.991258    0.000000
 ---------------------------------------------------------------------

 SCF Done:  E(RHF) =  -5.48955916680     A.U. after    9 cycles
 E2 =    -0.8463837423D+00 EUMP2 =    -0.63359429091308D+01

 The electronic state is 1-AG.
 Alpha  occ. eigenvalues --   -0.91050  -0.75315  -0.58320  -0.52050  -0.40102
 Alpha  occ. eigenvalues --   -0.02234
 Alpha virt. eigenvalues --   -0.05342   0.02437   0.33198   0.33543   0.51662
 Alpha virt. eigenvalues --    0.63978

 Mulliken charges:
               1
     1  H   -0.156761
     2  H   -0.025418
     3  H    0.116985
     4  H   -0.134389
     5  H    0.190575
     6  H    0.009008
     7  H    0.116985
     8  H   -0.134389
     9  H    0.009008
    10  H    0.190575
    11  H   -0.025418
    12  H   -0.156761
 Sum of Mulliken charges =   0.00000

 Dipole moment (field-independent basis, Debye):
    X=              0.0000    Y=              0.0000    Z=              0.0000  Tot=              0.0000
 Quadrupole moment (field-independent basis, Debye-Ang):
   XX=            -14.7126   YY=            -31.1517   ZZ=            -14.9057
   XY=             -6.5052   XZ=              0.0000   YZ=              0.0000

 Normal termination of Gaussian 09 at Fri Feb 17 15:05:43 2017.
