 Gaussian 09, Revision E.01,
 Gaussian 09:  ES64L-G09RevE.01 30-Nov-2015

 ----------------------------------------------------------------------
 #rhf/gen scf(symm,tight,novaracc,noincfock,fulldiag) stable(crhf) gues
 s=read geom=nocrowd test
 ----------------------------------------------------------------------

 ----------------------------------------------------------------------
 hf stability analysis of h12 triangular lattice, y= 1.2106565115415191
 ----------------------------------------------------------------------
 Symbolic Z-matrix:
 Charge =  0 Multiplicity = 1

                         Standard orientation:
 ---------------------------------------------------------------------
 Center     Atomic      Atomic             Coordinates (Angstroms)
 Number     Number       Type             X           Y           Z
 ---------------------------------------------------------------------
      1          1           0        0.887414    2.903431   -0.000000
      2          1           0        0.000000    1.951795   -0.000000
      3          1           0        0.887414    1.602234   -0.000000
      4          1           0        0.000000    0.650598   -0.000000
      5          1           0       -0.887414    1.000160   -0.000000
      6          1           0       -0.887414   -0.301037   -0.000000
      7          1           0       -0.887414   -1.602234    0.000000
      8          1           0       -0.000000   -0.650598   -0.000000
      9          1           0        0.887414    0.301037   -0.000000
     10          1           0        0.887414   -1.000160   -0.000000
     11          1           0       -0.000000   -1.951795   -0.000000
     12          1           0       -0.887414   -2.903431    0.000000
 ---------------------------------------------------------------------

 SCF Done:  E(RHF) =  -5.42015442473     A.U. after    9 cycles
 E2 =    -0.5148566986D+00 EUMP2 =    -0.59350111233817D+01

 The electronic state is 1-AG.
 Alpha  occ. eigenvalues --   -0.91470  -0.75153  -0.57595  -0.53223  -0.38478
 Alpha  occ. eigenvalues --    0.00319
 Alpha virt. eigenvalues --   -0.06307   0.04294   0.30372   0.32726   0.51689
 Alpha virt. eigenvalues --    0.60745

 Mulliken charges:
               1
     1  H   -0.169546
     2  H   -0.043450
     3  H    0.137362
     4  H   -0.127383
     5  H    0.200725
     6  H    0.002291
     7  H    0.137362
     8  H   -0.127383
     9  H    0.002291
    10  H    0.200725
    11  H   -0.043450
    12  H   -0.169546
 Sum of Mulliken charges =  -0.00000

 Dipole moment (field-independent basis, Debye):
    X=             -0.0000    Y=             -0.0000    Z=             -0.0000  Tot=              0.0000
 Quadrupole moment (field-independent basis, Debye-Ang):
   XX=            -14.6359   YY=            -31.5589   ZZ=            -14.8580
   XY=             -6.8915   XZ=              0.0000   YZ=              0.0000

 Normal termination of Gaussian 09 at Fri Feb 17 15:05:31 2017.
