 Gaussian 09, Revision E.01,
 Gaussian 09:  ES64L-G09RevE.01 30-Nov-2015

 ----------------------------------------------------------------------
 #rhf/gen scf(symm,tight,novaracc,noincfock,fulldiag) stable(crhf) gues
 s=read geom=nocrowd test
 ----------------------------------------------------------------------

 ----------------------------------------------------------------------
 hf stability analysis of h12 triangular lattice, y= 1.3429973740177321
 ----------------------------------------------------------------------
 Symbolic Z-matrix:
 Charge =  0 Multiplicity = 1

                         Standard orientation:
 ---------------------------------------------------------------------
 Center     Atomic      Atomic             Coordinates (Angstroms)
 Number     Number       Type             X           Y           Z
 ---------------------------------------------------------------------
      1          1           0        0.818864    3.263193   -0.000000
      2          1           0        0.000000    2.115188   -0.000000
      3          1           0        0.818864    1.853067   -0.000000
      4          1           0        0.000000    0.705063   -0.000000
      5          1           0       -0.818864    0.967183   -0.000000
      6          1           0       -0.818864   -0.442942   -0.000000
      7          1           0       -0.818864   -1.853067   -0.000000
      8          1           0       -0.000000   -0.705063   -0.000000
      9          1           0        0.818864    0.442942    0.000000
     10          1           0        0.818864   -0.967183    0.000000
     11          1           0       -0.000000   -2.115188   -0.000000
     12          1           0       -0.818864   -3.263193   -0.000000
 ---------------------------------------------------------------------

 SCF Done:  E(RHF) =  -5.64598258531     A.U. after    8 cycles
 E2 =    -0.6169808619D+00 EUMP2 =    -0.62629634472269D+01

 The electronic state is 1-AG.
 Alpha  occ. eigenvalues --   -0.90001  -0.75660  -0.60310  -0.50100  -0.43619
 Alpha  occ. eigenvalues --   -0.08516
 Alpha virt. eigenvalues --   -0.03436  -0.01529   0.36404   0.40704   0.53373
 Alpha virt. eigenvalues --    0.73732

 Mulliken charges:
               1
     1  H   -0.112446
     2  H   -0.007644
     3  H    0.073858
     4  H   -0.156085
     5  H    0.169197
     6  H    0.033120
     7  H    0.073858
     8  H   -0.156085
     9  H    0.033120
    10  H    0.169197
    11  H   -0.007644
    12  H   -0.112446
 Sum of Mulliken charges =   0.00000

 Dipole moment (field-independent basis, Debye):
    X=             -0.0000    Y=             -0.0000    Z=              0.0000  Tot=              0.0000
 Quadrupole moment (field-independent basis, Debye-Ang):
   XX=            -14.9340   YY=            -29.3764   ZZ=            -15.0449
   XY=             -5.0855   XZ=              0.0000   YZ=              0.0000

 Normal termination of Gaussian 09 at Fri Feb 17 15:06:16 2017.
