 Gaussian 09, Revision E.01,
 Gaussian 09:  ES64L-G09RevE.01 30-Nov-2015

 ----------------------------------------------------------------------
 #rhf/gen scf(symm,tight,novaracc,noincfock,fulldiag) stable(crhf) gues
 s=read geom=nocrowd test
 ----------------------------------------------------------------------

 hf stability analysis of h12 triangular lattice, y= 0.7565274741654608
 4
 ----------------------------------------------------------------------
 Symbolic Z-matrix:
 Charge =  0 Multiplicity = 1

                         Standard orientation:
 ---------------------------------------------------------------------
 Center     Atomic      Atomic             Coordinates (Angstroms)
 Number     Number       Type             X           Y           Z
 ---------------------------------------------------------------------
      1          1           0        1.074549    1.602508    0.000000
      2          1           0        0.000000    1.611886   -0.000000
      3          1           0        1.074549    0.527918    0.000000
      4          1           0        0.000000    0.537295   -0.000000
      5          1           0       -1.074549    1.621263   -0.000000
      6          1           0       -1.074549    0.546673   -0.000000
      7          1           0       -1.074549   -0.527918    0.000000
      8          1           0       -0.000000   -0.537295   -0.000000
      9          1           0        1.074549   -0.546673   -0.000000
     10          1           0        1.074549   -1.621263   -0.000000
     11          1           0       -0.000000   -1.611886   -0.000000
     12          1           0       -1.074549   -1.602508    0.000000
 ---------------------------------------------------------------------

 SCF Done:  E(RHF) =  -5.02322207896     A.U. after   11 cycles
 E2 =    -0.1439799095D+00 EUMP2 =    -0.51672019884127D+01

 The electronic state is 1-AG.
 Alpha  occ. eigenvalues --   -0.90365  -0.72277  -0.60804  -0.49416  -0.14771
 Alpha  occ. eigenvalues --   -0.13555
 Alpha virt. eigenvalues --   -0.22153   0.06411   0.28582   0.46374   0.58535
 Alpha virt. eigenvalues --    1.00994

 Mulliken charges:
               1
     1  H    0.011536
     2  H   -0.012585
     3  H    0.042359
     4  H   -0.094352
     5  H   -0.008864
     6  H    0.061906
     7  H    0.042359
     8  H   -0.094352
     9  H    0.061906
    10  H   -0.008864
    11  H   -0.012585
    12  H    0.011536
 Sum of Mulliken charges =  -0.00000

 Dipole moment (field-independent basis, Debye):
    X=             -0.0000    Y=              0.0000    Z=              0.0000  Tot=              0.0000
 Quadrupole moment (field-independent basis, Debye-Ang):
   XX=            -12.2609   YY=            -24.2932   ZZ=            -14.4219
   XY=              0.2244   XZ=              0.0000   YZ=              0.0000

 Normal termination of Gaussian 09 at Fri Feb 17 15:00:36 2017.
