 Gaussian 09, Revision E.01,
 Gaussian 09:  ES64L-G09RevE.01 30-Nov-2015

 ----------------------------------------------------------------------
 #rhf/gen scf(symm,tight,novaracc,noincfock,fulldiag) stable(crhf) gues
 s=read geom=nocrowd test
 ----------------------------------------------------------------------

 hf stability analysis of h12 triangular lattice, y= 0.8753112166669652
 1
 ----------------------------------------------------------------------
 Symbolic Z-matrix:
 Charge =  0 Multiplicity = 1

                         Standard orientation:
 ---------------------------------------------------------------------
 Center     Atomic      Atomic             Coordinates (Angstroms)
 Number     Number       Type             X           Y           Z
 ---------------------------------------------------------------------
      1          1           0        1.053551    1.946113   -0.000000
      2          1           0       -0.000000    1.644013   -0.000000
      3          1           0        1.053551    0.850105    0.000000
      4          1           0       -0.000000    0.548004   -0.000000
      5          1           0       -1.053551    1.341912   -0.000000
      6          1           0       -1.053551    0.245903   -0.000000
      7          1           0       -1.053551   -0.850105   -0.000000
      8          1           0        0.000000   -0.548004   -0.000000
      9          1           0        1.053551   -0.245903   -0.000000
     10          1           0        1.053551   -1.341912   -0.000000
     11          1           0        0.000000   -1.644013   -0.000000
     12          1           0       -1.053551   -1.946113   -0.000000
 ---------------------------------------------------------------------

 SCF Done:  E(RHF) =  -5.06470899344     A.U. after   11 cycles
 E2 =    -0.1576851284D+00 EUMP2 =    -0.52223941218864D+01

 The electronic state is 1-AG.
 Alpha  occ. eigenvalues --   -0.90809  -0.73503  -0.60076  -0.50451  -0.19777
 Alpha  occ. eigenvalues --   -0.06522
 Alpha virt. eigenvalues --   -0.20857   0.08014   0.29195   0.38361   0.59858
 Alpha virt. eigenvalues --    0.85550

 Mulliken charges:
               1
     1  H   -0.217986
     2  H   -0.017562
     3  H    0.218448
     4  H   -0.079044
     5  H    0.300188
     6  H   -0.204044
     7  H    0.218448
     8  H   -0.079044
     9  H   -0.204044
    10  H    0.300188
    11  H   -0.017562
    12  H   -0.217986
 Sum of Mulliken charges =  -0.00000

 Dipole moment (field-independent basis, Debye):
    X=              0.0000    Y=              0.0000    Z=             -0.0000  Tot=              0.0000
 Quadrupole moment (field-independent basis, Debye-Ang):
   XX=            -13.3839   YY=            -25.0566   ZZ=            -14.5376
   XY=             -6.4213   XZ=              0.0000   YZ=             -0.0000

 Normal termination of Gaussian 09 at Fri Feb 17 15:02:18 2017.
