 Gaussian 09, Revision E.01,
 Gaussian 09:  ES64L-G09RevE.01 30-Nov-2015

 ----------------------------------------------------------------------
 #rhf/gen scf(symm,tight,novaracc,noincfock,fulldiag) stable(crhf) gues
 s=read geom=nocrowd test
 ----------------------------------------------------------------------

 hf stability analysis of h12 triangular lattice, y= 0.7902999627936464
 5
 ----------------------------------------------------------------------
 Symbolic Z-matrix:
 Charge =  0 Multiplicity = 1

                         Standard orientation:
 ---------------------------------------------------------------------
 Center     Atomic      Atomic             Coordinates (Angstroms)
 Number     Number       Type             X           Y           Z
 ---------------------------------------------------------------------
      1          1           0        1.072912    1.698785   -0.000000
      2          1           0        0.000000    1.614345   -0.000000
      3          1           0        1.072912    0.622555   -0.000000
      4          1           0        0.000000    0.538115   -0.000000
      5          1           0       -1.072912    1.529905    0.000000
      6          1           0       -1.072912    0.453675    0.000000
      7          1           0       -1.072912   -0.622555   -0.000000
      8          1           0       -0.000000   -0.538115   -0.000000
      9          1           0        1.072912   -0.453675    0.000000
     10          1           0        1.072912   -1.529905   -0.000000
     11          1           0       -0.000000   -1.614345   -0.000000
     12          1           0       -1.072912   -1.698785   -0.000000
 ---------------------------------------------------------------------

 SCF Done:  E(RHF) =  -5.02616669065     A.U. after   11 cycles
 E2 =    -0.1486772887D+00 EUMP2 =    -0.51748439793869D+01

 The electronic state is 1-AG.
 Alpha  occ. eigenvalues --   -0.90379  -0.72407  -0.60708  -0.49478  -0.16020
 Alpha  occ. eigenvalues --   -0.12123
 Alpha virt. eigenvalues --   -0.22094   0.06563   0.28558   0.45506   0.58867
 Alpha virt. eigenvalues --    0.99677

 Mulliken charges:
               1
     1  H   -0.086685
     2  H   -0.010531
     3  H    0.134633
     4  H   -0.094440
     5  H    0.094543
     6  H   -0.037519
     7  H    0.134633
     8  H   -0.094440
     9  H   -0.037519
    10  H    0.094543
    11  H   -0.010531
    12  H   -0.086685
 Sum of Mulliken charges =  -0.00000

 Dipole moment (field-independent basis, Debye):
    X=              0.0000    Y=             -0.0000    Z=              0.0000  Tot=              0.0000
 Quadrupole moment (field-independent basis, Debye-Ang):
   XX=            -12.3593   YY=            -24.3661   ZZ=            -14.4318
   XY=             -2.0134   XZ=             -0.0000   YZ=             -0.0000

 Normal termination of Gaussian 09 at Fri Feb 17 15:01:08 2017.
