 Gaussian 09, Revision E.01,
 Gaussian 09:  ES64L-G09RevE.01 30-Nov-2015

 ----------------------------------------------------------------------
 #rhf/gen scf(symm,tight,novaracc,noincfock,fulldiag) stable(crhf) gues
 s=read geom=nocrowd test
 ----------------------------------------------------------------------

 hf stability analysis of h12 triangular lattice, y= 0.6837609579800398
 9
 ----------------------------------------------------------------------
 Symbolic Z-matrix:
 Charge =  0 Multiplicity = 1

                         Standard orientation:
 ---------------------------------------------------------------------
 Center     Atomic      Atomic             Coordinates (Angstroms)
 Number     Number       Type             X           Y           Z
 ---------------------------------------------------------------------
      1          1           0        1.062764    1.403863   -0.000000
      2          1           0        0.000000    1.629760    0.000000
      3          1           0        1.062764    0.317356   -0.000000
      4          1           0        0.000000    0.543253    0.000000
      5          1           0       -1.062764    1.855658    0.000000
      6          1           0       -1.062764    0.769151    0.000000
      7          1           0       -1.062764   -0.317356   -0.000000
      8          1           0       -0.000000   -0.543253    0.000000
      9          1           0        1.062764   -0.769151    0.000000
     10          1           0        1.062764   -1.855658    0.000000
     11          1           0       -0.000000   -1.629760    0.000000
     12          1           0       -1.062764   -1.403863   -0.000000
 ---------------------------------------------------------------------

 SCF Done:  E(RHF) =  -5.04565847509     A.U. after   11 cycles
 E2 =    -0.1675002658D+00 EUMP2 =    -0.52131587409196D+01

 The electronic state is 1-AG.
 Alpha  occ. eigenvalues --   -0.90547  -0.73099  -0.60275  -0.49954  -0.18547
 Alpha  occ. eigenvalues --   -0.08533
 Alpha virt. eigenvalues --   -0.21551   0.07400   0.28643   0.41266   0.59825
 Alpha virt. eigenvalues --    0.91950

 Mulliken charges:
               1
     1  H    0.239181
     2  H   -0.005279
     3  H   -0.167463
     4  H   -0.089653
     5  H   -0.196082
     6  H    0.219296
     7  H   -0.167463
     8  H   -0.089653
     9  H    0.219296
    10  H   -0.196082
    11  H   -0.005279
    12  H    0.239181
 Sum of Mulliken charges =   0.00000

 Dipole moment (field-independent basis, Debye):
    X=              0.0000    Y=             -0.0000    Z=             -0.0000  Tot=              0.0000
 Quadrupole moment (field-independent basis, Debye-Ang):
   XX=            -12.9619   YY=            -24.7423   ZZ=            -14.4905
   XY=              5.1338   XZ=              0.0000   YZ=             -0.0000

 Normal termination of Gaussian 09 at Fri Feb 17 14:59:20 2017.
