 Gaussian 09, Revision E.01,
 Gaussian 09:  ES64L-G09RevE.01 30-Nov-2015

 ----------------------------------------------------------------------
 #rhf/gen scf(symm,tight,novaracc,noincfock,fulldiag) stable(crhf) gues
 s=read geom=nocrowd test
 ----------------------------------------------------------------------

 ----------------------------------------------------------------------
 hf stability analysis of h12 triangular lattice, y= 1.0475506882612993
 ----------------------------------------------------------------------
 Symbolic Z-matrix:
 Charge =  0 Multiplicity = 1

                         Standard orientation:
 ---------------------------------------------------------------------
 Center     Atomic      Atomic             Coordinates (Angstroms)
 Number     Number       Type             X           Y           Z
 ---------------------------------------------------------------------
      1          1           0        0.975510    2.445984    0.000000
      2          1           0        0.000000    1.775534   -0.000000
      3          1           0        0.975510    1.262294    0.000000
      4          1           0        0.000000    0.591845   -0.000000
      5          1           0       -0.975510    1.105085   -0.000000
      6          1           0       -0.975510   -0.078604   -0.000000
      7          1           0       -0.975510   -1.262294    0.000000
      8          1           0       -0.000000   -0.591845    0.000000
      9          1           0        0.975510    0.078604   -0.000000
     10          1           0        0.975510   -1.105085    0.000000
     11          1           0       -0.000000   -1.775534    0.000000
     12          1           0       -0.975510   -2.445984    0.000000
 ---------------------------------------------------------------------

 SCF Done:  E(RHF) =  -5.20041788290     A.U. after   10 cycles
 E2 =    -0.1679117182D+00 EUMP2 =    -0.53683296011212D+01

 The electronic state is 1-AG.
 Alpha  occ. eigenvalues --   -0.92740  -0.73088  -0.58618  -0.53441  -0.28552
 Alpha  occ. eigenvalues --    0.03142
 Alpha virt. eigenvalues --   -0.13498   0.13669   0.24696   0.40249   0.50211
 Alpha virt. eigenvalues --    0.53537

 Mulliken charges:
               1
     1  H   -0.060644
     2  H   -0.202516
     3  H    0.030431
     4  H   -0.064448
     5  H    0.351391
     6  H   -0.054214
     7  H    0.030431
     8  H   -0.064448
     9  H   -0.054214
    10  H    0.351391
    11  H   -0.202516
    12  H   -0.060644
 Sum of Mulliken charges =   0.00000

 Dipole moment (field-independent basis, Debye):
    X=             -0.0000    Y=             -0.0000    Z=             -0.0000  Tot=              0.0000
 Quadrupole moment (field-independent basis, Debye-Ang):
   XX=            -14.4516   YY=            -25.6148   ZZ=            -14.8036
   XY=             -5.7237   XZ=              0.0000   YZ=              0.0000

 Normal termination of Gaussian 09 at Fri Feb 17 15:04:12 2017.
