 Gaussian 09, Revision E.01,
 Gaussian 09:  ES64L-G09RevE.01 30-Nov-2015

 ----------------------------------------------------------------------
 #rhf/gen scf(symm,tight,novaracc,noincfock,fulldiag) stable(crhf) gues
 s=read geom=nocrowd test
 ----------------------------------------------------------------------

 hf stability analysis of h12 triangular lattice, y= 0.8674200594573238
 1
 ----------------------------------------------------------------------
 Symbolic Z-matrix:
 Charge =  0 Multiplicity = 1

                         Standard orientation:
 ---------------------------------------------------------------------
 Center     Atomic      Atomic             Coordinates (Angstroms)
 Number     Number       Type             X           Y           Z
 ---------------------------------------------------------------------
      1          1           0        1.056104    1.923021    0.000000
      2          1           0       -0.000000    1.640039   -0.000000
      3          1           0        1.056104    0.829662    0.000000
      4          1           0       -0.000000    0.546680   -0.000000
      5          1           0       -1.056104    1.357056   -0.000000
      6          1           0       -1.056104    0.263697   -0.000000
      7          1           0       -1.056104   -0.829662    0.000000
      8          1           0       -0.000000   -0.546680   -0.000000
      9          1           0        1.056104   -0.263697   -0.000000
     10          1           0        1.056104   -1.357056   -0.000000
     11          1           0       -0.000000   -1.640039   -0.000000
     12          1           0       -1.056104   -1.923021    0.000000
 ---------------------------------------------------------------------

 SCF Done:  E(RHF) =  -5.05933916309     A.U. after   11 cycles
 E2 =    -0.1649548199D+00 EUMP2 =    -0.52242939830118D+01

 The electronic state is 1-AG.
 Alpha  occ. eigenvalues --   -0.90726  -0.73413  -0.60115  -0.50313  -0.19471
 Alpha  occ. eigenvalues --   -0.07023
 Alpha virt. eigenvalues --   -0.21062   0.07858   0.28996   0.39102   0.59901
 Alpha virt. eigenvalues --    0.87268

 Mulliken charges:
               1
     1  H   -0.215381
     2  H   -0.012605
     3  H    0.221995
     4  H   -0.082297
     5  H    0.286273
     6  H   -0.197985
     7  H    0.221995
     8  H   -0.082297
     9  H   -0.197985
    10  H    0.286273
    11  H   -0.012605
    12  H   -0.215381
 Sum of Mulliken charges =   0.00000

 Dipole moment (field-independent basis, Debye):
    X=              0.0000    Y=             -0.0000    Z=             -0.0000  Tot=              0.0000
 Quadrupole moment (field-independent basis, Debye-Ang):
   XX=            -13.2817   YY=            -24.9672   ZZ=            -14.5251
   XY=             -6.1352   XZ=             -0.0000   YZ=              0.0000

 Normal termination of Gaussian 09 at Fri Feb 17 15:02:12 2017.
