 Gaussian 09, Revision E.01,
 Gaussian 09:  ES64L-G09RevE.01 30-Nov-2015

 ----------------------------------------------------------------------
 #rhf/gen scf(symm,tight,novaracc,noincfock,fulldiag) stable(crhf) gues
 s=read geom=nocrowd test
 ----------------------------------------------------------------------

 hf stability analysis of h12 triangular lattice, y= 0.4738346202814235
 9
 ----------------------------------------------------------------------
 Symbolic Z-matrix:
 Charge =  0 Multiplicity = 1

                         Standard orientation:
 ---------------------------------------------------------------------
 Center     Atomic      Atomic             Coordinates (Angstroms)
 Number     Number       Type             X           Y           Z
 ---------------------------------------------------------------------
      1          1           0        0.883235    0.997148   -0.000000
      2          1           0        0.000000    1.961030   -0.000000
      3          1           0        0.883235   -0.310205   -0.000000
      4          1           0        0.000000    0.653677   -0.000000
      5          1           0       -0.883235    2.924912   -0.000000
      6          1           0       -0.883235    1.617559   -0.000000
      7          1           0       -0.883235    0.310205    0.000000
      8          1           0       -0.000000   -0.653677   -0.000000
      9          1           0        0.883235   -1.617559   -0.000000
     10          1           0        0.883235   -2.924912   -0.000000
     11          1           0       -0.000000   -1.961030   -0.000000
     12          1           0       -0.883235   -0.997148   -0.000000
 ---------------------------------------------------------------------

 SCF Done:  E(RHF) =  -5.43795080927     A.U. after    9 cycles
 E2 =    -0.4156396817D+00 EUMP2 =    -0.58535904909406D+01

 The electronic state is 1-AG.
 Alpha  occ. eigenvalues --   -0.91362  -0.75199  -0.57778  -0.52922  -0.38885
 Alpha  occ. eigenvalues --   -0.00330
 Alpha virt. eigenvalues --   -0.06067   0.03818   0.31072   0.32916   0.51670
 Alpha virt. eigenvalues --    0.61538

 Mulliken charges:
               1
     1  H    0.197981
     2  H   -0.037775
     3  H    0.003769
     4  H   -0.129108
     5  H   -0.166800
     6  H    0.131932
     7  H    0.003769
     8  H   -0.129108
     9  H    0.131932
    10  H   -0.166800
    11  H   -0.037775
    12  H    0.197981
 Sum of Mulliken charges =  -0.00000

 Dipole moment (field-independent basis, Debye):
    X=              0.0000    Y=              0.0000    Z=              0.0000  Tot=              0.0000
 Quadrupole moment (field-independent basis, Debye-Ang):
   XX=            -14.6564   YY=            -31.4745   ZZ=            -14.8696
   XY=              6.8093   XZ=             -0.0000   YZ=             -0.0000

 Normal termination of Gaussian 09 at Fri Feb 17 14:55:40 2017.
