 Gaussian 09, Revision E.01,
 Gaussian 09:  ES64L-G09RevE.01 30-Nov-2015

 ----------------------------------------------------------------------
 #rhf/gen scf(symm,tight,novaracc,noincfock,fulldiag) stable(crhf) gues
 s=read geom=nocrowd test
 ----------------------------------------------------------------------

 ----------------------------------------------------------------------
 hf stability analysis of h12 triangular lattice, y= 1.2509902265939778
 ----------------------------------------------------------------------
 Symbolic Z-matrix:
 Charge =  0 Multiplicity = 1

                         Standard orientation:
 ---------------------------------------------------------------------
 Center     Atomic      Atomic             Coordinates (Angstroms)
 Number     Number       Type             X           Y           Z
 ---------------------------------------------------------------------
      1          1           0        0.865978    3.014039    0.000000
      2          1           0        0.000000    2.000109    0.000000
      3          1           0        0.865978    1.680633    0.000000
      4          1           0        0.000000    0.666703    0.000000
      5          1           0       -0.865978    0.986179    0.000000
      6          1           0       -0.865978   -0.347227    0.000000
      7          1           0       -0.865978   -1.680633    0.000000
      8          1           0       -0.000000   -0.666703    0.000000
      9          1           0        0.865978    0.347227    0.000000
     10          1           0        0.865978   -0.986179    0.000000
     11          1           0       -0.000000   -2.000109    0.000000
     12          1           0       -0.865978   -3.014039    0.000000
 ---------------------------------------------------------------------

 SCF Done:  E(RHF) =  -5.50606669239     A.U. after    8 cycles
 E2 =    -0.7443314725D+00 EUMP2 =    -0.62503981649040D+01

 The electronic state is 1-AG.
 Alpha  occ. eigenvalues --   -0.90949  -0.75348  -0.58499  -0.51771  -0.40503
 Alpha  occ. eigenvalues --   -0.02853
 Alpha virt. eigenvalues --   -0.05101   0.01990   0.33769   0.33914   0.51683
 Alpha virt. eigenvalues --    0.64811

 Mulliken charges:
               1
     1  H   -0.153039
     2  H   -0.022417
     3  H    0.112393
     4  H   -0.136190
     5  H    0.188308
     6  H    0.010945
     7  H    0.112393
     8  H   -0.136190
     9  H    0.010945
    10  H    0.188308
    11  H   -0.022417
    12  H   -0.153039
 Sum of Mulliken charges =   0.00000

 Dipole moment (field-independent basis, Debye):
    X=              0.0000    Y=             -0.0000    Z=             -0.0000  Tot=              0.0000
 Quadrupole moment (field-independent basis, Debye-Ang):
   XX=            -14.7307   YY=            -31.0258   ZZ=            -14.9180
   XY=             -6.3906   XZ=              0.0000   YZ=              0.0000

 Normal termination of Gaussian 09 at Fri Feb 17 15:05:46 2017.
