 Gaussian 09, Revision E.01,
 Gaussian 09:  ES64L-G09RevE.01 30-Nov-2015

 ----------------------------------------------------------------------
 #rhf/gen scf(symm,tight,novaracc,noincfock,fulldiag) stable(crhf) gues
 s=read geom=nocrowd test
 ----------------------------------------------------------------------

 hf stability analysis of h12 triangular lattice, y= 0.8833142989544126
 0
 ----------------------------------------------------------------------
 Symbolic Z-matrix:
 Charge =  0 Multiplicity = 1

                         Standard orientation:
 ---------------------------------------------------------------------
 Center     Atomic      Atomic             Coordinates (Angstroms)
 Number     Number       Type             X           Y           Z
 ---------------------------------------------------------------------
      1          1           0        1.050831    1.969539    0.000000
      2          1           0        0.000000    1.648268    0.000000
      3          1           0        1.050831    0.870694    0.000000
      4          1           0        0.000000    0.549423    0.000000
      5          1           0       -1.050831    1.326997    0.000000
      6          1           0       -1.050831    0.228151    0.000000
      7          1           0       -1.050831   -0.870694    0.000000
      8          1           0       -0.000000   -0.549423    0.000000
      9          1           0        1.050831   -0.228151    0.000000
     10          1           0        1.050831   -1.326997    0.000000
     11          1           0       -0.000000   -1.648268    0.000000
     12          1           0       -1.050831   -1.969539    0.000000
 ---------------------------------------------------------------------

 SCF Done:  E(RHF) =  -5.07048237666     A.U. after   11 cycles
 E2 =    -0.1294185769D+00 EUMP2 =    -0.51999009535114D+01

 The electronic state is 1-AG.
 Alpha  occ. eigenvalues --   -0.90905  -0.73583  -0.60046  -0.50598  -0.20087
 Alpha  occ. eigenvalues --   -0.06023
 Alpha virt. eigenvalues --   -0.20629   0.08169   0.29440   0.37617   0.59776
 Alpha virt. eigenvalues --    0.83766

 Mulliken charges:
               1
     1  H   -0.218717
     2  H   -0.023854
     3  H    0.212834
     4  H   -0.075515
     5  H    0.313101
     6  H   -0.207849
     7  H    0.212834
     8  H   -0.075515
     9  H   -0.207849
    10  H    0.313101
    11  H   -0.023854
    12  H   -0.218717
 Sum of Mulliken charges =  -0.00000

 Dipole moment (field-independent basis, Debye):
    X=             -0.0000    Y=              0.0000    Z=              0.0000  Tot=              0.0000
 Quadrupole moment (field-independent basis, Debye-Ang):
   XX=            -13.4815   YY=            -25.1541   ZZ=            -14.5504
   XY=             -6.6800   XZ=             -0.0000   YZ=             -0.0000

 Normal termination of Gaussian 09 at Fri Feb 17 15:02:24 2017.
