 Gaussian 09, Revision E.01,
 Gaussian 09:  ES64L-G09RevE.01 30-Nov-2015

 ----------------------------------------------------------------------
 #rhf/gen scf(symm,tight,novaracc,noincfock,fulldiag) stable(crhf) gues
 s=read geom=nocrowd test
 ----------------------------------------------------------------------

 hf stability analysis of h12 triangular lattice, y= 0.2514560395575198
 3
 ----------------------------------------------------------------------
 Symbolic Z-matrix:
 Charge =  0 Multiplicity = 1

                         Standard orientation:
 ---------------------------------------------------------------------
 Center     Atomic      Atomic             Coordinates (Angstroms)
 Number     Number       Type             X           Y           Z
 ---------------------------------------------------------------------
      1          1           0        0.499923    1.209629    0.000000
      2          1           0        0.000000    3.464636    0.000000
      3          1           0        0.499923   -1.100128    0.000000
      4          1           0        0.000000    1.154879    0.000000
      5          1           0       -0.499923    5.719642    0.000000
      6          1           0       -0.499923    3.409885   -0.000000
      7          1           0       -0.499923    1.100128   -0.000000
      8          1           0       -0.000000   -1.154879    0.000000
      9          1           0        0.499923   -3.409885    0.000000
     10          1           0        0.499923   -5.719642    0.000000
     11          1           0       -0.000000   -3.464636    0.000000
     12          1           0       -0.499923   -1.209629    0.000000
 ---------------------------------------------------------------------

 SCF Done:  E(RHF) =  -4.68980025026     A.U. after    6 cycles
 E2 =    -0.1016370688D+01 EUMP2 =    -0.57061709381230D+01

 The electronic state is 1-AG.
 Alpha  occ. eigenvalues --   -0.92847  -0.90902  -0.71655  -0.71638  -0.21597
 Alpha  occ. eigenvalues --   -0.20552
 Alpha virt. eigenvalues --   -0.15944   0.05757   0.60923   0.61172   1.37627
 Alpha virt. eigenvalues --    1.49876

 Mulliken charges:
               1
     1  H    0.291700
     2  H   -0.003577
     3  H    0.291998
     4  H   -0.579856
     5  H    0.001217
     6  H   -0.001482
     7  H    0.291998
     8  H   -0.579856
     9  H   -0.001482
    10  H    0.001217
    11  H   -0.003577
    12  H    0.291700
 Sum of Mulliken charges =  -0.00000

 Dipole moment (field-independent basis, Debye):
    X=             -0.0000    Y=              0.0000    Z=              0.0000  Tot=              0.0000
 Quadrupole moment (field-independent basis, Debye-Ang):
   XX=            -16.6741   YY=            -16.9058   ZZ=            -15.5228
   XY=              0.2316   XZ=             -0.0000   YZ=              0.0000

 Normal termination of Gaussian 09 at Fri Feb 17 14:52:51 2017.
