 Gaussian 09, Revision E.01,
 Gaussian 09:  ES64L-G09RevE.01 30-Nov-2015

 ----------------------------------------------------------------------
 #rhf/gen scf(symm,tight,novaracc,noincfock,fulldiag) stable(crhf) gues
 s=read geom=nocrowd test
 ----------------------------------------------------------------------

 hf stability analysis of h12 triangular lattice, y= 0.6387729204659229
 3
 ----------------------------------------------------------------------
 Symbolic Z-matrix:
 Charge =  0 Multiplicity = 1

                         Standard orientation:
 ---------------------------------------------------------------------
 Center     Atomic      Atomic             Coordinates (Angstroms)
 Number     Number       Type             X           Y           Z
 ---------------------------------------------------------------------
      1          1           0        1.043297    1.290720    0.000000
      2          1           0        0.000000    1.660170   -0.000000
      3          1           0        1.043297    0.183939    0.000000
      4          1           0        0.000000    0.553390   -0.000000
      5          1           0       -1.043297    2.029621   -0.000000
      6          1           0       -1.043297    0.922841   -0.000000
      7          1           0       -1.043297   -0.183939    0.000000
      8          1           0       -0.000000   -0.553390   -0.000000
      9          1           0        1.043297   -0.922841   -0.000000
     10          1           0        1.043297   -2.029621   -0.000000
     11          1           0       -0.000000   -1.660170   -0.000000
     12          1           0       -1.043297   -1.290720    0.000000
 ---------------------------------------------------------------------

 SCF Done:  E(RHF) =  -5.08659700881     A.U. after   11 cycles
 E2 =    -0.2111328343D+00 EUMP2 =    -0.52977298431021D+01

 The electronic state is 1-AG.
 Alpha  occ. eigenvalues --   -0.91201  -0.73727  -0.60005  -0.50990  -0.20905
 Alpha  occ. eigenvalues --   -0.04779
 Alpha virt. eigenvalues --   -0.19963   0.08557   0.30272   0.35756   0.59398
 Alpha virt. eigenvalues --    0.79061

 Mulliken charges:
               1
     1  H    0.340432
     2  H   -0.044831
     3  H   -0.207377
     4  H   -0.066311
     5  H   -0.212946
     6  H    0.191032
     7  H   -0.207377
     8  H   -0.066311
     9  H    0.191032
    10  H   -0.212946
    11  H   -0.044831
    12  H    0.340432
 Sum of Mulliken charges =  -0.00000

 Dipole moment (field-independent basis, Debye):
    X=              0.0000    Y=             -0.0000    Z=              0.0000  Tot=              0.0000
 Quadrupole moment (field-independent basis, Debye-Ang):
   XX=            -13.7012   YY=            -25.4277   ZZ=            -14.5840
   XY=              7.1924   XZ=              0.0000   YZ=              0.0000

 Normal termination of Gaussian 09 at Fri Feb 17 14:58:34 2017.
