 Gaussian 09, Revision E.01,
 Gaussian 09:  ES64L-G09RevE.01 30-Nov-2015

 ----------------------------------------------------------------------
 #rhf/gen scf(symm,tight,novaracc,noincfock,fulldiag) stable(crhf) gues
 s=read geom=nocrowd test
 ----------------------------------------------------------------------

 ----------------------------------------------------------------------
 hf stability analysis of h12 triangular lattice, y= 1.6306791826473761
 ----------------------------------------------------------------------
 Symbolic Z-matrix:
 Charge =  0 Multiplicity = 1

                         Standard orientation:
 ---------------------------------------------------------------------
 Center     Atomic      Atomic             Coordinates (Angstroms)
 Number     Number       Type             X           Y           Z
 ---------------------------------------------------------------------
      1          1           0        0.691987    4.021437   -0.000000
      2          1           0        0.000000    2.503010   -0.000000
      3          1           0        0.691987    2.352764   -0.000000
      4          1           0        0.000000    0.834337   -0.000000
      5          1           0       -0.691987    0.984582   -0.000000
      6          1           0       -0.691987   -0.684091    0.000000
      7          1           0       -0.691987   -2.352764   -0.000000
      8          1           0       -0.000000   -0.834337   -0.000000
      9          1           0        0.691987    0.684091    0.000000
     10          1           0        0.691987   -0.984582   -0.000000
     11          1           0       -0.000000   -2.503010   -0.000000
     12          1           0       -0.691987   -4.021437   -0.000000
 ---------------------------------------------------------------------

 SCF Done:  E(RHF) =  -5.69240368289     A.U. after    7 cycles
 E2 =    -0.6836087195D+00 EUMP2 =    -0.63760124023891D+01

 The electronic state is 1-AG.
 Alpha  occ. eigenvalues --   -0.88629  -0.77648  -0.64836  -0.60474  -0.36917
 Alpha  occ. eigenvalues --   -0.17080
 Alpha virt. eigenvalues --   -0.10768   0.02522   0.44748   0.47973   0.76254
 Alpha virt. eigenvalues --    0.98711

 Mulliken charges:
               1
     1  H   -0.032150
     2  H   -0.006356
     3  H    0.017896
     4  H   -0.236571
     5  H    0.156005
     6  H    0.101176
     7  H    0.017896
     8  H   -0.236571
     9  H    0.101176
    10  H    0.156005
    11  H   -0.006356
    12  H   -0.032150
 Sum of Mulliken charges =  -0.00000

 Dipole moment (field-independent basis, Debye):
    X=             -0.0000    Y=             -0.0000    Z=              0.0000  Tot=              0.0000
 Quadrupole moment (field-independent basis, Debye-Ang):
   XX=            -15.6462   YY=            -23.6295   ZZ=            -15.3250
   XY=             -2.1798   XZ=             -0.0000   YZ=             -0.0000

 Normal termination of Gaussian 09 at Fri Feb 17 15:07:21 2017.
