 Gaussian 09, Revision E.01,
 Gaussian 09:  ES64L-G09RevE.01 30-Nov-2015

 ----------------------------------------------------------------------
 #rhf/gen scf(symm,tight,novaracc,noincfock,fulldiag) stable(crhf) gues
 s=read geom=nocrowd test
 ----------------------------------------------------------------------

 ----------------------------------------------------------------------
 hf stability analysis of h12 triangular lattice, y= 1.4307794800386300
 ----------------------------------------------------------------------
 Symbolic Z-matrix:
 Charge =  0 Multiplicity = 1

                         Standard orientation:
 ---------------------------------------------------------------------
 Center     Atomic      Atomic             Coordinates (Angstroms)
 Number     Number       Type             X           Y           Z
 ---------------------------------------------------------------------
      1          1           0        0.776743    3.497419    0.000000
      2          1           0        0.000000    2.229890    0.000000
      3          1           0        0.776743    2.010826    0.000000
      4          1           0        0.000000    0.743297    0.000000
      5          1           0       -0.776743    0.962361    0.000000
      6          1           0       -0.776743   -0.524232    0.000000
      7          1           0       -0.776743   -2.010826   -0.000000
      8          1           0       -0.000000   -0.743297   -0.000000
      9          1           0        0.776743    0.524232    0.000000
     10          1           0        0.776743   -0.962361    0.000000
     11          1           0       -0.000000   -2.229890   -0.000000
     12          1           0       -0.776743   -3.497419   -0.000000
 ---------------------------------------------------------------------

 SCF Done:  E(RHF) =  -5.71469723337     A.U. after    7 cycles
 E2 =    -0.6130169002D+00 EUMP2 =    -0.63277141335941D+01

 The electronic state is 1-AG.
 Alpha  occ. eigenvalues --   -0.89328  -0.76015  -0.61838  -0.52458  -0.42640
 Alpha  occ. eigenvalues --   -0.12267
 Alpha virt. eigenvalues --   -0.05950  -0.00302   0.38997   0.44308   0.58483
 Alpha virt. eigenvalues --    0.81781

 Mulliken charges:
               1
     1  H   -0.080079
     2  H   -0.005126
     3  H    0.049564
     4  H   -0.176713
     5  H    0.158487
     6  H    0.053867
     7  H    0.049564
     8  H   -0.176713
     9  H    0.053867
    10  H    0.158487
    11  H   -0.005126
    12  H   -0.080079
 Sum of Mulliken charges =  -0.00000

 Dipole moment (field-independent basis, Debye):
    X=             -0.0000    Y=             -0.0000    Z=              0.0000  Tot=              0.0000
 Quadrupole moment (field-independent basis, Debye-Ang):
   XX=            -15.1482   YY=            -27.5872   ZZ=            -15.1479
   XY=             -3.9800   XZ=             -0.0000   YZ=             -0.0000

 Normal termination of Gaussian 09 at Fri Feb 17 15:06:40 2017.
