 Gaussian 09, Revision E.01,
 Gaussian 09:  ES64L-G09RevE.01 30-Nov-2015

 ----------------------------------------------------------------------
 #rhf/gen scf(symm,tight,novaracc,noincfock,fulldiag) stable(crhf) gues
 s=read geom=nocrowd test
 ----------------------------------------------------------------------

 hf stability analysis of h12 triangular lattice, y= 0.7401925230820305
 4
 ----------------------------------------------------------------------
 Symbolic Z-matrix:
 Charge =  0 Multiplicity = 1

                         Standard orientation:
 ---------------------------------------------------------------------
 Center     Atomic      Atomic             Coordinates (Angstroms)
 Number     Number       Type             X           Y           Z
 ---------------------------------------------------------------------
      1          1           0        1.073833    1.556683    0.000000
      2          1           0        0.000000    1.612961    0.000000
      3          1           0        1.073833    0.481376    0.000000
      4          1           0        0.000000    0.537654    0.000000
      5          1           0       -1.073833    1.669238    0.000000
      6          1           0       -1.073833    0.593931    0.000000
      7          1           0       -1.073833   -0.481376    0.000000
      8          1           0       -0.000000   -0.537654    0.000000
      9          1           0        1.073833   -0.593931    0.000000
     10          1           0        1.073833   -1.669238    0.000000
     11          1           0       -0.000000   -1.612961    0.000000
     12          1           0       -1.073833   -1.556683    0.000000
 ---------------------------------------------------------------------

 SCF Done:  E(RHF) =  -5.02450242712     A.U. after   11 cycles
 E2 =    -0.1460730260D+00 EUMP2 =    -0.51705754531226D+01

 The electronic state is 1-AG.
 Alpha  occ. eigenvalues --   -0.90371  -0.72334  -0.60761  -0.49443  -0.15489
 Alpha  occ. eigenvalues --   -0.12757
 Alpha virt. eigenvalues --   -0.22128   0.06478   0.28571   0.45984   0.58690
 Alpha virt. eigenvalues --    1.00415

 Mulliken charges:
               1
     1  H    0.063331
     2  H   -0.011668
     3  H   -0.007526
     4  H   -0.094417
     5  H   -0.058394
     6  H    0.108674
     7  H   -0.007526
     8  H   -0.094417
     9  H    0.108674
    10  H   -0.058394
    11  H   -0.011668
    12  H    0.063331
 Sum of Mulliken charges =  -0.00000

 Dipole moment (field-independent basis, Debye):
    X=              0.0000    Y=             -0.0000    Z=             -0.0000  Tot=              0.0000
 Quadrupole moment (field-independent basis, Debye-Ang):
   XX=            -12.3036   YY=            -24.3256   ZZ=            -14.4262
   XY=              1.3448   XZ=             -0.0000   YZ=              0.0000

 Normal termination of Gaussian 09 at Fri Feb 17 15:00:18 2017.
