 Gaussian 09, Revision E.01,
 Gaussian 09:  ES64L-G09RevE.01 30-Nov-2015

 ----------------------------------------------------------------------
 #rhf/gen scf(symm,tight,novaracc,noincfock,fulldiag) stable(crhf) gues
 s=read geom=nocrowd test
 ----------------------------------------------------------------------

 hf stability analysis of h12 triangular lattice, y= 0.4102222107631511
 3
 ----------------------------------------------------------------------
 Symbolic Z-matrix:
 Charge =  0 Multiplicity = 1

                         Standard orientation:
 ---------------------------------------------------------------------
 Center     Atomic      Atomic             Coordinates (Angstroms)
 Number     Number       Type             X           Y           Z
 ---------------------------------------------------------------------
      1          1           0        0.787668    0.962571   -0.000000
      2          1           0        0.000000    2.198962   -0.000000
      3          1           0        0.787668   -0.503403   -0.000000
      4          1           0        0.000000    0.732987   -0.000000
      5          1           0       -0.787668    3.435352   -0.000000
      6          1           0       -0.787668    1.969378   -0.000000
      7          1           0       -0.787668    0.503403   -0.000000
      8          1           0       -0.000000   -0.732987   -0.000000
      9          1           0        0.787668   -1.969378    0.000000
     10          1           0        0.787668   -3.435352   -0.000000
     11          1           0       -0.000000   -2.198962   -0.000000
     12          1           0       -0.787668   -0.962571   -0.000000
 ---------------------------------------------------------------------

 SCF Done:  E(RHF) =  -5.70191777845     A.U. after    7 cycles
 E2 =    -0.6102379265D+00 EUMP2 =    -0.63121557049176D+01

 The electronic state is 1-AG.
 Alpha  occ. eigenvalues --   -0.89486  -0.75907  -0.61447  -0.51568  -0.43173
 Alpha  occ. eigenvalues --   -0.11397
 Alpha virt. eigenvalues --   -0.05210  -0.00733   0.38307   0.43609   0.56808
 Alpha virt. eigenvalues --    0.79680

 Mulliken charges:
               1
     1  H    0.160707
     2  H   -0.005364
     3  H    0.048388
     4  H   -0.170960
     5  H   -0.087975
     6  H    0.055205
     7  H    0.048388
     8  H   -0.170960
     9  H    0.055205
    10  H   -0.087975
    11  H   -0.005364
    12  H    0.160707
 Sum of Mulliken charges =  -0.00000

 Dipole moment (field-independent basis, Debye):
    X=              0.0000    Y=             -0.0000    Z=             -0.0000  Tot=              0.0000
 Quadrupole moment (field-independent basis, Debye-Ang):
   XX=            -15.0898   YY=            -28.0720   ZZ=            -15.1222
   XY=              4.2554   XZ=             -0.0000   YZ=              0.0000

 Normal termination of Gaussian 09 at Fri Feb 17 14:54:37 2017.
