 Gaussian 09, Revision E.01,
 Gaussian 09:  ES64L-G09RevE.01 30-Nov-2015

 ----------------------------------------------------------------------
 #rhf/gen scf(symm,tight,novaracc,noincfock,fulldiag) stable(crhf) gues
 s=read geom=nocrowd test
 ----------------------------------------------------------------------

 hf stability analysis of h12 triangular lattice, y= 0.8873592600485348
 3
 ----------------------------------------------------------------------
 Symbolic Z-matrix:
 Charge =  0 Multiplicity = 1

                         Standard orientation:
 ---------------------------------------------------------------------
 Center     Atomic      Atomic             Coordinates (Angstroms)
 Number     Number       Type             X           Y           Z
 ---------------------------------------------------------------------
      1          1           0        1.049408    1.981380    0.000000
      2          1           0        0.000000    1.650503    0.000000
      3          1           0        1.049408    0.881045    0.000000
      4          1           0        0.000000    0.550168    0.000000
      5          1           0       -1.049408    1.319625   -0.000000
      6          1           0       -1.049408    0.219290   -0.000000
      7          1           0       -1.049408   -0.881045    0.000000
      8          1           0       -0.000000   -0.550168    0.000000
      9          1           0        1.049408   -0.219290   -0.000000
     10          1           0        1.049408   -1.319625    0.000000
     11          1           0       -0.000000   -1.650503    0.000000
     12          1           0       -1.049408   -1.981380    0.000000
 ---------------------------------------------------------------------

 SCF Done:  E(RHF) =  -5.07351759775     A.U. after   11 cycles
 E2 =    -0.7226783277D-01 EUMP2 =    -0.51457854305231D+01

 The electronic state is 1-AG.
 Alpha  occ. eigenvalues --   -0.90958  -0.73618  -0.60034  -0.50673  -0.20245
 Alpha  occ. eigenvalues --   -0.05774
 Alpha virt. eigenvalues --   -0.20507   0.08246   0.29581   0.37244   0.59720
 Alpha virt. eigenvalues --    0.82850

 Mulliken charges:
               1
     1  H   -0.218404
     2  H   -0.027482
     3  H    0.209305
     4  H   -0.073684
     5  H    0.319155
     6  H   -0.208890
     7  H    0.209305
     8  H   -0.073684
     9  H   -0.208890
    10  H    0.319155
    11  H   -0.027482
    12  H   -0.218404
 Sum of Mulliken charges =   0.00000

 Dipole moment (field-independent basis, Debye):
    X=             -0.0000    Y=             -0.0000    Z=             -0.0000  Tot=              0.0000
 Quadrupole moment (field-independent basis, Debye-Ang):
   XX=            -13.5284   YY=            -25.2058   ZZ=            -14.5570
   XY=             -6.7985   XZ=              0.0000   YZ=              0.0000

 Normal termination of Gaussian 09 at Fri Feb 17 15:02:27 2017.
