 Gaussian 09, Revision E.01,
 Gaussian 09:  ES64L-G09RevE.01 30-Nov-2015

 ----------------------------------------------------------------------
 #rhf/gen scf(symm,tight,novaracc,noincfock,fulldiag) stable(crhf) gues
 s=read geom=nocrowd test
 ----------------------------------------------------------------------

 ----------------------------------------------------------------------
 hf stability analysis of h12 triangular lattice, y= 1.5360456330340897
 ----------------------------------------------------------------------
 Symbolic Z-matrix:
 Charge =  0 Multiplicity = 1

                         Standard orientation:
 ---------------------------------------------------------------------
 Center     Atomic      Atomic             Coordinates (Angstroms)
 Number     Number       Type             X           Y           Z
 ---------------------------------------------------------------------
      1          1           0        0.730193    3.774734   -0.000000
      2          1           0        0.000000    2.372046   -0.000000
      3          1           0        0.730193    2.193369   -0.000000
      4          1           0        0.000000    0.790682   -0.000000
      5          1           0       -0.730193    0.969359   -0.000000
      6          1           0       -0.730193   -0.612005    0.000000
      7          1           0       -0.730193   -2.193369   -0.000000
      8          1           0       -0.000000   -0.790682   -0.000000
      9          1           0        0.730193    0.612005   -0.000000
     10          1           0        0.730193   -0.969359   -0.000000
     11          1           0       -0.000000   -2.372046   -0.000000
     12          1           0       -0.730193   -3.774734   -0.000000
 ---------------------------------------------------------------------

 SCF Done:  E(RHF) =  -5.72946568772     A.U. after    7 cycles
 E2 =    -0.6432027582D+00 EUMP2 =    -0.63726684458799D+01

 The electronic state is 1-AG.
 Alpha  occ. eigenvalues --   -0.88813  -0.76690  -0.63488  -0.56858  -0.39660
 Alpha  occ. eigenvalues --   -0.15286
 Alpha virt. eigenvalues --   -0.08822   0.01401   0.42072   0.46419   0.67454
 Alpha virt. eigenvalues --    0.90905

 Mulliken charges:
               1
     1  H   -0.050759
     2  H   -0.005538
     3  H    0.029749
     4  H   -0.205671
     5  H    0.153694
     6  H    0.078526
     7  H    0.029749
     8  H   -0.205671
     9  H    0.078526
    10  H    0.153694
    11  H   -0.005538
    12  H   -0.050759
 Sum of Mulliken charges =   0.00000

 Dipole moment (field-independent basis, Debye):
    X=             -0.0000    Y=             -0.0000    Z=              0.0000  Tot=              0.0000
 Quadrupole moment (field-independent basis, Debye-Ang):
   XX=            -15.4146   YY=            -25.4266   ZZ=            -15.2502
   XY=             -2.9142   XZ=             -0.0000   YZ=             -0.0000

 Normal termination of Gaussian 09 at Fri Feb 17 15:07:03 2017.
