 Gaussian 09, Revision E.01,
 Gaussian 09:  ES64L-G09RevE.01 30-Nov-2015

 ----------------------------------------------------------------------
 #rhf/gen scf(symm,tight,novaracc,noincfock,fulldiag) stable(crhf) gues
 s=read geom=nocrowd test
 ----------------------------------------------------------------------

 ----------------------------------------------------------------------
 hf stability analysis of h12 triangular lattice, y= 2.1303392641794385
 ----------------------------------------------------------------------
 Symbolic Z-matrix:
 Charge =  0 Multiplicity = 1

                         Standard orientation:
 ---------------------------------------------------------------------
 Center     Atomic      Atomic             Coordinates (Angstroms)
 Number     Number       Type             X           Y           Z
 ---------------------------------------------------------------------
      1          1           0        0.537693    5.300369   -0.000000
      2          1           0        0.000000    3.221263    0.000000
      3          1           0        0.537693    3.152860   -0.000000
      4          1           0        0.000000    1.073754    0.000000
      5          1           0       -0.537693    1.142158    0.000000
      6          1           0       -0.537693   -1.005351    0.000000
      7          1           0       -0.537693   -3.152860   -0.000000
      8          1           0       -0.000000   -1.073754   -0.000000
      9          1           0        0.537693    1.005351    0.000000
     10          1           0        0.537693   -1.142158    0.000000
     11          1           0       -0.000000   -3.221263   -0.000000
     12          1           0       -0.537693   -5.300369   -0.000000
 ---------------------------------------------------------------------

 SCF Done:  E(RHF) =  -5.01701226529     A.U. after    6 cycles
 E2 =    -0.9333811019D+00 EUMP2 =    -0.59503933671503D+01

 The electronic state is 1-AG.
 Alpha  occ. eigenvalues --   -0.91187  -0.87470  -0.70307  -0.70182  -0.24890
 Alpha  occ. eigenvalues --   -0.20355
 Alpha virt. eigenvalues --   -0.15388   0.05141   0.57263   0.57742   1.22685
 Alpha virt. eigenvalues --    1.37225

 Mulliken charges:
               1
     1  H    0.000033
     2  H   -0.004836
     3  H   -0.001055
     4  H   -0.476610
     5  H    0.243654
     6  H    0.238813
     7  H   -0.001055
     8  H   -0.476610
     9  H    0.238813
    10  H    0.243654
    11  H   -0.004836
    12  H    0.000033
 Sum of Mulliken charges =  -0.00000

 Dipole moment (field-independent basis, Debye):
    X=              0.0000    Y=             -0.0000    Z=              0.0000  Tot=              0.0000
 Quadrupole moment (field-independent basis, Debye-Ang):
   XX=            -16.5157   YY=            -17.8023   ZZ=            -15.5155
   XY=             -0.4277   XZ=              0.0000   YZ=             -0.0000

 Normal termination of Gaussian 09 at Fri Feb 17 15:08:19 2017.
