 Gaussian 09, Revision E.01,
 Gaussian 09:  ES64L-G09RevE.01 30-Nov-2015

 ----------------------------------------------------------------------
 #rhf/gen scf(symm,tight,novaracc,noincfock,fulldiag) stable(crhf) gues
 s=read geom=nocrowd test
 ----------------------------------------------------------------------

 ----------------------------------------------------------------------
 hf stability analysis of h12 triangular lattice, y= 1.3135898396745678
 ----------------------------------------------------------------------
 Symbolic Z-matrix:
 Charge =  0 Multiplicity = 1

                         Standard orientation:
 ---------------------------------------------------------------------
 Center     Atomic      Atomic             Coordinates (Angstroms)
 Number     Number       Type             X           Y           Z
 ---------------------------------------------------------------------
      1          1           0        0.833616    3.184002    0.000000
      2          1           0        0.000000    2.077756    0.000000
      3          1           0        0.833616    1.798831    0.000000
      4          1           0        0.000000    0.692585    0.000000
      5          1           0       -0.833616    0.971509   -0.000000
      6          1           0       -0.833616   -0.413661   -0.000000
      7          1           0       -0.833616   -1.798831    0.000000
      8          1           0       -0.000000   -0.692585    0.000000
      9          1           0        0.833616    0.413661   -0.000000
     10          1           0        0.833616   -0.971509    0.000000
     11          1           0       -0.000000   -2.077756    0.000000
     12          1           0       -0.833616   -3.184002    0.000000
 ---------------------------------------------------------------------

 SCF Done:  E(RHF) =  -5.60941825524     A.U. after    8 cycles
 E2 =    -0.6333011756D+00 EUMP2 =    -0.62427194308647D+01

 The electronic state is 1-AG.
 Alpha  occ. eigenvalues --   -0.90276  -0.75563  -0.59759  -0.50232  -0.43015
 Alpha  occ. eigenvalues --   -0.06925
 Alpha virt. eigenvalues --   -0.03579  -0.00864   0.35544   0.38819   0.52472
 Alpha virt. eigenvalues --    0.70936

 Mulliken charges:
               1
     1  H   -0.124878
     2  H   -0.010105
     3  H    0.084274
     4  H   -0.149643
     5  H    0.174314
     6  H    0.026037
     7  H    0.084274
     8  H   -0.149643
     9  H    0.026037
    10  H    0.174314
    11  H   -0.010105
    12  H   -0.124878
 Sum of Mulliken charges =   0.00000

 Dipole moment (field-independent basis, Debye):
    X=              0.0000    Y=              0.0000    Z=             -0.0000  Tot=              0.0000
 Quadrupole moment (field-independent basis, Debye-Ang):
   XX=            -14.8666   YY=            -29.9415   ZZ=            -15.0064
   XY=             -5.4951   XZ=              0.0000   YZ=              0.0000

 Normal termination of Gaussian 09 at Fri Feb 17 15:06:07 2017.
