 Gaussian 09, Revision E.01,
 Gaussian 09:  ES64L-G09RevE.01 30-Nov-2015

 ----------------------------------------------------------------------
 #rhf/gen scf(symm,tight,novaracc,noincfock,fulldiag) stable(crhf) gues
 s=read geom=nocrowd test
 ----------------------------------------------------------------------

 hf stability analysis of h12 triangular lattice, y= 0.5628012212403139
 5
 ----------------------------------------------------------------------
 Symbolic Z-matrix:
 Charge =  0 Multiplicity = 1

                         Standard orientation:
 ---------------------------------------------------------------------
 Center     Atomic      Atomic             Coordinates (Angstroms)
 Number     Number       Type             X           Y           Z
 ---------------------------------------------------------------------
      1          1           0        0.986846    1.126448    0.000000
      2          1           0        0.000000    1.755138    0.000000
      3          1           0        0.986846   -0.043644    0.000000
      4          1           0        0.000000    0.585046    0.000000
      5          1           0       -0.986846    2.383828    0.000000
      6          1           0       -0.986846    1.213736    0.000000
      7          1           0       -0.986846    0.043644    0.000000
      8          1           0       -0.000000   -0.585046    0.000000
      9          1           0        0.986846   -1.213736   -0.000000
     10          1           0        0.986846   -2.383828   -0.000000
     11          1           0       -0.000000   -1.755138    0.000000
     12          1           0       -0.986846   -1.126448    0.000000
 ---------------------------------------------------------------------

 SCF Done:  E(RHF) =  -5.18697425074     A.U. after   11 cycles
 E2 =    -0.1681846847D+00 EUMP2 =    -0.53551589354576D+01

 The electronic state is 1-AG.
 Alpha  occ. eigenvalues --   -0.92735  -0.73280  -0.59094  -0.53137  -0.27283
 Alpha  occ. eigenvalues --    0.02042
 Alpha virt. eigenvalues --   -0.14558   0.12551   0.26115   0.38991   0.53285
 Alpha virt. eigenvalues --    0.54476

 Mulliken charges:
               1
     1  H    0.361426
     2  H   -0.183203
     3  H   -0.075987
     4  H   -0.058437
     5  H   -0.085363
     6  H    0.041563
     7  H   -0.075987
     8  H   -0.058437
     9  H    0.041563
    10  H   -0.085363
    11  H   -0.183203
    12  H    0.361426
 Sum of Mulliken charges =  -0.00000

 Dipole moment (field-independent basis, Debye):
    X=             -0.0000    Y=              0.0000    Z=              0.0000  Tot=              0.0000
 Quadrupole moment (field-independent basis, Debye-Ang):
   XX=            -14.3939   YY=            -25.9222   ZZ=            -14.7746
   XY=              6.3250   XZ=             -0.0000   YZ=             -0.0000

 Normal termination of Gaussian 09 at Fri Feb 17 14:57:13 2017.
