 Gaussian 09, Revision E.01,
 Gaussian 09:  ES64L-G09RevE.01 30-Nov-2015

 ----------------------------------------------------------------------
 #rhf/gen scf(symm,tight,novaracc,noincfock,fulldiag) stable(crhf) gues
 s=read geom=nocrowd test
 ----------------------------------------------------------------------

 hf stability analysis of h12 triangular lattice, y= 0.4584084631436424
 2
 ----------------------------------------------------------------------
 Symbolic Z-matrix:
 Charge =  0 Multiplicity = 1

                         Standard orientation:
 ---------------------------------------------------------------------
 Center     Atomic      Atomic             Coordinates (Angstroms)
 Number     Number       Type             X           Y           Z
 ---------------------------------------------------------------------
      1          1           0        0.861526    0.983718    0.000000
      2          1           0        0.000000    2.010445    0.000000
      3          1           0        0.861526   -0.356578    0.000000
      4          1           0        0.000000    0.670148    0.000000
      5          1           0       -0.861526    3.037172    0.000000
      6          1           0       -0.861526    1.696875    0.000000
      7          1           0       -0.861526    0.356578    0.000000
      8          1           0       -0.000000   -0.670148    0.000000
      9          1           0        0.861526   -1.696875   -0.000000
     10          1           0        0.861526   -3.037172    0.000000
     11          1           0       -0.000000   -2.010445    0.000000
     12          1           0       -0.861526   -0.983718    0.000000
 ---------------------------------------------------------------------

 SCF Done:  E(RHF) =  -5.52218314317     A.U. after    9 cycles
 E2 =    -0.6912756088D+00 EUMP2 =    -0.62134587519954D+01

 The electronic state is 1-AG.
 Alpha  occ. eigenvalues --   -0.90850  -0.75380  -0.58678  -0.51501  -0.40901
 Alpha  occ. eigenvalues --   -0.03463
 Alpha virt. eigenvalues --   -0.04862   0.01549   0.34002   0.34629   0.51721
 Alpha virt. eigenvalues --    0.65654

 Mulliken charges:
               1
     1  H    0.186118
     2  H   -0.019826
     3  H    0.012950
     4  H   -0.138014
     5  H   -0.149199
     6  H    0.107970
     7  H    0.012950
     8  H   -0.138014
     9  H    0.107970
    10  H   -0.149199
    11  H   -0.019826
    12  H    0.186118
 Sum of Mulliken charges =  -0.00000

 Dipole moment (field-independent basis, Debye):
    X=              0.0000    Y=              0.0000    Z=              0.0000  Tot=              0.0000
 Quadrupole moment (field-independent basis, Debye-Ang):
   XX=            -14.7489   YY=            -30.8920   ZZ=            -14.9305
   XY=              6.2714   XZ=             -0.0000   YZ=             -0.0000

 Normal termination of Gaussian 09 at Fri Feb 17 12:05:12 2017.
