 Gaussian 09, Revision E.01,
 Gaussian 09:  ES64L-G09RevE.01 30-Nov-2015

 ----------------------------------------------------------------------
 #rhf/gen scf(symm,tight,novaracc,noincfock,fulldiag) stable(crhf) gues
 s=read geom=nocrowd test
 ----------------------------------------------------------------------

 hf stability analysis of h12 triangular lattice, y= 0.3190649348779894
 3
 ----------------------------------------------------------------------
 Symbolic Z-matrix:
 Charge =  0 Multiplicity = 1

                         Standard orientation:
 ---------------------------------------------------------------------
 Center     Atomic      Atomic             Coordinates (Angstroms)
 Number     Number       Type             X           Y           Z
 ---------------------------------------------------------------------
      1          1           0        0.628435    1.029521   -0.000000
      2          1           0        0.000000    2.756133    0.000000
      3          1           0        0.628435   -0.807901   -0.000000
      4          1           0        0.000000    0.918711    0.000000
      5          1           0       -0.628435    4.482744    0.000000
      6          1           0       -0.628435    2.645322    0.000000
      7          1           0       -0.628435    0.807901    0.000000
      8          1           0       -0.000000   -0.918711   -0.000000
      9          1           0        0.628435   -2.645322   -0.000000
     10          1           0        0.628435   -4.482744   -0.000000
     11          1           0       -0.000000   -2.756133   -0.000000
     12          1           0       -0.628435   -1.029521   -0.000000
 ---------------------------------------------------------------------

 SCF Done:  E(RHF) =  -5.52498358932     A.U. after    6 cycles
 E2 =    -0.7715452883D+00 EUMP2 =    -0.62965288775721D+01

 The electronic state is 1-AG.
 Alpha  occ. eigenvalues --   -0.88953  -0.80518  -0.67087  -0.65526  -0.32156
 Alpha  occ. eigenvalues --   -0.19049
 Alpha virt. eigenvalues --   -0.13231   0.03848   0.49525   0.51202   0.93086
 Alpha virt. eigenvalues --    1.12788

 Mulliken charges:
               1
     1  H    0.174771
     2  H   -0.006816
     3  H    0.146566
     4  H   -0.308295
     5  H   -0.011666
     6  H    0.005440
     7  H    0.146566
     8  H   -0.308295
     9  H    0.005440
    10  H   -0.011666
    11  H   -0.006816
    12  H    0.174771
 Sum of Mulliken charges =   0.00000

 Dipole moment (field-independent basis, Debye):
    X=              0.0000    Y=              0.0000    Z=              0.0000  Tot=              0.0000
 Quadrupole moment (field-independent basis, Debye-Ang):
   XX=            -16.0321   YY=            -20.8516   ZZ=            -15.4286
   XY=              1.2401   XZ=              0.0000   YZ=             -0.0000

 Normal termination of Gaussian 09 at Fri Feb 17 14:53:27 2017.
