 Gaussian 09, Revision E.01,
 Gaussian 09:  ES64L-G09RevE.01 30-Nov-2015

 ----------------------------------------------------------------------
 #rhf/gen scf(symm,tight,novaracc,noincfock,fulldiag) stable(crhf) gues
 s=read geom=nocrowd test
 ----------------------------------------------------------------------

 ----------------------------------------------------------------------
 hf stability analysis of h12 triangular lattice, y= 1.0531284965820111
 ----------------------------------------------------------------------
 Symbolic Z-matrix:
 Charge =  0 Multiplicity = 1

                         Standard orientation:
 ---------------------------------------------------------------------
 Center     Atomic      Atomic             Coordinates (Angstroms)
 Number     Number       Type             X           Y           Z
 ---------------------------------------------------------------------
      1          1           0        0.972561    2.461912   -0.000000
      2          1           0        0.000000    1.780917   -0.000000
      3          1           0        0.972561    1.274634   -0.000000
      4          1           0        0.000000    0.593639   -0.000000
      5          1           0       -0.972561    1.099922   -0.000000
      6          1           0       -0.972561   -0.087356   -0.000000
      7          1           0       -0.972561   -1.274634    0.000000
      8          1           0       -0.000000   -0.593639    0.000000
      9          1           0        0.972561    0.087356    0.000000
     10          1           0        0.972561   -1.099922    0.000000
     11          1           0       -0.000000   -1.780917    0.000000
     12          1           0       -0.972561   -2.461912    0.000000
 ---------------------------------------------------------------------

 SCF Done:  E(RHF) =  -5.20354599000     A.U. after   11 cycles
 E2 =    -0.1679758582D+00 EUMP2 =    -0.53715218481962D+01

 The electronic state is 1-AG.
 Alpha  occ. eigenvalues --   -0.92727  -0.73036  -0.58481  -0.53515  -0.28877
 Alpha  occ. eigenvalues --    0.03419
 Alpha virt. eigenvalues --   -0.13224   0.13956   0.24362   0.40409   0.49638
 Alpha virt. eigenvalues --    0.53305

 Mulliken charges:
               1
     1  H   -0.054462
     2  H   -0.207548
     3  H    0.028646
     4  H   -0.066183
     5  H    0.348602
     6  H   -0.049056
     7  H    0.028646
     8  H   -0.066183
     9  H   -0.049056
    10  H    0.348602
    11  H   -0.207548
    12  H   -0.054462
 Sum of Mulliken charges =   0.00000

 Dipole moment (field-independent basis, Debye):
    X=              0.0000    Y=             -0.0000    Z=              0.0000  Tot=              0.0000
 Quadrupole moment (field-independent basis, Debye-Ang):
   XX=            -14.4623   YY=            -25.5199   ZZ=            -14.8108
   XY=             -5.5573   XZ=              0.0000   YZ=              0.0000

 Normal termination of Gaussian 09 at Fri Feb 17 15:04:15 2017.
