 Gaussian 09, Revision E.01,
 Gaussian 09:  ES64L-G09RevE.01 30-Nov-2015

 ----------------------------------------------------------------------
 #rhf/gen scf(symm,tight,novaracc,noincfock,fulldiag) stable(crhf) gues
 s=read geom=nocrowd test
 ----------------------------------------------------------------------

 ----------------------------------------------------------------------
 hf stability analysis of h12 triangular lattice, y= 1.1255574828824770
 ----------------------------------------------------------------------
 Symbolic Z-matrix:
 Charge =  0 Multiplicity = 1

                         Standard orientation:
 ---------------------------------------------------------------------
 Center     Atomic      Atomic             Coordinates (Angstroms)
 Number     Number       Type             X           Y           Z
 ---------------------------------------------------------------------
      1          1           0        0.933522    2.666892   -0.000000
      2          1           0        0.000000    1.855393   -0.000000
      3          1           0        0.933522    1.429963   -0.000000
      4          1           0        0.000000    0.618464   -0.000000
      5          1           0       -0.933522    1.043895   -0.000000
      6          1           0       -0.933522   -0.193034   -0.000000
      7          1           0       -0.933522   -1.429963    0.000000
      8          1           0       -0.000000   -0.618464   -0.000000
      9          1           0        0.933522    0.193034   -0.000000
     10          1           0        0.933522   -1.043895   -0.000000
     11          1           0       -0.000000   -1.855393   -0.000000
     12          1           0       -0.933522   -2.666892   -0.000000
 ---------------------------------------------------------------------

 SCF Done:  E(RHF) =  -5.23646337486     A.U. after   11 cycles
 E2 =    -0.3773629771D+01 EUMP2 =    -0.90100931453888D+01

 The electronic state is 1-AG.
 Alpha  occ. eigenvalues --   -0.92307  -0.72464  -0.56552  -0.54396  -0.32993
 Alpha  occ. eigenvalues --    0.06883
 Alpha virt. eigenvalues --   -0.09476   0.14717   0.23261   0.34125   0.50848
 Alpha virt. eigenvalues --    0.52275

 Mulliken charges:
               1
     1  H    0.001556
     2  H   -0.309440
     3  H    0.086869
     4  H   -0.096359
     5  H    0.309790
     6  H    0.007584
     7  H    0.086869
     8  H   -0.096359
     9  H    0.007584
    10  H    0.309790
    11  H   -0.309440
    12  H    0.001556
 Sum of Mulliken charges =  -0.00000

 Dipole moment (field-independent basis, Debye):
    X=             -0.0000    Y=             -0.0000    Z=             -0.0000  Tot=              0.0000
 Quadrupole moment (field-independent basis, Debye-Ang):
   XX=            -14.1641   YY=            -25.0769   ZZ=            -14.8760
   XY=             -3.2713   XZ=             -0.0000   YZ=              0.0000

 Normal termination of Gaussian 09 at Fri Feb 17 15:04:52 2017.
