 Gaussian 09, Revision E.01,
 Gaussian 09:  ES64L-G09RevE.01 30-Nov-2015

 ----------------------------------------------------------------------
 #rhf/gen scf(symm,tight,novaracc,noincfock,fulldiag) stable(crhf) gues
 s=read geom=nocrowd test
 ----------------------------------------------------------------------

 hf stability analysis of h12 triangular lattice, y= 0.4980454386758799
 1
 ----------------------------------------------------------------------
 Symbolic Z-matrix:
 Charge =  0 Multiplicity = 1

                         Standard orientation:
 ---------------------------------------------------------------------
 Center     Atomic      Atomic             Coordinates (Angstroms)
 Number     Number       Type             X           Y           Z
 ---------------------------------------------------------------------
      1          1           0        0.915200    1.024047    0.000000
      2          1           0        0.000000    1.892539    0.000000
      3          1           0        0.915200   -0.237646    0.000000
      4          1           0        0.000000    0.630846    0.000000
      5          1           0       -0.915200    2.761031   -0.000000
      6          1           0       -0.915200    1.499338   -0.000000
      7          1           0       -0.915200    0.237646    0.000000
      8          1           0       -0.000000   -0.630846   -0.000000
      9          1           0        0.915200   -1.499338   -0.000000
     10          1           0        0.915200   -2.761031   -0.000000
     11          1           0       -0.000000   -1.892539   -0.000000
     12          1           0       -0.915200   -1.024047   -0.000000
 ---------------------------------------------------------------------

 SCF Done:  E(RHF) =  -5.29311881209     A.U. after   11 cycles
 E2 =    -0.5446055140D+00 EUMP2 =    -0.58377243260653D+01

 The electronic state is 1-AG.
 Alpha  occ. eigenvalues --   -0.92275  -0.74431  -0.56103  -0.55454  -0.35547
 Alpha  occ. eigenvalues --    0.05017
 Alpha virt. eigenvalues --   -0.07844   0.08215   0.25702   0.31885   0.51772
 Alpha virt. eigenvalues --    0.55533

 Mulliken charges:
               1
     1  H    0.232270
     2  H   -0.142789
     3  H    0.001965
     4  H   -0.115549
     5  H   -0.156131
     6  H    0.180233
     7  H    0.001965
     8  H   -0.115549
     9  H    0.180233
    10  H   -0.156131
    11  H   -0.142789
    12  H    0.232270
 Sum of Mulliken charges =  -0.00000

 Dipole moment (field-independent basis, Debye):
    X=              0.0000    Y=             -0.0000    Z=              0.0000  Tot=              0.0000
 Quadrupole moment (field-independent basis, Debye-Ang):
   XX=            -14.3500   YY=            -31.1775   ZZ=            -14.7946
   XY=              6.6083   XZ=              0.0000   YZ=             -0.0000

 Normal termination of Gaussian 09 at Fri Feb 17 14:56:04 2017.
