 Gaussian 09, Revision E.01,
 Gaussian 09:  ES64L-G09RevE.01 30-Nov-2015

 ----------------------------------------------------------------------
 #rhf/gen scf(symm,tight,novaracc,noincfock,fulldiag) stable(crhf) gues
 s=read geom=nocrowd test
 ----------------------------------------------------------------------

 hf stability analysis of h12 triangular lattice, y= 0.4950461160480687
 5
 ----------------------------------------------------------------------
 Symbolic Z-matrix:
 Charge =  0 Multiplicity = 1

                         Standard orientation:
 ---------------------------------------------------------------------
 Center     Atomic      Atomic             Coordinates (Angstroms)
 Number     Number       Type             X           Y           Z
 ---------------------------------------------------------------------
      1          1           0        0.911385    1.020347    0.000000
      2          1           0        0.000000    1.900461    0.000000
      3          1           0        0.911385   -0.246627    0.000000
      4          1           0        0.000000    0.633487    0.000000
      5          1           0       -0.911385    2.780575    0.000000
      6          1           0       -0.911385    1.513601    0.000000
      7          1           0       -0.911385    0.246627    0.000000
      8          1           0       -0.000000   -0.633487    0.000000
      9          1           0        0.911385   -1.513601   -0.000000
     10          1           0        0.911385   -2.780575   -0.000000
     11          1           0       -0.000000   -1.900461    0.000000
     12          1           0       -0.911385   -1.020347    0.000000
 ---------------------------------------------------------------------

 SCF Done:  E(RHF) =  -5.31077163177     A.U. after   12 cycles
 E2 =    -0.5845035423D+00 EUMP2 =    -0.58952751741193D+01

 The electronic state is 1-AG.
 Alpha  occ. eigenvalues --   -0.92162  -0.74623  -0.56364  -0.55122  -0.35992
 Alpha  occ. eigenvalues --    0.04326
 Alpha virt. eigenvalues --   -0.07654   0.07516   0.26334   0.31919   0.51795
 Alpha virt. eigenvalues --    0.56227

 Mulliken charges:
               1
     1  H    0.224942
     2  H   -0.116468
     3  H    0.000096
     4  H   -0.117292
     5  H   -0.165700
     6  H    0.174422
     7  H    0.000096
     8  H   -0.117292
     9  H    0.174422
    10  H   -0.165700
    11  H   -0.116468
    12  H    0.224942
 Sum of Mulliken charges =   0.00000

 Dipole moment (field-independent basis, Debye):
    X=              0.0000    Y=             -0.0000    Z=              0.0000  Tot=              0.0000
 Quadrupole moment (field-independent basis, Debye-Ang):
   XX=            -14.4248   YY=            -31.4555   ZZ=            -14.7996
   XY=              6.8385   XZ=             -0.0000   YZ=             -0.0000

 Normal termination of Gaussian 09 at Fri Feb 17 12:05:19 2017.
