 Gaussian 09, Revision E.01,
 Gaussian 09:  ES64L-G09RevE.01 30-Nov-2015

 ----------------------------------------------------------------------
 #rhf/gen scf(symm,tight,novaracc,noincfock,fulldiag) stable(crhf) gues
 s=read geom=nocrowd test
 ----------------------------------------------------------------------

 hf stability analysis of h12 triangular lattice, y= 0.3271170287955045
 3
 ----------------------------------------------------------------------
 Symbolic Z-matrix:
 Charge =  0 Multiplicity = 1

                         Standard orientation:
 ---------------------------------------------------------------------
 Center     Atomic      Atomic             Coordinates (Angstroms)
 Number     Number       Type             X           Y           Z
 ---------------------------------------------------------------------
      1          1           0        0.643279    1.016736    0.000000
      2          1           0        0.000000    2.692535    0.000000
      3          1           0        0.643279   -0.778287   -0.000000
      4          1           0        0.000000    0.897512    0.000000
      5          1           0       -0.643279    4.368334    0.000000
      6          1           0       -0.643279    2.573310    0.000000
      7          1           0       -0.643279    0.778287    0.000000
      8          1           0       -0.000000   -0.897512   -0.000000
      9          1           0        0.643279   -2.573310   -0.000000
     10          1           0        0.643279   -4.368334   -0.000000
     11          1           0       -0.000000   -2.692535   -0.000000
     12          1           0       -0.643279   -1.016736   -0.000000
 ---------------------------------------------------------------------

 SCF Done:  E(RHF) =  -5.57662999213     A.U. after    6 cycles
 E2 =    -0.7490748639D+00 EUMP2 =    -0.63257048559900D+01

 The electronic state is 1-AG.
 Alpha  occ. eigenvalues --   -0.88796  -0.79682  -0.66560  -0.64488  -0.33286
 Alpha  occ. eigenvalues --   -0.18684
 Alpha virt. eigenvalues --   -0.12736   0.03589   0.48370   0.50355   0.88906
 Alpha virt. eigenvalues --    1.09340

 Mulliken charges:
               1
     1  H    0.168526
     2  H   -0.006858
     3  H    0.134887
     4  H   -0.288823
     5  H   -0.015366
     6  H    0.007634
     7  H    0.134887
     8  H   -0.288823
     9  H    0.007634
    10  H   -0.015366
    11  H   -0.006858
    12  H    0.168526
 Sum of Mulliken charges =  -0.00000

 Dipole moment (field-independent basis, Debye):
    X=              0.0000    Y=             -0.0000    Z=              0.0000  Tot=              0.0000
 Quadrupole moment (field-independent basis, Debye-Ang):
   XX=            -15.9436   YY=            -21.4627   ZZ=            -15.4070
   XY=              1.4293   XZ=              0.0000   YZ=             -0.0000

 Normal termination of Gaussian 09 at Fri Feb 17 14:53:33 2017.
