 Gaussian 09, Revision E.01,
 Gaussian 09:  ES64L-G09RevE.01 30-Nov-2015

 ----------------------------------------------------------------------
 #rhf/gen scf(symm,tight,novaracc,noincfock,fulldiag) stable(crhf) gues
 s=read geom=nocrowd test
 ----------------------------------------------------------------------

 hf stability analysis of h12 triangular lattice, y= 0.6299221068523126
 5
 ----------------------------------------------------------------------
 Symbolic Z-matrix:
 Charge =  0 Multiplicity = 1

                         Standard orientation:
 ---------------------------------------------------------------------
 Center     Atomic      Atomic             Coordinates (Angstroms)
 Number     Number       Type             X           Y           Z
 ---------------------------------------------------------------------
      1          1           0        1.038271    1.269653   -0.000000
      2          1           0       -0.000000    1.668208    0.000000
      3          1           0        1.038271    0.157514   -0.000000
      4          1           0       -0.000000    0.556069    0.000000
      5          1           0       -1.038271    2.066762    0.000000
      6          1           0       -1.038271    0.954624    0.000000
      7          1           0       -1.038271   -0.157514   -0.000000
      8          1           0        0.000000   -0.556069    0.000000
      9          1           0        1.038271   -0.954624    0.000000
     10          1           0        1.038271   -2.066762    0.000000
     11          1           0        0.000000   -1.668208    0.000000
     12          1           0       -1.038271   -1.269653   -0.000000
 ---------------------------------------------------------------------

 SCF Done:  E(RHF) =  -5.09729441677     A.U. after   11 cycles
 E2 =    -0.1926284319D+00 EUMP2 =    -0.52899228486953D+01

 The electronic state is 1-AG.
 Alpha  occ. eigenvalues --   -0.91411  -0.73773  -0.59995  -0.51237  -0.21444
 Alpha  occ. eigenvalues --   -0.04029
 Alpha virt. eigenvalues --   -0.19497   0.08803   0.30926   0.34644   0.59054
 Alpha virt. eigenvalues --    0.76111

 Mulliken charges:
               1
     1  H    0.353071
     2  H   -0.060173
     3  H   -0.200671
     4  H   -0.061209
     5  H   -0.204928
     6  H    0.173910
     7  H   -0.200671
     8  H   -0.061209
     9  H    0.173910
    10  H   -0.204928
    11  H   -0.060173
    12  H    0.353071
 Sum of Mulliken charges =  -0.00000

 Dipole moment (field-independent basis, Debye):
    X=             -0.0000    Y=              0.0000    Z=             -0.0000  Tot=              0.0000
 Quadrupole moment (field-independent basis, Debye-Ang):
   XX=            -13.8153   YY=            -25.6021   ZZ=            -14.6049
   XY=              7.3971   XZ=              0.0000   YZ=             -0.0000

 Normal termination of Gaussian 09 at Fri Feb 17 14:58:25 2017.
