 Gaussian 09, Revision E.01,
 Gaussian 09:  ES64L-G09RevE.01 30-Nov-2015

 ----------------------------------------------------------------------
 #rhf/gen scf(symm,tight,novaracc,noincfock,fulldiag) stable(crhf) gues
 s=read geom=nocrowd test
 ----------------------------------------------------------------------

 hf stability analysis of h12 triangular lattice, y= 0.4490208748124050
 5
 ----------------------------------------------------------------------
 Symbolic Z-matrix:
 Charge =  0 Multiplicity = 1

                         Standard orientation:
 ---------------------------------------------------------------------
 Center     Atomic      Atomic             Coordinates (Angstroms)
 Number     Number       Type             X           Y           Z
 ---------------------------------------------------------------------
      1          1           0        0.847831    0.977049   -0.000000
      2          1           0        0.000000    2.042919   -0.000000
      3          1           0        0.847831   -0.384897    0.000000
      4          1           0        0.000000    0.680973   -0.000000
      5          1           0       -0.847831    3.108789   -0.000000
      6          1           0       -0.847831    1.746843   -0.000000
      7          1           0       -0.847831    0.384897    0.000000
      8          1           0       -0.000000   -0.680973   -0.000000
      9          1           0        0.847831   -1.746843   -0.000000
     10          1           0        0.847831   -3.108789   -0.000000
     11          1           0       -0.000000   -2.042919   -0.000000
     12          1           0       -0.847831   -0.977049    0.000000
 ---------------------------------------------------------------------

 SCF Done:  E(RHF) =  -5.56795842749     A.U. after    8 cycles
 E2 =    -0.6773147763D+00 EUMP2 =    -0.62452732038283D+01

 The electronic state is 1-AG.
 Alpha  occ. eigenvalues --   -0.90558  -0.75472  -0.59216  -0.50764  -0.42043
 Alpha  occ. eigenvalues --   -0.05238
 Alpha virt. eigenvalues --   -0.04168   0.00274   0.34743   0.36763   0.51962
 Alpha virt. eigenvalues --    0.68246

 Mulliken charges:
               1
     1  H    0.179950
     2  H   -0.013945
     3  H    0.019297
     4  H   -0.143660
     5  H   -0.137218
     6  H    0.095577
     7  H    0.019297
     8  H   -0.143660
     9  H    0.095577
    10  H   -0.137218
    11  H   -0.013945
    12  H    0.179950
 Sum of Mulliken charges =  -0.00000

 Dipole moment (field-independent basis, Debye):
    X=              0.0000    Y=             -0.0000    Z=              0.0000  Tot=              0.0000
 Quadrupole moment (field-independent basis, Debye-Ang):
   XX=            -14.8054   YY=            -30.4473   ZZ=            -14.9682
   XY=              5.8933   XZ=             -0.0000   YZ=             -0.0000

 Normal termination of Gaussian 09 at Fri Feb 17 14:55:16 2017.
