 Gaussian 09, Revision E.01,
 Gaussian 09:  ES64L-G09RevE.01 30-Nov-2015

 ----------------------------------------------------------------------
 #rhf/gen scf(symm,tight,novaracc,noincfock,fulldiag) stable(crhf) gues
 s=read geom=nocrowd test
 ----------------------------------------------------------------------

 hf stability analysis of h12 triangular lattice, y= 0.6035568768658181
 6
 ----------------------------------------------------------------------
 Symbolic Z-matrix:
 Charge =  0 Multiplicity = 1

                         Standard orientation:
 ---------------------------------------------------------------------
 Center     Atomic      Atomic             Coordinates (Angstroms)
 Number     Number       Type             X           Y           Z
 ---------------------------------------------------------------------
      1          1           0        1.020890    1.209670   -0.000000
      2          1           0        0.000000    1.696609   -0.000000
      3          1           0        1.020890    0.078597   -0.000000
      4          1           0        0.000000    0.565536   -0.000000
      5          1           0       -1.020890    2.183549   -0.000000
      6          1           0       -1.020890    1.052476    0.000000
      7          1           0       -1.020890   -0.078597   -0.000000
      8          1           0       -0.000000   -0.565536   -0.000000
      9          1           0        1.020890   -1.052476    0.000000
     10          1           0        1.020890   -2.183549   -0.000000
     11          1           0       -0.000000   -1.696609   -0.000000
     12          1           0       -1.020890   -1.209670   -0.000000
 ---------------------------------------------------------------------

 SCF Done:  E(RHF) =  -5.13243653682     A.U. after   11 cycles
 E2 =    -0.1754326271D+00 EUMP2 =    -0.53078691639294D+01

 The electronic state is 1-AG.
 Alpha  occ. eigenvalues --   -0.92082  -0.73736  -0.59913  -0.52000  -0.23369
 Alpha  occ. eigenvalues --   -0.01724
 Alpha virt. eigenvalues --   -0.17827   0.09757   0.31320   0.33545   0.57576
 Alpha virt. eigenvalues --    0.66982

 Mulliken charges:
               1
     1  H    0.373402
     2  H   -0.110923
     3  H   -0.159744
     4  H   -0.051706
     5  H   -0.166396
     6  H    0.115368
     7  H   -0.159744
     8  H   -0.051706
     9  H    0.115368
    10  H   -0.166396
    11  H   -0.110923
    12  H    0.373402
 Sum of Mulliken charges =  -0.00000

 Dipole moment (field-independent basis, Debye):
    X=              0.0000    Y=             -0.0000    Z=             -0.0000  Tot=              0.0000
 Quadrupole moment (field-independent basis, Debye-Ang):
   XX=            -14.0900   YY=            -26.0477   ZZ=            -14.6704
   XY=              7.5139   XZ=             -0.0000   YZ=              0.0000

 Normal termination of Gaussian 09 at Fri Feb 17 14:57:57 2017.
