 Gaussian 09, Revision E.01,
 Gaussian 09:  ES64L-G09RevE.01 30-Nov-2015

 ----------------------------------------------------------------------
 #rhf/gen scf(symm,tight,novaracc,noincfock,fulldiag) stable(crhf) gues
 s=read geom=nocrowd test
 ----------------------------------------------------------------------

 hf stability analysis of h12 triangular lattice, y= 0.6269799200977310
 7
 ----------------------------------------------------------------------
 Symbolic Z-matrix:
 Charge =  0 Multiplicity = 1

                         Standard orientation:
 ---------------------------------------------------------------------
 Center     Atomic      Atomic             Coordinates (Angstroms)
 Number     Number       Type             X           Y           Z
 ---------------------------------------------------------------------
      1          1           0        1.036510    1.262748    0.000000
      2          1           0        0.000000    1.671041    0.000000
      3          1           0        1.036510    0.148721    0.000000
      4          1           0        0.000000    0.557014    0.000000
      5          1           0       -1.036510    2.079333   -0.000000
      6          1           0       -1.036510    0.965306   -0.000000
      7          1           0       -1.036510   -0.148721    0.000000
      8          1           0       -0.000000   -0.557014   -0.000000
      9          1           0        1.036510   -0.965306   -0.000000
     10          1           0        1.036510   -2.079333   -0.000000
     11          1           0       -0.000000   -1.671041   -0.000000
     12          1           0       -1.036510   -1.262748    0.000000
 ---------------------------------------------------------------------

 SCF Done:  E(RHF) =  -5.10100497683     A.U. after   11 cycles
 E2 =    -0.1893889495D+00 EUMP2 =    -0.52903939263443D+01

 The electronic state is 1-AG.
 Alpha  occ. eigenvalues --   -0.91484  -0.73781  -0.59992  -0.51321  -0.21634
 Alpha  occ. eigenvalues --   -0.03778
 Alpha virt. eigenvalues --   -0.19331   0.08889   0.31169   0.34274   0.58922
 Alpha virt. eigenvalues --    0.75112

 Mulliken charges:
               1
     1  H    0.356625
     2  H   -0.065593
     3  H   -0.197496
     4  H   -0.059672
     5  H   -0.201612
     6  H    0.167747
     7  H   -0.197496
     8  H   -0.059672
     9  H    0.167747
    10  H   -0.201612
    11  H   -0.065593
    12  H    0.356625
 Sum of Mulliken charges =  -0.00000

 Dipole moment (field-independent basis, Debye):
    X=             -0.0000    Y=             -0.0000    Z=              0.0000  Tot=              0.0000
 Quadrupole moment (field-independent basis, Debye-Ang):
   XX=            -13.8505   YY=            -25.6598   ZZ=            -14.6120
   XY=              7.4471   XZ=              0.0000   YZ=             -0.0000

 Normal termination of Gaussian 09 at Fri Feb 17 14:58:22 2017.
