 Gaussian 09, Revision E.01,
 Gaussian 09:  ES64L-G09RevE.01 30-Nov-2015

 ----------------------------------------------------------------------
 #rhf/gen scf(symm,tight,novaracc,noincfock,fulldiag) stable(crhf) gues
 s=read geom=nocrowd test
 ----------------------------------------------------------------------

 hf stability analysis of h12 triangular lattice, y= 0.4427008172522774
 5
 ----------------------------------------------------------------------
 Symbolic Z-matrix:
 Charge =  0 Multiplicity = 1

                         Standard orientation:
 ---------------------------------------------------------------------
 Center     Atomic      Atomic             Coordinates (Angstroms)
 Number     Number       Type             X           Y           Z
 ---------------------------------------------------------------------
      1          1           0        0.838413    0.973225   -0.000000
      2          1           0       -0.000000    2.065867   -0.000000
      3          1           0        0.838413   -0.404019    0.000000
      4          1           0       -0.000000    0.688622   -0.000000
      5          1           0       -0.838413    3.158509   -0.000000
      6          1           0       -0.838413    1.781264   -0.000000
      7          1           0       -0.838413    0.404019    0.000000
      8          1           0       -0.000000   -0.688622   -0.000000
      9          1           0        0.838413   -1.781264   -0.000000
     10          1           0        0.838413   -3.158509   -0.000000
     11          1           0       -0.000000   -2.065867   -0.000000
     12          1           0       -0.838413   -0.973225   -0.000000
 ---------------------------------------------------------------------

 SCF Done:  E(RHF) =  -5.59611323751     A.U. after    8 cycles
 E2 =    -0.6424824297D+00 EUMP2 =    -0.62385956672428D+01

 The electronic state is 1-AG.
 Alpha  occ. eigenvalues --   -0.90369  -0.75532  -0.59578  -0.50377  -0.42720
 Alpha  occ. eigenvalues --   -0.06373
 Alpha virt. eigenvalues --   -0.03753  -0.00510   0.35270   0.38148   0.52265
 Alpha virt. eigenvalues --    0.70028

 Mulliken charges:
               1
     1  H    0.176136
     2  H   -0.011206
     3  H    0.023751
     4  H   -0.147604
     5  H   -0.129012
     6  H    0.087935
     7  H    0.023751
     8  H   -0.147604
     9  H    0.087935
    10  H   -0.129012
    11  H   -0.011206
    12  H    0.176136
 Sum of Mulliken charges =  -0.00000

 Dipole moment (field-independent basis, Debye):
    X=              0.0000    Y=             -0.0000    Z=              0.0000  Tot=              0.0000
 Quadrupole moment (field-independent basis, Debye-Ang):
   XX=            -14.8456   YY=            -30.1168   ZZ=            -14.9936
   XY=              5.6294   XZ=             -0.0000   YZ=              0.0000

 Normal termination of Gaussian 09 at Fri Feb 17 14:55:10 2017.
