 Gaussian 09, Revision E.01,
 Gaussian 09:  ES64L-G09RevE.01 30-Nov-2015

 ----------------------------------------------------------------------
 #rhf/gen scf(symm,tight,novaracc,noincfock,fulldiag) stable(crhf) gues
 s=read geom=nocrowd test
 ----------------------------------------------------------------------

 ----------------------------------------------------------------------
 hf stability analysis of h12 triangular lattice, y= 2.2510753219802888
 ----------------------------------------------------------------------
 Symbolic Z-matrix:
 Charge =  0 Multiplicity = 1

                         Standard orientation:
 ---------------------------------------------------------------------
 Center     Atomic      Atomic             Coordinates (Angstroms)
 Number     Number       Type             X           Y           Z
 ---------------------------------------------------------------------
      1          1           0        0.509658    5.606030   -0.000000
      2          1           0        0.000000    3.398459   -0.000000
      3          1           0        0.509658    3.340391   -0.000000
      4          1           0        0.000000    1.132820   -0.000000
      5          1           0       -0.509658    1.190888   -0.000000
      6          1           0       -0.509658   -1.074751    0.000000
      7          1           0       -0.509658   -3.340391   -0.000000
      8          1           0       -0.000000   -1.132820   -0.000000
      9          1           0        0.509658    1.074751    0.000000
     10          1           0        0.509658   -1.190888   -0.000000
     11          1           0       -0.000000   -3.398459   -0.000000
     12          1           0       -0.509658   -5.606030   -0.000000
 ---------------------------------------------------------------------

 SCF Done:  E(RHF) =  -4.78178220464     A.U. after    6 cycles
 E2 =    -0.9938303352D+00 EUMP2 =    -0.57756125398174D+01

 The electronic state is 1-AG.
 Alpha  occ. eigenvalues --   -0.92375  -0.90004  -0.71306  -0.71273  -0.22466
 Alpha  occ. eigenvalues --   -0.20516
 Alpha virt. eigenvalues --   -0.15816   0.05583   0.59950   0.60248   1.33594
 Alpha virt. eigenvalues --    1.46432

 Mulliken charges:
               1
     1  H    0.001037
     2  H   -0.003903
     3  H   -0.001446
     4  H   -0.550902
     5  H    0.278005
     6  H    0.277209
     7  H   -0.001446
     8  H   -0.550902
     9  H    0.277209
    10  H    0.278005
    11  H   -0.003903
    12  H    0.001037
 Sum of Mulliken charges =   0.00000

 Dipole moment (field-independent basis, Debye):
    X=              0.0000    Y=             -0.0000    Z=              0.0000  Tot=              0.0000
 Quadrupole moment (field-independent basis, Debye-Ang):
   XX=            -16.6362   YY=            -17.1163   ZZ=            -15.5229
   XY=             -0.2756   XZ=              0.0000   YZ=              0.0000

 Normal termination of Gaussian 09 at Fri Feb 17 15:08:28 2017.
