 Gaussian 09, Revision E.01,
 Gaussian 09:  ES64L-G09RevE.01 30-Nov-2015

 ----------------------------------------------------------------------
 #rhf/gen scf(symm,tight,novaracc,noincfock,fulldiag) stable(crhf) gues
 s=read geom=nocrowd test
 ----------------------------------------------------------------------

 hf stability analysis of h12 triangular lattice, y= 0.7937677784109760
 1
 ----------------------------------------------------------------------
 Symbolic Z-matrix:
 Charge =  0 Multiplicity = 1

                         Standard orientation:
 ---------------------------------------------------------------------
 Center     Atomic      Atomic             Coordinates (Angstroms)
 Number     Number       Type             X           Y           Z
 ---------------------------------------------------------------------
      1          1           0        1.072523    1.708764   -0.000000
      2          1           0        0.000000    1.614930    0.000000
      3          1           0        1.072523    0.632144   -0.000000
      4          1           0        0.000000    0.538310    0.000000
      5          1           0       -1.072523    1.521097    0.000000
      6          1           0       -1.072523    0.444477    0.000000
      7          1           0       -1.072523   -0.632144    0.000000
      8          1           0       -0.000000   -0.538310    0.000000
      9          1           0        1.072523   -0.444477    0.000000
     10          1           0        1.072523   -1.521097    0.000000
     11          1           0       -0.000000   -1.614930    0.000000
     12          1           0       -1.072523   -1.708764    0.000000
 ---------------------------------------------------------------------

 SCF Done:  E(RHF) =  -5.02687538013     A.U. after   11 cycles
 E2 =    -0.1497446734D+00 EUMP2 =    -0.51766200534969D+01

 The electronic state is 1-AG.
 Alpha  occ. eigenvalues --   -0.90383  -0.72437  -0.60687  -0.49493  -0.16198
 Alpha  occ. eigenvalues --   -0.11902
 Alpha virt. eigenvalues --   -0.22079   0.06598   0.28553   0.45310   0.58935
 Alpha virt. eigenvalues --    0.99367

 Mulliken charges:
               1
     1  H   -0.095806
     2  H   -0.010069
     3  H    0.142826
     4  H   -0.094428
     5  H    0.104900
     6  H   -0.047424
     7  H    0.142826
     8  H   -0.094428
     9  H   -0.047424
    10  H    0.104900
    11  H   -0.010069
    12  H   -0.095806
 Sum of Mulliken charges =   0.00000

 Dipole moment (field-independent basis, Debye):
    X=              0.0000    Y=             -0.0000    Z=              0.0000  Tot=              0.0000
 Quadrupole moment (field-independent basis, Debye-Ang):
   XX=            -12.3829   YY=            -24.3827   ZZ=            -14.4342
   XY=             -2.2351   XZ=              0.0000   YZ=              0.0000

 Normal termination of Gaussian 09 at Fri Feb 17 15:01:11 2017.
