 Gaussian 09, Revision E.01,
 Gaussian 09:  ES64L-G09RevE.01 30-Nov-2015

 ----------------------------------------------------------------------
 #rhf/gen scf(symm,tight,novaracc,noincfock,fulldiag) stable(crhf) gues
 s=read geom=nocrowd test
 ----------------------------------------------------------------------

 hf stability analysis of h12 triangular lattice, y= 0.4201353311163031
 9
 ----------------------------------------------------------------------
 Symbolic Z-matrix:
 Charge =  0 Multiplicity = 1

                         Standard orientation:
 ---------------------------------------------------------------------
 Center     Atomic      Atomic             Coordinates (Angstroms)
 Number     Number       Type             X           Y           Z
 ---------------------------------------------------------------------
      1          1           0        0.803555    0.964167   -0.000000
      2          1           0       -0.000000    2.155486   -0.000000
      3          1           0        0.803555   -0.472824   -0.000000
      4          1           0       -0.000000    0.718495   -0.000000
      5          1           0       -0.803555    3.346805   -0.000000
      6          1           0       -0.803555    1.909814   -0.000000
      7          1           0       -0.803555    0.472824    0.000000
      8          1           0       -0.000000   -0.718495   -0.000000
      9          1           0        0.803555   -1.909814   -0.000000
     10          1           0        0.803555   -3.346805   -0.000000
     11          1           0       -0.000000   -2.155486   -0.000000
     12          1           0       -0.803555   -0.964167    0.000000
 ---------------------------------------------------------------------

 SCF Done:  E(RHF) =  -5.67704020636     A.U. after    8 cycles
 E2 =    -0.6103914574D+00 EUMP2 =    -0.62874316637283D+01

 The electronic state is 1-AG.
 Alpha  occ. eigenvalues --   -0.89737  -0.75772  -0.60872  -0.50555  -0.43663
 Alpha  occ. eigenvalues --   -0.10008
 Alpha virt. eigenvalues --   -0.04151  -0.01313   0.37325   0.42317   0.54792
 Alpha virt. eigenvalues --    0.76643

 Mulliken charges:
               1
     1  H    0.164637
     2  H   -0.006155
     3  H    0.040555
     4  H   -0.163132
     5  H   -0.100099
     6  H    0.064195
     7  H    0.040555
     8  H   -0.163132
     9  H    0.064195
    10  H   -0.100099
    11  H   -0.006155
    12  H    0.164637
 Sum of Mulliken charges =   0.00000

 Dipole moment (field-independent basis, Debye):
    X=             -0.0000    Y=             -0.0000    Z=              0.0000  Tot=              0.0000
 Quadrupole moment (field-independent basis, Debye-Ang):
   XX=            -15.0083   YY=            -28.7528   ZZ=            -15.0835
   XY=              4.6708   XZ=             -0.0000   YZ=             -0.0000

 Normal termination of Gaussian 09 at Fri Feb 17 14:54:47 2017.
