 Gaussian 09, Revision E.01,
 Gaussian 09:  ES64L-G09RevE.01 30-Nov-2015

 ----------------------------------------------------------------------
 #rhf/gen scf(symm,tight,novaracc,noincfock,fulldiag) stable(crhf) gues
 s=read geom=nocrowd test
 ----------------------------------------------------------------------

 hf stability analysis of h12 triangular lattice, y= 0.4799368795303601
 3
 ----------------------------------------------------------------------
 Symbolic Z-matrix:
 Charge =  0 Multiplicity = 1

                         Standard orientation:
 ---------------------------------------------------------------------
 Center     Atomic      Atomic             Coordinates (Angstroms)
 Number     Number       Type             X           Y           Z
 ---------------------------------------------------------------------
      1          1           0        0.891540    1.003276    0.000000
      2          1           0        0.000000    1.942763    0.000000
      3          1           0        0.891540   -0.291899    0.000000
      4          1           0        0.000000    0.647588    0.000000
      5          1           0       -0.891540    2.882250   -0.000000
      6          1           0       -0.891540    1.587075   -0.000000
      7          1           0       -0.891540    0.291899    0.000000
      8          1           0       -0.000000   -0.647588   -0.000000
      9          1           0        0.891540   -1.587075   -0.000000
     10          1           0        0.891540   -2.882250   -0.000000
     11          1           0       -0.000000   -1.942763   -0.000000
     12          1           0       -0.891540   -1.003276    0.000000
 ---------------------------------------------------------------------

 SCF Done:  E(RHF) =  -5.40212364439     A.U. after    9 cycles
 E2 =    -0.5610672617D+00 EUMP2 =    -0.59631909061060D+01

 The electronic state is 1-AG.
 Alpha  occ. eigenvalues --   -0.91581  -0.75100  -0.57408  -0.53527  -0.38070
 Alpha  occ. eigenvalues --    0.00973
 Alpha virt. eigenvalues --   -0.06545   0.04779   0.29679   0.32547   0.51712
 Alpha virt. eigenvalues --    0.59961

 Mulliken charges:
               1
     1  H    0.203668
     2  H   -0.050230
     3  H    0.001005
     4  H   -0.125674
     5  H   -0.171811
     6  H    0.143042
     7  H    0.001005
     8  H   -0.125674
     9  H    0.143042
    10  H   -0.171811
    11  H   -0.050230
    12  H    0.203668
 Sum of Mulliken charges =   0.00000

 Dipole moment (field-independent basis, Debye):
    X=             -0.0000    Y=              0.0000    Z=              0.0000  Tot=              0.0000
 Quadrupole moment (field-independent basis, Debye-Ang):
   XX=            -14.6135   YY=            -31.6274   ZZ=            -14.8467
   XY=              6.9594   XZ=              0.0000   YZ=             -0.0000

 Normal termination of Gaussian 09 at Fri Feb 17 14:55:46 2017.
