 Gaussian 09, Revision E.01,
 Gaussian 09:  ES64L-G09RevE.01 30-Nov-2015

 ----------------------------------------------------------------------
 #rhf/gen scf(symm,tight,novaracc,noincfock,fulldiag) stable(crhf) gues
 s=read geom=nocrowd test
 ----------------------------------------------------------------------

 hf stability analysis of h12 triangular lattice, y= 0.8596363675198261
 9
 ----------------------------------------------------------------------
 Symbolic Z-matrix:
 Charge =  0 Multiplicity = 1

                         Standard orientation:
 ---------------------------------------------------------------------
 Center     Atomic      Atomic             Coordinates (Angstroms)
 Number     Number       Type             X           Y           Z
 ---------------------------------------------------------------------
      1          1           0        1.058490    1.900252    0.000000
      2          1           0        0.000000    1.636341    0.000000
      3          1           0        1.058490    0.809358    0.000000
      4          1           0        0.000000    0.545447    0.000000
      5          1           0       -1.058490    1.372430    0.000000
      6          1           0       -1.058490    0.281536   -0.000000
      7          1           0       -1.058490   -0.809358   -0.000000
      8          1           0       -0.000000   -0.545447   -0.000000
      9          1           0        1.058490   -0.281536   -0.000000
     10          1           0        1.058490   -1.372430   -0.000000
     11          1           0       -0.000000   -1.636341   -0.000000
     12          1           0       -1.058490   -1.900252   -0.000000
 ---------------------------------------------------------------------

 SCF Done:  E(RHF) =  -5.05437611142     A.U. after   11 cycles
 E2 =    -0.1678317416D+00 EUMP2 =    -0.52222078530102D+01

 The electronic state is 1-AG.
 Alpha  occ. eigenvalues --   -0.90655  -0.73314  -0.60162  -0.50183  -0.19166
 Alpha  occ. eigenvalues --   -0.07526
 Alpha virt. eigenvalues --   -0.21246   0.07703   0.28842   0.39836   0.59908
 Alpha virt. eigenvalues --    0.88912

 Mulliken charges:
               1
     1  H   -0.210858
     2  H   -0.008974
     3  H    0.223354
     4  H   -0.085182
     5  H    0.271432
     6  H   -0.189772
     7  H    0.223354
     8  H   -0.085182
     9  H   -0.189772
    10  H    0.271432
    11  H   -0.008974
    12  H   -0.210858
 Sum of Mulliken charges =  -0.00000

 Dipole moment (field-independent basis, Debye):
    X=             -0.0000    Y=             -0.0000    Z=             -0.0000  Tot=              0.0000
 Quadrupole moment (field-independent basis, Debye-Ang):
   XX=            -13.1762   YY=            -24.8855   ZZ=            -14.5131
   XY=             -5.8241   XZ=             -0.0000   YZ=             -0.0000

 Normal termination of Gaussian 09 at Fri Feb 17 15:02:06 2017.
