 Gaussian 09, Revision E.01,
 Gaussian 09:  ES64L-G09RevE.01 30-Nov-2015

 ----------------------------------------------------------------------
 #rhf/gen scf(symm,tight,novaracc,noincfock,fulldiag) stable(crhf) gues
 s=read geom=nocrowd test
 ----------------------------------------------------------------------

 hf stability analysis of h12 triangular lattice, y= 0.4331194750473593
 1
 ----------------------------------------------------------------------
 Symbolic Z-matrix:
 Charge =  0 Multiplicity = 1

                         Standard orientation:
 ---------------------------------------------------------------------
 Center     Atomic      Atomic             Coordinates (Angstroms)
 Number     Number       Type             X           Y           Z
 ---------------------------------------------------------------------
      1          1           0        0.823842    0.968485   -0.000000
      2          1           0        0.000000    2.102406   -0.000000
      3          1           0        0.823842   -0.433119    0.000000
      4          1           0        0.000000    0.700802   -0.000000
      5          1           0       -0.823842    3.236328   -0.000000
      6          1           0       -0.823842    1.834723   -0.000000
      7          1           0       -0.823842    0.433119    0.000000
      8          1           0       -0.000000   -0.700802   -0.000000
      9          1           0        0.823842   -1.834723   -0.000000
     10          1           0        0.823842   -3.236328   -0.000000
     11          1           0       -0.000000   -2.102406   -0.000000
     12          1           0       -0.823842   -0.968485   -0.000000
 ---------------------------------------------------------------------

 SCF Done:  E(RHF) =  -5.63437501478     A.U. after    8 cycles
 E2 =    -0.6210551993D+00 EUMP2 =    -0.62554302140714D+01

 The electronic state is 1-AG.
 Alpha  occ. eigenvalues --   -0.90092  -0.75627  -0.60126  -0.50085  -0.43473
 Alpha  occ. eigenvalues --   -0.07996
 Alpha virt. eigenvalues --   -0.03391  -0.01403   0.36111   0.40102   0.53021
 Alpha virt. eigenvalues --    0.72788

 Mulliken charges:
               1
     1  H    0.170844
     2  H   -0.008339
     3  H    0.030721
     4  H   -0.153878
     5  H   -0.116588
     6  H    0.077241
     7  H    0.030721
     8  H   -0.153878
     9  H    0.077241
    10  H   -0.116588
    11  H   -0.008339
    12  H    0.170844
 Sum of Mulliken charges =   0.00000

 Dipole moment (field-independent basis, Debye):
    X=              0.0000    Y=             -0.0000    Z=              0.0000  Tot=              0.0000
 Quadrupole moment (field-independent basis, Debye-Ang):
   XX=            -14.9108   YY=            -29.5713   ZZ=            -15.0320
   XY=              5.2229   XZ=             -0.0000   YZ=              0.0000

 Normal termination of Gaussian 09 at Fri Feb 17 14:54:58 2017.
