 Gaussian 09, Revision E.01,
 Gaussian 09:  ES64L-G09RevE.01 30-Nov-2015

 ----------------------------------------------------------------------
 #rhf/gen scf(symm,tight,novaracc,noincfock,fulldiag) stable(crhf) gues
 s=read geom=nocrowd test
 ----------------------------------------------------------------------

 hf stability analysis of h12 triangular lattice, y= 0.3350007865764852
 4
 ----------------------------------------------------------------------
 Symbolic Z-matrix:
 Charge =  0 Multiplicity = 1

                         Standard orientation:
 ---------------------------------------------------------------------
 Center     Atomic      Atomic             Coordinates (Angstroms)
 Number     Number       Type             X           Y           Z
 ---------------------------------------------------------------------
      1          1           0        0.657692    1.005686    0.000000
      2          1           0        0.000000    2.633530    0.000000
      3          1           0        0.657692   -0.750001   -0.000000
      4          1           0        0.000000    0.877843    0.000000
      5          1           0       -0.657692    4.261374    0.000000
      6          1           0       -0.657692    2.505687    0.000000
      7          1           0       -0.657692    0.750001    0.000000
      8          1           0       -0.000000   -0.877843    0.000000
      9          1           0        0.657692   -2.505687    0.000000
     10          1           0        0.657692   -4.261374    0.000000
     11          1           0       -0.000000   -2.633530    0.000000
     12          1           0       -0.657692   -1.005686    0.000000
 ---------------------------------------------------------------------

 SCF Done:  E(RHF) =  -5.61926815932     A.U. after    7 cycles
 E2 =    -0.7283236966D+00 EUMP2 =    -0.63475918559646D+01

 The electronic state is 1-AG.
 Alpha  occ. eigenvalues --   -0.88694  -0.78970  -0.66050  -0.63393  -0.34373
 Alpha  occ. eigenvalues --   -0.18278
 Alpha virt. eigenvalues --   -0.12210   0.03311   0.47273   0.49589   0.84995
 Alpha virt. eigenvalues --    1.06095

 Mulliken charges:
               1
     1  H    0.163597
     2  H   -0.006807
     3  H    0.124229
     4  H   -0.271612
     5  H   -0.019564
     6  H    0.010159
     7  H    0.124229
     8  H   -0.271612
     9  H    0.010159
    10  H   -0.019564
    11  H   -0.006807
    12  H    0.163597
 Sum of Mulliken charges =   0.00000

 Dipole moment (field-independent basis, Debye):
    X=             -0.0000    Y=              0.0000    Z=             -0.0000  Tot=              0.0000
 Quadrupole moment (field-independent basis, Debye-Ang):
   XX=            -15.8563   YY=            -22.0808   ZZ=            -15.3845
   XY=              1.6302   XZ=              0.0000   YZ=             -0.0000

 Normal termination of Gaussian 09 at Fri Feb 17 12:04:47 2017.
