 Gaussian 09, Revision E.01,
 Gaussian 09:  ES64L-G09RevE.01 30-Nov-2015

 ----------------------------------------------------------------------
 #rhf/gen scf(symm,tight,novaracc,noincfock,fulldiag) stable(crhf) gues
 s=read geom=nocrowd test
 ----------------------------------------------------------------------

 hf stability analysis of h12 triangular lattice, y= 0.5918992783615676
 4
 ----------------------------------------------------------------------
 Symbolic Z-matrix:
 Charge =  0 Multiplicity = 1

                         Standard orientation:
 ---------------------------------------------------------------------
 Center     Atomic      Atomic             Coordinates (Angstroms)
 Number     Number       Type             X           Y           Z
 ---------------------------------------------------------------------
      1          1           0        1.012043    1.184603    0.000000
      2          1           0        0.000000    1.711439   -0.000000
      3          1           0        1.012043    0.043643    0.000000
      4          1           0        0.000000    0.570480   -0.000000
      5          1           0       -1.012043    2.238276   -0.000000
      6          1           0       -1.012043    1.097316   -0.000000
      7          1           0       -1.012043   -0.043643    0.000000
      8          1           0       -0.000000   -0.570480   -0.000000
      9          1           0        1.012043   -1.097316   -0.000000
     10          1           0        1.012043   -2.238276   -0.000000
     11          1           0       -0.000000   -1.711439   -0.000000
     12          1           0       -1.012043   -1.184603   -0.000000
 ---------------------------------------------------------------------

 SCF Done:  E(RHF) =  -5.14862361018     A.U. after   10 cycles
 E2 =    -0.1720413781D+00 EUMP2 =    -0.53206649882350D+01

 The electronic state is 1-AG.
 Alpha  occ. eigenvalues --   -0.92348  -0.73647  -0.59794  -0.52335  -0.24384
 Alpha  occ. eigenvalues --   -0.00666
 Alpha virt. eigenvalues --   -0.16968   0.10361   0.29835   0.34987   0.56755
 Alpha virt. eigenvalues --    0.62910

 Mulliken charges:
               1
     1  H    0.374639
     2  H   -0.133030
     3  H   -0.136032
     4  H   -0.051031
     5  H   -0.144801
     6  H    0.090254
     7  H   -0.136032
     8  H   -0.051031
     9  H    0.090254
    10  H   -0.144801
    11  H   -0.133030
    12  H    0.374639
 Sum of Mulliken charges =  -0.00000

 Dipole moment (field-independent basis, Debye):
    X=             -0.0000    Y=              0.0000    Z=              0.0000  Tot=              0.0000
 Quadrupole moment (field-independent basis, Debye-Ang):
   XX=            -14.1891   YY=            -26.1460   ZZ=            -14.7002
   XY=              7.3330   XZ=              0.0000   YZ=             -0.0000

 Normal termination of Gaussian 09 at Fri Feb 17 14:57:44 2017.
