 Gaussian 09, Revision E.01,
 Gaussian 09:  ES64L-G09RevE.01 30-Nov-2015

 ----------------------------------------------------------------------
 #rhf/gen scf(symm,tight,novaracc,noincfock,fulldiag) stable(crhf) gues
 s=read geom=nocrowd test
 ----------------------------------------------------------------------

 hf stability analysis of h12 triangular lattice, y= 0.6446958471815459
 3
 ----------------------------------------------------------------------
 Symbolic Z-matrix:
 Charge =  0 Multiplicity = 1

                         Standard orientation:
 ---------------------------------------------------------------------
 Center     Atomic      Atomic             Coordinates (Angstroms)
 Number     Number       Type             X           Y           Z
 ---------------------------------------------------------------------
      1          1           0        1.046437    1.305056    0.000000
      2          1           0        0.000000    1.655189    0.000000
      3          1           0        1.046437    0.201597    0.000000
      4          1           0        0.000000    0.551730    0.000000
      5          1           0       -1.046437    2.005322   -0.000000
      6          1           0       -1.046437    0.901863   -0.000000
      7          1           0       -1.046437   -0.201597   -0.000000
      8          1           0       -0.000000   -0.551730    0.000000
      9          1           0        1.046437   -0.901863    0.000000
     10          1           0        1.046437   -2.005322    0.000000
     11          1           0       -0.000000   -1.655189    0.000000
     12          1           0       -1.046437   -1.305056   -0.000000
 ---------------------------------------------------------------------

 SCF Done:  E(RHF) =  -5.07987528074     A.U. after   11 cycles
 E2 =    -0.2716934038D+00 EUMP2 =    -0.53515686845302D+01

 The electronic state is 1-AG.
 Alpha  occ. eigenvalues --   -0.91074  -0.73679  -0.60016  -0.50829  -0.20568
 Alpha  occ. eigenvalues --   -0.05276
 Alpha virt. eigenvalues --   -0.20246   0.08400   0.29900   0.36499   0.59579
 Alpha virt. eigenvalues --    0.80979

 Mulliken charges:
               1
     1  H    0.330401
     2  H   -0.035630
     3  H   -0.209252
     4  H   -0.069972
     5  H   -0.216484
     6  H    0.200937
     7  H   -0.209252
     8  H   -0.069972
     9  H    0.200937
    10  H   -0.216484
    11  H   -0.035630
    12  H    0.330401
 Sum of Mulliken charges =   0.00000

 Dipole moment (field-independent basis, Debye):
    X=              0.0000    Y=             -0.0000    Z=              0.0000  Tot=              0.0000
 Quadrupole moment (field-independent basis, Debye-Ang):
   XX=            -13.6178   YY=            -25.3141   ZZ=            -14.5703
   XY=              7.0119   XZ=             -0.0000   YZ=              0.0000

 Normal termination of Gaussian 09 at Fri Feb 17 14:58:40 2017.
