 Gaussian 09, Revision E.01,
 Gaussian 09:  ES64L-G09RevE.01 30-Nov-2015

 ----------------------------------------------------------------------
 #rhf/gen scf(symm,tight,novaracc,noincfock,fulldiag) stable(crhf) gues
 s=read geom=nocrowd test
 ----------------------------------------------------------------------

 hf stability analysis of h12 triangular lattice, y= 0.4168485496705611
 2
 ----------------------------------------------------------------------
 Symbolic Z-matrix:
 Charge =  0 Multiplicity = 1

                         Standard orientation:
 ---------------------------------------------------------------------
 Center     Atomic      Atomic             Coordinates (Angstroms)
 Number     Number       Type             X           Y           Z
 ---------------------------------------------------------------------
      1          1           0        0.798324    0.963471   -0.000000
      2          1           0        0.000000    2.169608    0.000000
      3          1           0        0.798324   -0.482934   -0.000000
      4          1           0        0.000000    0.723203    0.000000
      5          1           0       -0.798324    3.375744    0.000000
      6          1           0       -0.798324    1.929339    0.000000
      7          1           0       -0.798324    0.482934    0.000000
      8          1           0       -0.000000   -0.723203   -0.000000
      9          1           0        0.798324   -1.929339   -0.000000
     10          1           0        0.798324   -3.375744   -0.000000
     11          1           0       -0.000000   -2.169608   -0.000000
     12          1           0       -0.798324   -0.963471   -0.000000
 ---------------------------------------------------------------------

 SCF Done:  E(RHF) =  -5.68605499524     A.U. after    8 cycles
 E2 =    -0.6097116206D+00 EUMP2 =    -0.62957666158300D+01

 The electronic state is 1-AG.
 Alpha  occ. eigenvalues --   -0.89652  -0.75814  -0.61062  -0.50840  -0.43550
 Alpha  occ. eigenvalues --   -0.10482
 Alpha virt. eigenvalues --   -0.04490  -0.01136   0.37645   0.42783   0.55396
 Alpha virt. eigenvalues --    0.77641

 Mulliken charges:
               1
     1  H    0.163253
     2  H   -0.005825
     3  H    0.043118
     4  H   -0.165645
     5  H   -0.096027
     6  H    0.061126
     7  H    0.043118
     8  H   -0.165645
     9  H    0.061126
    10  H   -0.096027
    11  H   -0.005825
    12  H    0.163253
 Sum of Mulliken charges =   0.00000

 Dipole moment (field-independent basis, Debye):
    X=              0.0000    Y=              0.0000    Z=              0.0000  Tot=              0.0000
 Quadrupole moment (field-independent basis, Debye-Ang):
   XX=            -15.0346   YY=            -28.5322   ZZ=            -15.0964
   XY=              4.5322   XZ=              0.0000   YZ=             -0.0000

 Normal termination of Gaussian 09 at Fri Feb 17 14:54:43 2017.
