 Gaussian 09, Revision E.01,
 Gaussian 09:  ES64L-G09RevE.01 30-Nov-2015

 ----------------------------------------------------------------------
 #rhf/gen scf(symm,tight,novaracc,noincfock,fulldiag) stable(crhf) gues
 s=read geom=nocrowd test
 ----------------------------------------------------------------------

 ----------------------------------------------------------------------
 hf stability analysis of h12 triangular lattice, y= 2.5688804782633659
 ----------------------------------------------------------------------
 Symbolic Z-matrix:
 Charge =  0 Multiplicity = 1

                         Standard orientation:
 ---------------------------------------------------------------------
 Center     Atomic      Atomic             Coordinates (Angstroms)
 Number     Number       Type             X           Y           Z
 ---------------------------------------------------------------------
      1          1           0        0.447785    6.407557   -0.000000
      2          1           0        0.000000    3.868040    0.000000
      3          1           0        0.447785    3.828864   -0.000000
      4          1           0        0.000000    1.289347    0.000000
      5          1           0       -0.447785    1.328523    0.000000
      6          1           0       -0.447785   -1.250170    0.000000
      7          1           0       -0.447785   -3.828864    0.000000
      8          1           0       -0.000000   -1.289347    0.000000
      9          1           0        0.447785    1.250170   -0.000000
     10          1           0        0.447785   -1.328523    0.000000
     11          1           0       -0.000000   -3.868040    0.000000
     12          1           0       -0.447785   -6.407557    0.000000
 ---------------------------------------------------------------------

 SCF Done:  E(RHF) =  -4.09144969094     A.U. after    7 cycles
 E2 =    -0.1154607258D+01 EUMP2 =    -0.52460569488185D+01

 The electronic state is 1-AG.
 Alpha  occ. eigenvalues --   -0.95913  -0.95796  -0.73558  -0.73551  -0.20612
 Alpha  occ. eigenvalues --   -0.16659
 Alpha virt. eigenvalues --   -0.16494   0.06975   0.66535   0.66620   1.61839
 Alpha virt. eigenvalues --    1.71013

 Mulliken charges:
               1
     1  H    0.001272
     2  H   -0.001979
     3  H   -0.001170
     4  H   -0.768665
     5  H    0.383379
     6  H    0.387163
     7  H   -0.001170
     8  H   -0.768665
     9  H    0.387163
    10  H    0.383379
    11  H   -0.001979
    12  H    0.001272
 Sum of Mulliken charges =   0.00000

 Dipole moment (field-independent basis, Debye):
    X=             -0.0000    Y=             -0.0000    Z=              0.0000  Tot=              0.0000
 Quadrupole moment (field-independent basis, Debye-Ang):
   XX=            -16.8416   YY=            -16.0079   ZZ=            -15.4987
   XY=             -0.0597   XZ=              0.0000   YZ=              0.0000

 Normal termination of Gaussian 09 at Fri Feb 17 12:07:51 2017.
