 Gaussian 09, Revision E.01,
 Gaussian 09:  ES64L-G09RevE.01 30-Nov-2015

 ----------------------------------------------------------------------
 #rhf/gen scf(symm,tight,novaracc,noincfock,fulldiag) stable(crhf) gues
 s=read geom=nocrowd test
 ----------------------------------------------------------------------

 ----------------------------------------------------------------------
 hf stability analysis of h12 triangular lattice, y= 1.8330252138232914
 ----------------------------------------------------------------------
 Symbolic Z-matrix:
 Charge =  0 Multiplicity = 1

                         Standard orientation:
 ---------------------------------------------------------------------
 Center     Atomic      Atomic             Coordinates (Angstroms)
 Number     Number       Type             X           Y           Z
 ---------------------------------------------------------------------
      1          1           0        0.620844    4.543043    0.000000
      2          1           0        0.000000    2.789834    0.000000
      3          1           0        0.620844    2.683154    0.000000
      4          1           0        0.000000    0.929945    0.000000
      5          1           0       -0.620844    1.036625    0.000000
      6          1           0       -0.620844   -0.823264    0.000000
      7          1           0       -0.620844   -2.683154   -0.000000
      8          1           0       -0.000000   -0.929945   -0.000000
      9          1           0        0.620844    0.823264    0.000000
     10          1           0        0.620844   -1.036625   -0.000000
     11          1           0       -0.000000   -2.789834   -0.000000
     12          1           0       -0.620844   -4.543043   -0.000000
 ---------------------------------------------------------------------

 SCF Done:  E(RHF) =  -5.49543898077     A.U. after    6 cycles
 E2 =    -0.7834550794D+00 EUMP2 =    -0.62788940601926D+01

 The electronic state is 1-AG.
 Alpha  occ. eigenvalues --   -0.89053  -0.80984  -0.67356  -0.66021  -0.31573
 Alpha  occ. eigenvalues --   -0.19217
 Alpha virt. eigenvalues --   -0.13466   0.03971   0.50127   0.51659   0.95288
 Alpha virt. eigenvalues --    1.14598

 Mulliken charges:
               1
     1  H   -0.010005
     2  H   -0.006757
     3  H    0.004466
     4  H   -0.318992
     5  H    0.178447
     6  H    0.152841
     7  H    0.004466
     8  H   -0.318992
     9  H    0.152841
    10  H    0.178447
    11  H   -0.006757
    12  H   -0.010005
 Sum of Mulliken charges =  -0.00000

 Dipole moment (field-independent basis, Debye):
    X=             -0.0000    Y=             -0.0000    Z=              0.0000  Tot=              0.0000
 Quadrupole moment (field-independent basis, Debye-Ang):
   XX=            -16.0767   YY=            -20.5500   ZZ=            -15.4390
   XY=             -1.1501   XZ=             -0.0000   YZ=             -0.0000

 Normal termination of Gaussian 09 at Fri Feb 17 15:07:51 2017.
