 Gaussian 09, Revision E.01,
 Gaussian 09:  ES64L-G09RevE.01 30-Nov-2015

 ----------------------------------------------------------------------
 #rhf/gen scf(symm,tight,novaracc,noincfock,fulldiag) stable(crhf) gues
 s=read geom=nocrowd test
 ----------------------------------------------------------------------

 ----------------------------------------------------------------------
 hf stability analysis of h12 triangular lattice, y= 1.0702532558662603
 ----------------------------------------------------------------------
 Symbolic Z-matrix:
 Charge =  0 Multiplicity = 1

                         Standard orientation:
 ---------------------------------------------------------------------
 Center     Atomic      Atomic             Coordinates (Angstroms)
 Number     Number       Type             X           Y           Z
 ---------------------------------------------------------------------
      1          1           0        0.963439    2.510687    0.000000
      2          1           0        0.000000    1.797780    0.000000
      3          1           0        0.963439    1.312167    0.000000
      4          1           0        0.000000    0.599260    0.000000
      5          1           0       -0.963439    1.084873   -0.000000
      6          1           0       -0.963439   -0.113647   -0.000000
      7          1           0       -0.963439   -1.312167    0.000000
      8          1           0       -0.000000   -0.599260    0.000000
      9          1           0        0.963439    0.113647   -0.000000
     10          1           0        0.963439   -1.084873   -0.000000
     11          1           0       -0.000000   -1.797780    0.000000
     12          1           0       -0.963439   -2.510687    0.000000
 ---------------------------------------------------------------------

 SCF Done:  E(RHF) =  -5.21233508028     A.U. after   11 cycles
 E2 =    -0.1754979737D+00 EUMP2 =    -0.53878330540054D+01

 The electronic state is 1-AG.
 Alpha  occ. eigenvalues --   -0.92654  -0.72873  -0.58030  -0.53732  -0.29865
 Alpha  occ. eigenvalues --    0.04253
 Alpha virt. eigenvalues --   -0.12382   0.14781   0.23461   0.40170   0.48740
 Alpha virt. eigenvalues --    0.52616

 Mulliken charges:
               1
     1  H   -0.036081
     2  H   -0.223835
     3  H    0.026334
     4  H   -0.071926
     5  H    0.339753
     6  H   -0.034245
     7  H    0.026334
     8  H   -0.071926
     9  H   -0.034245
    10  H    0.339753
    11  H   -0.223835
    12  H   -0.036081
 Sum of Mulliken charges =   0.00000

 Dipole moment (field-independent basis, Debye):
    X=              0.0000    Y=             -0.0000    Z=             -0.0000  Tot=              0.0000
 Quadrupole moment (field-independent basis, Debye-Ang):
   XX=            -14.4805   YY=            -25.2036   ZZ=            -14.8318
   XY=             -5.0215   XZ=             -0.0000   YZ=             -0.0000

 Normal termination of Gaussian 09 at Fri Feb 17 15:04:24 2017.
