 Gaussian 09, Revision E.01,
 Gaussian 09:  ES64L-G09RevE.01 30-Nov-2015

 ----------------------------------------------------------------------
 #rhf/gen scf(symm,tight,novaracc,noincfock,fulldiag) stable(crhf) gues
 s=read geom=nocrowd test
 ----------------------------------------------------------------------

 hf stability analysis of h12 triangular lattice, y= 0.4135443701547177
 3
 ----------------------------------------------------------------------
 Symbolic Z-matrix:
 Charge =  0 Multiplicity = 1

                         Standard orientation:
 ---------------------------------------------------------------------
 Center     Atomic      Atomic             Coordinates (Angstroms)
 Number     Number       Type             X           Y           Z
 ---------------------------------------------------------------------
      1          1           0        0.793029    0.962938    0.000000
      2          1           0       -0.000000    2.184095    0.000000
      3          1           0        0.793029   -0.493126   -0.000000
      4          1           0       -0.000000    0.728032    0.000000
      5          1           0       -0.793029    3.405253    0.000000
      6          1           0       -0.793029    1.949189    0.000000
      7          1           0       -0.793029    0.493126   -0.000000
      8          1           0       -0.000000   -0.728032    0.000000
      9          1           0        0.793029   -1.949189    0.000000
     10          1           0        0.793029   -3.405253    0.000000
     11          1           0       -0.000000   -2.184095    0.000000
     12          1           0       -0.793029   -0.962938   -0.000000
 ---------------------------------------------------------------------

 SCF Done:  E(RHF) =  -5.69435690130     A.U. after    7 cycles
 E2 =    -0.6096757523D+00 EUMP2 =    -0.63040326535859D+01

 The electronic state is 1-AG.
 Alpha  occ. eigenvalues --   -0.89568  -0.75859  -0.61253  -0.51180  -0.43385
 Alpha  occ. eigenvalues --   -0.10946
 Alpha virt. eigenvalues --   -0.04845  -0.00940   0.37972   0.43213   0.56068
 Alpha virt. eigenvalues --    0.78653

 Mulliken charges:
               1
     1  H    0.161941
     2  H   -0.005564
     3  H    0.045729
     4  H   -0.168252
     5  H   -0.091984
     6  H    0.058130
     7  H    0.045729
     8  H   -0.168252
     9  H    0.058130
    10  H   -0.091984
    11  H   -0.005564
    12  H    0.161941
 Sum of Mulliken charges =  -0.00000

 Dipole moment (field-independent basis, Debye):
    X=              0.0000    Y=             -0.0000    Z=             -0.0000  Tot=              0.0000
 Quadrupole moment (field-independent basis, Debye-Ang):
   XX=            -15.0618   YY=            -28.3052   ZZ=            -15.1093
   XY=              4.3936   XZ=              0.0000   YZ=              0.0000

 Normal termination of Gaussian 09 at Fri Feb 17 14:54:40 2017.
