 Gaussian 09, Revision E.01,
 Gaussian 09:  ES64L-G09RevE.01 30-Nov-2015

 ----------------------------------------------------------------------
 #rhf/gen scf(symm,tight,novaracc,noincfock,fulldiag) stable(crhf) gues
 s=read geom=nocrowd test
 ----------------------------------------------------------------------

 hf stability analysis of h12 triangular lattice, y= 0.3503135618487248
 1
 ----------------------------------------------------------------------
 Symbolic Z-matrix:
 Charge =  0 Multiplicity = 1

                         Standard orientation:
 ---------------------------------------------------------------------
 Center     Atomic      Atomic             Coordinates (Angstroms)
 Number     Number       Type             X           Y           Z
 ---------------------------------------------------------------------
      1          1           0        0.685317    0.988126    0.000000
      2          1           0        0.000000    2.527373   -0.000000
      3          1           0        0.685317   -0.696789    0.000000
      4          1           0        0.000000    0.842458   -0.000000
      5          1           0       -0.685317    4.066619   -0.000000
      6          1           0       -0.685317    2.381704   -0.000000
      7          1           0       -0.685317    0.696789    0.000000
      8          1           0       -0.000000   -0.842458    0.000000
      9          1           0        0.685317   -2.381704   -0.000000
     10          1           0        0.685317   -4.066619   -0.000000
     11          1           0       -0.000000   -2.527373    0.000000
     12          1           0       -0.685317   -0.988126    0.000000
 ---------------------------------------------------------------------

 SCF Done:  E(RHF) =  -5.68121122683     A.U. after    7 cycles
 E2 =    -0.6917478408D+00 EUMP2 =    -0.63729590675963D+01

 The electronic state is 1-AG.
 Alpha  occ. eigenvalues --   -0.88623  -0.77867  -0.65072  -0.61072  -0.36427
 Alpha  occ. eigenvalues --   -0.17341
 Alpha virt. eigenvalues --   -0.11071   0.02691   0.45230   0.48267   0.77893
 Alpha virt. eigenvalues --    1.00115

 Mulliken charges:
               1
     1  H    0.157050
     2  H   -0.006475
     3  H    0.105432
     4  H   -0.242791
     5  H   -0.029404
     6  H    0.016188
     7  H    0.105432
     8  H   -0.242791
     9  H    0.016188
    10  H   -0.029404
    11  H   -0.006475
    12  H    0.157050
 Sum of Mulliken charges =  -0.00000

 Dipole moment (field-independent basis, Debye):
    X=              0.0000    Y=              0.0000    Z=              0.0000  Tot=              0.0000
 Quadrupole moment (field-independent basis, Debye-Ang):
   XX=            -15.6871   YY=            -23.3214   ZZ=            -15.3372
   XY=              2.0648   XZ=             -0.0000   YZ=              0.0000

 Normal termination of Gaussian 09 at Fri Feb 17 12:04:49 2017.
