 Gaussian 09, Revision E.01,
 Gaussian 09:  ES64L-G09RevE.01 30-Nov-2015

 ----------------------------------------------------------------------
 #rhf/gen scf(symm,tight,novaracc,noincfock,fulldiag) stable(crhf) gues
 s=read geom=nocrowd test
 ----------------------------------------------------------------------

 ----------------------------------------------------------------------
 hf stability analysis of h12 triangular lattice, y= 2.0941375407372735
 ----------------------------------------------------------------------
 Symbolic Z-matrix:
 Charge =  0 Multiplicity = 1

                         Standard orientation:
 ---------------------------------------------------------------------
 Center     Atomic      Atomic             Coordinates (Angstroms)
 Number     Number       Type             X           Y           Z
 ---------------------------------------------------------------------
      1          1           0        0.546680    5.208548    0.000000
      2          1           0       -0.000000    3.168312    0.000000
      3          1           0        0.546680    3.096340    0.000000
      4          1           0       -0.000000    1.056104    0.000000
      5          1           0       -0.546680    1.128076    0.000000
      6          1           0       -0.546680   -0.984132    0.000000
      7          1           0       -0.546680   -3.096340   -0.000000
      8          1           0        0.000000   -1.056104   -0.000000
      9          1           0        0.546680    0.984132    0.000000
     10          1           0        0.546680   -1.128076   -0.000000
     11          1           0        0.000000   -3.168312   -0.000000
     12          1           0       -0.546680   -5.208548   -0.000000
 ---------------------------------------------------------------------

 SCF Done:  E(RHF) =  -5.08373665950     A.U. after    6 cycles
 E2 =    -0.9152416890D+00 EUMP2 =    -0.59989783485516D+01

 The electronic state is 1-AG.
 Alpha  occ. eigenvalues --   -0.90859  -0.86681  -0.69988  -0.69813  -0.25645
 Alpha  occ. eigenvalues --   -0.20283
 Alpha virt. eigenvalues --   -0.15231   0.05013   0.56435   0.56989   1.19392
 Alpha virt. eigenvalues --    1.34474

 Mulliken charges:
               1
     1  H   -0.000478
     2  H   -0.005122
     3  H   -0.000814
     4  H   -0.455390
     5  H    0.234119
     6  H    0.227685
     7  H   -0.000814
     8  H   -0.455390
     9  H    0.227685
    10  H    0.234119
    11  H   -0.005122
    12  H   -0.000478
 Sum of Mulliken charges =  -0.00000

 Dipole moment (field-independent basis, Debye):
    X=              0.0000    Y=              0.0000    Z=              0.0000  Tot=              0.0000
 Quadrupole moment (field-independent basis, Debye-Ang):
   XX=            -16.4738   YY=            -18.0479   ZZ=            -15.5110
   XY=             -0.4850   XZ=             -0.0000   YZ=             -0.0000

 Normal termination of Gaussian 09 at Fri Feb 17 15:08:17 2017.
