 Gaussian 09, Revision E.01,
 Gaussian 09:  ES64L-G09RevE.01 30-Nov-2015

 ----------------------------------------------------------------------
 #rhf/gen scf(symm,tight,novaracc,noincfock,fulldiag) stable(crhf) gues
 s=read geom=nocrowd test
 ----------------------------------------------------------------------

 hf stability analysis of h12 triangular lattice, y= 0.5188669005588153
 5
 ----------------------------------------------------------------------
 Symbolic Z-matrix:
 Charge =  0 Multiplicity = 1

                         Standard orientation:
 ---------------------------------------------------------------------
 Center     Atomic      Atomic             Coordinates (Angstroms)
 Number     Number       Type             X           Y           Z
 ---------------------------------------------------------------------
      1          1           0        0.940506    1.052437   -0.000000
      2          1           0        0.000000    1.841615    0.000000
      3          1           0        0.940506   -0.175307   -0.000000
      4          1           0        0.000000    0.613872    0.000000
      5          1           0       -0.940506    2.630794    0.000000
      6          1           0       -0.940506    1.403050    0.000000
      7          1           0       -0.940506    0.175307   -0.000000
      8          1           0       -0.000000   -0.613872    0.000000
      9          1           0        0.940506   -1.403050    0.000000
     10          1           0        0.940506   -2.630794    0.000000
     11          1           0       -0.000000   -1.841615    0.000000
     12          1           0       -0.940506   -1.052437   -0.000000
 ---------------------------------------------------------------------

 SCF Done:  E(RHF) =  -5.23035033839     A.U. after   14 cycles
 E2 =    -0.1315678407D+01 EUMP2 =    -0.65460287457088D+01

 The electronic state is 1-AG.
 Alpha  occ. eigenvalues --   -0.92359  -0.72492  -0.56843  -0.54223  -0.32261
 Alpha  occ. eigenvalues --    0.06265
 Alpha virt. eigenvalues --   -0.10226   0.15418   0.22818   0.35807   0.51048
 Alpha virt. eigenvalues --    0.51140

 Mulliken charges:
               1
     1  H    0.317577
     2  H   -0.281184
     3  H   -0.002147
     4  H   -0.089273
     5  H    0.000640
     6  H    0.054387
     7  H   -0.002147
     8  H   -0.089273
     9  H    0.054387
    10  H    0.000640
    11  H   -0.281184
    12  H    0.317577
 Sum of Mulliken charges =  -0.00000

 Dipole moment (field-independent basis, Debye):
    X=             -0.0000    Y=             -0.0000    Z=             -0.0000  Tot=              0.0000
 Quadrupole moment (field-independent basis, Debye-Ang):
   XX=            -14.3401   YY=            -24.6728   ZZ=            -14.8736
   XY=              3.6020   XZ=              0.0000   YZ=             -0.0000

 Normal termination of Gaussian 09 at Fri Feb 17 12:05:24 2017.
