 Gaussian 09, Revision E.01,
 Gaussian 09:  ES64L-G09RevE.01 30-Nov-2015

 ----------------------------------------------------------------------
 #rhf/gen scf(symm,tight,novaracc,noincfock,fulldiag) stable(crhf) gues
 s=read geom=nocrowd test
 ----------------------------------------------------------------------

 ----------------------------------------------------------------------
 hf stability analysis of h12 triangular lattice, y= 1.0587704668665670
 ----------------------------------------------------------------------
 Symbolic Z-matrix:
 Charge =  0 Multiplicity = 1

                         Standard orientation:
 ---------------------------------------------------------------------
 Center     Atomic      Atomic             Coordinates (Angstroms)
 Number     Number       Type             X           Y           Z
 ---------------------------------------------------------------------
      1          1           0        0.969567    2.478003   -0.000000
      2          1           0        0.000000    1.786417   -0.000000
      3          1           0        0.969567    1.287058   -0.000000
      4          1           0        0.000000    0.595472   -0.000000
      5          1           0       -0.969567    1.094832   -0.000000
      6          1           0       -0.969567   -0.096113   -0.000000
      7          1           0       -0.969567   -1.287058   -0.000000
      8          1           0       -0.000000   -0.595472   -0.000000
      9          1           0        0.969567    0.096113   -0.000000
     10          1           0        0.969567   -1.094832   -0.000000
     11          1           0       -0.000000   -1.786417   -0.000000
     12          1           0       -0.969567   -2.478003   -0.000000
 ---------------------------------------------------------------------

 SCF Done:  E(RHF) =  -5.20657520231     A.U. after   11 cycles
 E2 =    -0.1671247724D+00 EUMP2 =    -0.53736999746964D+01

 The electronic state is 1-AG.
 Alpha  occ. eigenvalues --   -0.92708  -0.72983  -0.58337  -0.53588  -0.29204
 Alpha  occ. eigenvalues --    0.03696
 Alpha virt. eigenvalues --   -0.12947   0.14241   0.24042   0.40462   0.49189
 Alpha virt. eigenvalues --    0.53073

 Mulliken charges:
               1
     1  H   -0.048297
     2  H   -0.212741
     3  H    0.027332
     4  H   -0.068007
     5  H    0.345724
     6  H   -0.044011
     7  H    0.027332
     8  H   -0.068007
     9  H   -0.044011
    10  H    0.345724
    11  H   -0.212741
    12  H   -0.048297
 Sum of Mulliken charges =  -0.00000

 Dipole moment (field-independent basis, Debye):
    X=             -0.0000    Y=             -0.0000    Z=             -0.0000  Tot=              0.0000
 Quadrupole moment (field-independent basis, Debye-Ang):
   XX=            -14.4709   YY=            -25.4190   ZZ=            -14.8179
   XY=             -5.3847   XZ=              0.0000   YZ=              0.0000

 Normal termination of Gaussian 09 at Fri Feb 17 15:04:18 2017.
