 Gaussian 09, Revision E.01,
 Gaussian 09:  ES64L-G09RevE.01 30-Nov-2015

 ----------------------------------------------------------------------
 #rhf/gen scf(symm,tight,novaracc,noincfock,fulldiag) stable(crhf) gues
 s=read geom=nocrowd test
 ----------------------------------------------------------------------

 hf stability analysis of h12 triangular lattice, y= 0.3650915174764740
 0
 ----------------------------------------------------------------------
 Symbolic Z-matrix:
 Charge =  0 Multiplicity = 1

                         Standard orientation:
 ---------------------------------------------------------------------
 Center     Atomic      Atomic             Coordinates (Angstroms)
 Number     Number       Type             X           Y           Z
 ---------------------------------------------------------------------
      1          1           0        0.711468    0.975746    0.000000
      2          1           0        0.000000    2.434473    0.000000
      3          1           0        0.711468   -0.647236    0.000000
      4          1           0        0.000000    0.811491    0.000000
      5          1           0       -0.711468    3.893200    0.000000
      6          1           0       -0.711468    2.270218    0.000000
      7          1           0       -0.711468    0.647236    0.000000
      8          1           0        0.000000   -0.811491    0.000000
      9          1           0        0.711468   -2.270218    0.000000
     10          1           0        0.711468   -3.893200    0.000000
     11          1           0        0.000000   -2.434473    0.000000
     12          1           0       -0.711468   -0.975746    0.000000
 ---------------------------------------------------------------------

 SCF Done:  E(RHF) =  -5.71697779429     A.U. after    7 cycles
 E2 =    -0.6615894337D+00 EUMP2 =    -0.63785672279523D+01

 The electronic state is 1-AG.
 Alpha  occ. eigenvalues --   -0.88692  -0.77102  -0.64149  -0.58662  -0.38332
 Alpha  occ. eigenvalues --   -0.16232
 Alpha virt. eigenvalues --   -0.09822   0.01984   0.43366   0.47161   0.71637
 Alpha virt. eigenvalues --    0.94685

 Mulliken charges:
               1
     1  H    0.154070
     2  H   -0.005951
     3  H    0.089288
     4  H   -0.219871
     5  H   -0.041021
     6  H    0.023485
     7  H    0.089288
     8  H   -0.219871
     9  H    0.023485
    10  H   -0.041021
    11  H   -0.005951
    12  H    0.154070
 Sum of Mulliken charges =  -0.00000

 Dipole moment (field-independent basis, Debye):
    X=             -0.0000    Y=              0.0000    Z=              0.0000  Tot=              0.0000
 Quadrupole moment (field-independent basis, Debye-Ang):
   XX=            -15.5273   YY=            -24.5416   ZZ=            -15.2880
   XY=              2.5380   XZ=             -0.0000   YZ=              0.0000

 Normal termination of Gaussian 09 at Fri Feb 17 14:54:00 2017.
