 Gaussian 09, Revision E.01,
 Gaussian 09:  ES64L-G09RevE.01 30-Nov-2015

 ----------------------------------------------------------------------
 #rhf/gen scf(symm,tight,novaracc,noincfock,fulldiag) stable(crhf) gues
 s=read geom=nocrowd test
 ----------------------------------------------------------------------

 ----------------------------------------------------------------------
 hf stability analysis of h12 triangular lattice, y= 1.6137717412076256
 ----------------------------------------------------------------------
 Symbolic Z-matrix:
 Charge =  0 Multiplicity = 1

                         Standard orientation:
 ---------------------------------------------------------------------
 Center     Atomic      Atomic             Coordinates (Angstroms)
 Number     Number       Type             X           Y           Z
 ---------------------------------------------------------------------
      1          1           0        0.698568    3.977514   -0.000000
      2          1           0        0.000000    2.479430   -0.000000
      3          1           0        0.698568    2.324561   -0.000000
      4          1           0        0.000000    0.826477   -0.000000
      5          1           0       -0.698568    0.981346    0.000000
      6          1           0       -0.698568   -0.671608    0.000000
      7          1           0       -0.698568   -2.324561   -0.000000
      8          1           0       -0.000000   -0.826477   -0.000000
      9          1           0        0.698568    0.671608    0.000000
     10          1           0        0.698568   -0.981346   -0.000000
     11          1           0       -0.000000   -2.479430   -0.000000
     12          1           0       -0.698568   -3.977514   -0.000000
 ---------------------------------------------------------------------

 SCF Done:  E(RHF) =  -5.70204677385     A.U. after    7 cycles
 E2 =    -0.6758688469D+00 EUMP2 =    -0.63779156207274D+01

 The electronic state is 1-AG.
 Alpha  occ. eigenvalues --   -0.88643  -0.77449  -0.64604  -0.59871  -0.37398
 Alpha  occ. eigenvalues --   -0.16808
 Alpha virt. eigenvalues --   -0.10460   0.02348   0.44278   0.47692   0.74665
 Alpha virt. eigenvalues --    0.97339

 Mulliken charges:
               1
     1  H   -0.035004
     2  H   -0.006227
     3  H    0.019682
     4  H   -0.230693
     5  H    0.155168
     6  H    0.097073
     7  H    0.019682
     8  H   -0.230693
     9  H    0.097073
    10  H    0.155168
    11  H   -0.006227
    12  H   -0.035004
 Sum of Mulliken charges =  -0.00000

 Dipole moment (field-independent basis, Debye):
    X=              0.0000    Y=              0.0000    Z=              0.0000  Tot=              0.0000
 Quadrupole moment (field-independent basis, Debye-Ang):
   XX=            -15.6059   YY=            -23.9359   ZZ=            -15.3127
   XY=             -2.2970   XZ=             -0.0000   YZ=             -0.0000

 Normal termination of Gaussian 09 at Fri Feb 17 15:07:18 2017.
