 Gaussian 09, Revision E.01,
 Gaussian 09:  ES64L-G09RevE.01 30-Nov-2015

 ----------------------------------------------------------------------
 #rhf/gen scf(symm,tight,novaracc,noincfock,fulldiag) stable(crhf) gues
 s=read geom=nocrowd test
 ----------------------------------------------------------------------

 ----------------------------------------------------------------------
 hf stability analysis of h12 triangular lattice, y= 1.8574471710024862
 ----------------------------------------------------------------------
 Symbolic Z-matrix:
 Charge =  0 Multiplicity = 1

                         Standard orientation:
 ---------------------------------------------------------------------
 Center     Atomic      Atomic             Coordinates (Angstroms)
 Number     Number       Type             X           Y           Z
 ---------------------------------------------------------------------
      1          1           0        0.613134    4.605584    0.000000
      2          1           0        0.000000    2.824913    0.000000
      3          1           0        0.613134    2.722309    0.000000
      4          1           0        0.000000    0.941638    0.000000
      5          1           0       -0.613134    1.044241   -0.000000
      6          1           0       -0.613134   -0.839034   -0.000000
      7          1           0       -0.613134   -2.722309    0.000000
      8          1           0       -0.000000   -0.941638    0.000000
      9          1           0        0.613134    0.839034   -0.000000
     10          1           0        0.613134   -1.044241    0.000000
     11          1           0       -0.000000   -2.824913    0.000000
     12          1           0       -0.613134   -4.605584    0.000000
 ---------------------------------------------------------------------

 SCF Done:  E(RHF) =  -5.46320555500     A.U. after    6 cycles
 E2 =    -0.7958357726D+00 EUMP2 =    -0.62590413276217D+01

 The electronic state is 1-AG.
 Alpha  occ. eigenvalues --   -0.89171  -0.81484  -0.67630  -0.66500  -0.30977
 Alpha  occ. eigenvalues --   -0.19374
 Alpha virt. eigenvalues --   -0.13694   0.04091   0.50745   0.52140   0.97569
 Alpha virt. eigenvalues --    1.16471

 Mulliken charges:
               1
     1  H   -0.008469
     2  H   -0.006673
     3  H    0.003573
     4  H   -0.330396
     5  H    0.182529
     6  H    0.159437
     7  H    0.003573
     8  H   -0.330396
     9  H    0.159437
    10  H    0.182529
    11  H   -0.006673
    12  H   -0.008469
 Sum of Mulliken charges =   0.00000

 Dipole moment (field-independent basis, Debye):
    X=              0.0000    Y=             -0.0000    Z=             -0.0000  Tot=              0.0000
 Quadrupole moment (field-independent basis, Debye-Ang):
   XX=            -16.1214   YY=            -20.2518   ZZ=            -15.4490
   XY=             -1.0632   XZ=             -0.0000   YZ=             -0.0000

 Normal termination of Gaussian 09 at Fri Feb 17 15:07:54 2017.
