 Gaussian 09, Revision E.01,
 Gaussian 09:  ES64L-G09RevE.01 30-Nov-2015

 ----------------------------------------------------------------------
 #rhf/gen scf(symm,tight,novaracc,noincfock,fulldiag) stable(crhf) gues
 s=read geom=nocrowd test
 ----------------------------------------------------------------------

 hf stability analysis of h12 triangular lattice, y= 0.8914339662136427
 9
 ----------------------------------------------------------------------
 Symbolic Z-matrix:
 Charge =  0 Multiplicity = 1

                         Standard orientation:
 ---------------------------------------------------------------------
 Center     Atomic      Atomic             Coordinates (Angstroms)
 Number     Number       Type             X           Y           Z
 ---------------------------------------------------------------------
      1          1           0        1.047943    1.993307    0.000000
      2          1           0        0.000000    1.652809    0.000000
      3          1           0        1.047943    0.891434    0.000000
      4          1           0        0.000000    0.550936    0.000000
      5          1           0       -1.047943    1.312312    0.000000
      6          1           0       -1.047943    0.210439   -0.000000
      7          1           0       -1.047943   -0.891434    0.000000
      8          1           0       -0.000000   -0.550936   -0.000000
      9          1           0        1.047943   -0.210439   -0.000000
     10          1           0        1.047943   -1.312312   -0.000000
     11          1           0       -0.000000   -1.652809   -0.000000
     12          1           0       -1.047943   -1.993307   -0.000000
 ---------------------------------------------------------------------

 SCF Done:  E(RHF) =  -5.07664939982     A.U. after   11 cycles
 E2 =    -0.1304554383D+01 EUMP2 =    -0.63812037825605D+01

 The electronic state is 1-AG.
 Alpha  occ. eigenvalues --   -0.91014  -0.73650  -0.60024  -0.50750  -0.20405
 Alpha  occ. eigenvalues --   -0.05525
 Alpha virt. eigenvalues --   -0.20380   0.08323   0.29734   0.36872   0.59655
 Alpha virt. eigenvalues --    0.81921

 Mulliken charges:
               1
     1  H   -0.217654
     2  H   -0.031413
     3  H    0.205329
     4  H   -0.071830
     5  H    0.324925
     6  H   -0.209356
     7  H    0.205329
     8  H   -0.071830
     9  H   -0.209356
    10  H    0.324925
    11  H   -0.031413
    12  H   -0.217654
 Sum of Mulliken charges =  -0.00000

 Dipole moment (field-independent basis, Debye):
    X=             -0.0000    Y=              0.0000    Z=             -0.0000  Tot=              0.0000
 Quadrupole moment (field-independent basis, Debye-Ang):
   XX=            -13.5738   YY=            -25.2592   ZZ=            -14.5636
   XY=             -6.9092   XZ=             -0.0000   YZ=             -0.0000

 Normal termination of Gaussian 09 at Fri Feb 17 15:02:30 2017.
