 Gaussian 09, Revision E.01,
 Gaussian 09:  ES64L-G09RevE.01 30-Nov-2015

 ----------------------------------------------------------------------
 #rhf/gen scf(symm,tight,novaracc,noincfock,fulldiag) stable(crhf) gues
 s=read geom=nocrowd test
 ----------------------------------------------------------------------

 ----------------------------------------------------------------------
 hf stability analysis of h12 triangular lattice, y= 2.3945089138952178
 ----------------------------------------------------------------------
 Symbolic Z-matrix:
 Charge =  0 Multiplicity = 1

                         Standard orientation:
 ---------------------------------------------------------------------
 Center     Atomic      Atomic             Coordinates (Angstroms)
 Number     Number       Type             X           Y           Z
 ---------------------------------------------------------------------
      1          1           0        0.479802    5.968231    0.000000
      2          1           0        0.000000    3.609927    0.000000
      3          1           0        0.479802    3.561613    0.000000
      4          1           0        0.000000    1.203309    0.000000
      5          1           0       -0.479802    1.251622    0.000000
      6          1           0       -0.479802   -1.154995   -0.000000
      7          1           0       -0.479802   -3.561613   -0.000000
      8          1           0       -0.000000   -1.203309    0.000000
      9          1           0        0.479802    1.154995    0.000000
     10          1           0        0.479802   -1.251622    0.000000
     11          1           0       -0.000000   -3.609927    0.000000
     12          1           0       -0.479802   -5.968231    0.000000
 ---------------------------------------------------------------------

 SCF Done:  E(RHF) =  -4.48117014056     A.U. after    6 cycles
 E2 =    -0.1065928354D+01 EUMP2 =    -0.55470984941352D+01

 The electronic state is 1-AG.
 Alpha  occ. eigenvalues --   -0.93921  -0.92778  -0.72381  -0.72380  -0.20600
 Alpha  occ. eigenvalues --   -0.19751
 Alpha virt. eigenvalues --   -0.16182   0.06163   0.63006   0.63175   1.46416
 Alpha virt. eigenvalues --    1.57458

 Mulliken charges:
               1
     1  H    0.001385
     2  H   -0.002922
     3  H   -0.001440
     4  H   -0.645529
     5  H    0.323208
     6  H    0.325298
     7  H   -0.001440
     8  H   -0.645529
     9  H    0.325298
    10  H    0.323208
    11  H   -0.002922
    12  H    0.001385
 Sum of Mulliken charges =  -0.00000

 Dipole moment (field-independent basis, Debye):
    X=              0.0000    Y=              0.0000    Z=              0.0000  Tot=              0.0000
 Quadrupole moment (field-independent basis, Debye-Ang):
   XX=            -16.7459   YY=            -16.5146   ZZ=            -15.5184
   XY=             -0.1532   XZ=             -0.0000   YZ=             -0.0000

 Normal termination of Gaussian 09 at Fri Feb 17 15:08:36 2017.
