 Gaussian 09, Revision E.01,
 Gaussian 09:  ES64L-G09RevE.01 30-Nov-2015

 ----------------------------------------------------------------------
 #rhf/gen scf(symm,tight,novaracc,noincfock,fulldiag) stable(crhf) gues
 s=read geom=nocrowd test
 ----------------------------------------------------------------------

 ----------------------------------------------------------------------
 hf stability analysis of h12 triangular lattice, y= 1.1190932273249123
 ----------------------------------------------------------------------
 Symbolic Z-matrix:
 Charge =  0 Multiplicity = 1

                         Standard orientation:
 ---------------------------------------------------------------------
 Center     Atomic      Atomic             Coordinates (Angstroms)
 Number     Number       Type             X           Y           Z
 ---------------------------------------------------------------------
      1          1           0        0.937039    2.648737    0.000000
      2          1           0        0.000000    1.848431    0.000000
      3          1           0        0.937039    1.416450    0.000000
      4          1           0        0.000000    0.616144    0.000000
      5          1           0       -0.937039    1.048124    0.000000
      6          1           0       -0.937039   -0.184163    0.000000
      7          1           0       -0.937039   -1.416450    0.000000
      8          1           0       -0.000000   -0.616144    0.000000
      9          1           0        0.937039    0.184163   -0.000000
     10          1           0        0.937039   -1.048124   -0.000000
     11          1           0       -0.000000   -1.848431    0.000000
     12          1           0       -0.937039   -2.648737    0.000000
 ---------------------------------------------------------------------

 SCF Done:  E(RHF) =  -5.23316398886     A.U. after   11 cycles
 E2 =     0.1250164883D+02 EUMP2 =     0.72684848447301D+01

 The electronic state is 1-AG.
 Alpha  occ. eigenvalues --   -0.92324  -0.72461  -0.56687  -0.54302  -0.32621
 Alpha  occ. eigenvalues --    0.06570
 Alpha virt. eigenvalues --   -0.09869   0.15160   0.23002   0.34980   0.50973
 Alpha virt. eigenvalues --    0.51642

 Mulliken charges:
               1
     1  H    0.002790
     2  H   -0.294366
     3  H    0.067516
     4  H   -0.092567
     5  H    0.314044
     6  H    0.002583
     7  H    0.067516
     8  H   -0.092567
     9  H    0.002583
    10  H    0.314044
    11  H   -0.294366
    12  H    0.002790
 Sum of Mulliken charges =   0.00000

 Dipole moment (field-independent basis, Debye):
    X=             -0.0000    Y=             -0.0000    Z=             -0.0000  Tot=              0.0000
 Quadrupole moment (field-independent basis, Debye-Ang):
   XX=            -14.2680   YY=            -24.7794   ZZ=            -14.8764
   XY=             -3.4113   XZ=              0.0000   YZ=              0.0000

 Normal termination of Gaussian 09 at Fri Feb 17 15:04:48 2017.
