 Gaussian 09, Revision E.01,
 Gaussian 09:  ES64L-G09RevE.01 30-Nov-2015

 ----------------------------------------------------------------------
 #rhf/gen scf(symm,tight,novaracc,noincfock,fulldiag) stable(crhf) gues
 s=read geom=nocrowd test
 ----------------------------------------------------------------------

 hf stability analysis of h12 triangular lattice, y= 0.2937440693806230
 9
 ----------------------------------------------------------------------
 Symbolic Z-matrix:
 Charge =  0 Multiplicity = 1

                         Standard orientation:
 ---------------------------------------------------------------------
 Center     Atomic      Atomic             Coordinates (Angstroms)
 Number     Number       Type             X           Y           Z
 ---------------------------------------------------------------------
      1          1           0        0.581035    1.080494   -0.000000
      2          1           0        0.000000    2.980975   -0.000000
      3          1           0        0.581035   -0.906822   -0.000000
      4          1           0        0.000000    0.993658   -0.000000
      5          1           0       -0.581035    4.881455    0.000000
      6          1           0       -0.581035    2.894138    0.000000
      7          1           0       -0.581035    0.906822   -0.000000
      8          1           0       -0.000000   -0.993658    0.000000
      9          1           0        0.581035   -2.894138    0.000000
     10          1           0        0.581035   -4.881455    0.000000
     11          1           0       -0.000000   -2.980975    0.000000
     12          1           0       -0.581035   -1.080494   -0.000000
 ---------------------------------------------------------------------

 SCF Done:  E(RHF) =  -5.30366465419     A.U. after    6 cycles
 E2 =    -0.8505340636D+00 EUMP2 =    -0.61541987178137D+01

 The electronic state is 1-AG.
 Alpha  occ. eigenvalues --   -0.89829  -0.83823  -0.68769  -0.68258  -0.28451
 Alpha  occ. eigenvalues --   -0.19905
 Alpha virt. eigenvalues --   -0.14526   0.04547   0.53406   0.54323   1.07594
 Alpha virt. eigenvalues --    1.24707

 Mulliken charges:
               1
     1  H    0.203559
     2  H   -0.006082
     3  H    0.189614
     4  H   -0.384330
     5  H   -0.003554
     6  H    0.000794
     7  H    0.189614
     8  H   -0.384330
     9  H    0.000794
    10  H   -0.003554
    11  H   -0.006082
    12  H    0.203559
 Sum of Mulliken charges =  -0.00000

 Dipole moment (field-independent basis, Debye):
    X=              0.0000    Y=              0.0000    Z=             -0.0000  Tot=              0.0000
 Quadrupole moment (field-independent basis, Debye-Ang):
   XX=            -16.2999   YY=            -19.1028   ZZ=            -15.4848
   XY=              0.7477   XZ=              0.0000   YZ=              0.0000

 Normal termination of Gaussian 09 at Fri Feb 17 14:53:12 2017.
