 Gaussian 09, Revision E.01,
 Gaussian 09:  ES64L-G09RevE.01 30-Nov-2015

 ----------------------------------------------------------------------
 #rhf/gen scf(symm,tight,novaracc,noincfock,fulldiag) stable(crhf) gues
 s=read geom=nocrowd test
 ----------------------------------------------------------------------

 hf stability analysis of h12 triangular lattice, y= 0.7972534768479298
 0
 ----------------------------------------------------------------------
 Symbolic Z-matrix:
 Charge =  0 Multiplicity = 1

                         Standard orientation:
 ---------------------------------------------------------------------
 Center     Atomic      Atomic             Coordinates (Angstroms)
 Number     Number       Type             X           Y           Z
 ---------------------------------------------------------------------
      1          1           0        1.072094    1.718809    0.000000
      2          1           0        0.000000    1.615578    0.000000
      3          1           0        1.072094    0.641757    0.000000
      4          1           0        0.000000    0.538526    0.000000
      5          1           0       -1.072094    1.512347    0.000000
      6          1           0       -1.072094    0.435295    0.000000
      7          1           0       -1.072094   -0.641757    0.000000
      8          1           0       -0.000000   -0.538526    0.000000
      9          1           0        1.072094   -0.435295    0.000000
     10          1           0        1.072094   -1.512347    0.000000
     11          1           0       -0.000000   -1.615578    0.000000
     12          1           0       -1.072094   -1.718809    0.000000
 ---------------------------------------------------------------------

 SCF Done:  E(RHF) =  -5.02766274795     A.U. after   11 cycles
 E2 =    -0.1509004924D+00 EUMP2 =    -0.51785632403978D+01

 The electronic state is 1-AG.
 Alpha  occ. eigenvalues --   -0.90388  -0.72470  -0.60664  -0.49510  -0.16375
 Alpha  occ. eigenvalues --   -0.11678
 Alpha virt. eigenvalues --   -0.22061   0.06636   0.28549   0.45099   0.59006
 Alpha virt. eigenvalues --    0.99025

 Mulliken charges:
               1
     1  H   -0.104747
     2  H   -0.009572
     3  H    0.150754
     4  H   -0.094399
     5  H    0.115213
     6  H   -0.057250
     7  H    0.150754
     8  H   -0.094399
     9  H   -0.057250
    10  H    0.115213
    11  H   -0.009572
    12  H   -0.104747
 Sum of Mulliken charges =   0.00000

 Dipole moment (field-independent basis, Debye):
    X=             -0.0000    Y=              0.0000    Z=             -0.0000  Tot=              0.0000
 Quadrupole moment (field-independent basis, Debye-Ang):
   XX=            -12.4092   YY=            -24.4009   ZZ=            -14.4368
   XY=             -2.4560   XZ=              0.0000   YZ=              0.0000

 Normal termination of Gaussian 09 at Fri Feb 17 15:01:15 2017.
