 Gaussian 09, Revision E.01,
 Gaussian 09:  ES64L-G09RevE.01 30-Nov-2015

 ----------------------------------------------------------------------
 #rhf/gen scf(symm,tight,novaracc,noincfock,fulldiag) stable(crhf) gues
 s=read geom=nocrowd test
 ----------------------------------------------------------------------

 hf stability analysis of h12 triangular lattice, y= 0.8258291078557595
 8
 ----------------------------------------------------------------------
 Symbolic Z-matrix:
 Charge =  0 Multiplicity = 1

                         Standard orientation:
 ---------------------------------------------------------------------
 Center     Atomic      Atomic             Coordinates (Angstroms)
 Number     Number       Type             X           Y           Z
 ---------------------------------------------------------------------
      1          1           0        1.067176    1.801607    0.000000
      2          1           0        0.000000    1.623023    0.000000
      3          1           0        1.067176    0.719592    0.000000
      4          1           0        0.000000    0.541008    0.000000
      5          1           0       -1.067176    1.444439    0.000000
      6          1           0       -1.067176    0.362424    0.000000
      7          1           0       -1.067176   -0.719592    0.000000
      8          1           0       -0.000000   -0.541008    0.000000
      9          1           0        1.067176   -0.362424    0.000000
     10          1           0        1.067176   -1.444439    0.000000
     11          1           0       -0.000000   -1.623023    0.000000
     12          1           0       -1.067176   -1.801607    0.000000
 ---------------------------------------------------------------------

 SCF Done:  E(RHF) =  -5.03694701748     A.U. after   11 cycles
 E2 =    -0.1619327337D+00 EUMP2 =    -0.51988797512060D+01

 The electronic state is 1-AG.
 Alpha  occ. eigenvalues --   -0.90458  -0.72827  -0.60433  -0.49730  -0.17744
 Alpha  occ. eigenvalues --   -0.09779
 Alpha virt. eigenvalues --   -0.21822   0.07056   0.28545   0.42929   0.59576
 Alpha virt. eigenvalues --    0.95218

 Mulliken charges:
               1
     1  H   -0.167670
     2  H   -0.005441
     3  H    0.201911
     4  H   -0.092873
     5  H    0.194469
     6  H   -0.130397
     7  H    0.201911
     8  H   -0.092873
     9  H   -0.130397
    10  H    0.194469
    11  H   -0.005441
    12  H   -0.167670
 Sum of Mulliken charges =  -0.00000

 Dipole moment (field-independent basis, Debye):
    X=              0.0000    Y=              0.0000    Z=              0.0000  Tot=              0.0000
 Quadrupole moment (field-independent basis, Debye-Ang):
   XX=            -12.7098   YY=            -24.5907   ZZ=            -14.4658
   XY=             -4.1643   XZ=             -0.0000   YZ=             -0.0000

 Normal termination of Gaussian 09 at Fri Feb 17 15:01:39 2017.
