 Gaussian 09, Revision E.01,
 Gaussian 09:  ES64L-G09RevE.01 30-Nov-2015

 ----------------------------------------------------------------------
 #rhf/gen scf(symm,tight,novaracc,noincfock,fulldiag) stable(crhf) gues
 s=read geom=nocrowd test
 ----------------------------------------------------------------------

 ----------------------------------------------------------------------
 hf stability analysis of h12 triangular lattice, y= 2.0596822134404817
 ----------------------------------------------------------------------
 Symbolic Z-matrix:
 Charge =  0 Multiplicity = 1

                         Standard orientation:
 ---------------------------------------------------------------------
 Center     Atomic      Atomic             Coordinates (Angstroms)
 Number     Number       Type             X           Y           Z
 ---------------------------------------------------------------------
      1          1           0        0.555500    5.121072    0.000000
      2          1           0       -0.000000    3.118003    0.000000
      3          1           0        0.555500    3.042403    0.000000
      4          1           0       -0.000000    1.039334    0.000000
      5          1           0       -0.555500    1.114935    0.000000
      6          1           0       -0.555500   -0.963734    0.000000
      7          1           0       -0.555500   -3.042403   -0.000000
      8          1           0       -0.000000   -1.039334   -0.000000
      9          1           0        0.555500    0.963734    0.000000
     10          1           0        0.555500   -1.114935    0.000000
     11          1           0       -0.000000   -3.118003   -0.000000
     12          1           0       -0.555500   -5.121072   -0.000000
 ---------------------------------------------------------------------

 SCF Done:  E(RHF) =  -5.14539610873     A.U. after    6 cycles
 E2 =    -0.8979552052D+00 EUMP2 =    -0.60433513139521D+01

 The electronic state is 1-AG.
 Alpha  occ. eigenvalues --   -0.90561  -0.85920  -0.69675  -0.69438  -0.26377
 Alpha  occ. eigenvalues --   -0.20203
 Alpha virt. eigenvalues --   -0.15066   0.04891   0.55638   0.56271   1.16247
 Alpha virt. eigenvalues --    1.31857

 Mulliken charges:
               1
     1  H   -0.001088
     2  H   -0.005392
     3  H   -0.000513
     4  H   -0.435677
     5  H    0.225407
     6  H    0.217262
     7  H   -0.000513
     8  H   -0.435677
     9  H    0.217262
    10  H    0.225407
    11  H   -0.005392
    12  H   -0.001088
 Sum of Mulliken charges =  -0.00000

 Dipole moment (field-independent basis, Debye):
    X=             -0.0000    Y=              0.0000    Z=              0.0000  Tot=              0.0000
 Quadrupole moment (field-independent basis, Debye-Ang):
   XX=            -16.4311   YY=            -18.3011   ZZ=            -15.5056
   XY=             -0.5457   XZ=             -0.0000   YZ=             -0.0000

 Normal termination of Gaussian 09 at Fri Feb 17 15:08:14 2017.
