 Gaussian 09, Revision E.01,
 Gaussian 09:  ES64L-G09RevE.01 30-Nov-2015

 ----------------------------------------------------------------------
 #rhf/gen scf(symm,tight,novaracc,noincfock,fulldiag) stable(crhf) gues
 s=read geom=nocrowd test
 ----------------------------------------------------------------------

 ----------------------------------------------------------------------
 hf stability analysis of h12 triangular lattice, y= 2.3437412473608381
 ----------------------------------------------------------------------
 Symbolic Z-matrix:
 Charge =  0 Multiplicity = 1

                         Standard orientation:
 ---------------------------------------------------------------------
 Center     Atomic      Atomic             Coordinates (Angstroms)
 Number     Number       Type             X           Y           Z
 ---------------------------------------------------------------------
      1          1           0        0.489975    5.840130   -0.000000
      2          1           0        0.000000    3.534977    0.000000
      3          1           0        0.489975    3.483478   -0.000000
      4          1           0        0.000000    1.178326    0.000000
      5          1           0       -0.489975    1.229824    0.000000
      6          1           0       -0.489975   -1.126827    0.000000
      7          1           0       -0.489975   -3.483478    0.000000
      8          1           0       -0.000000   -1.178326    0.000000
      9          1           0        0.489975    1.126827    0.000000
     10          1           0        0.489975   -1.229824    0.000000
     11          1           0       -0.000000   -3.534977    0.000000
     12          1           0       -0.489975   -5.840130    0.000000
 ---------------------------------------------------------------------

 SCF Done:  E(RHF) =  -4.58988155309     A.U. after    7 cycles
 E2 =    -0.1040344300D+01 EUMP2 =    -0.56302258529750D+01

 The electronic state is 1-AG.
 Alpha  occ. eigenvalues --   -0.93361  -0.91827  -0.72013  -0.72006  -0.20694
 Alpha  occ. eigenvalues --   -0.20579
 Alpha virt. eigenvalues --   -0.16066   0.05949   0.61940   0.62147   1.41893
 Alpha virt. eigenvalues --    1.53543

 Mulliken charges:
               1
     1  H    0.001330
     2  H   -0.003249
     3  H   -0.001478
     4  H   -0.611300
     5  H    0.306718
     6  H    0.307979
     7  H   -0.001478
     8  H   -0.611300
     9  H    0.307979
    10  H    0.306718
    11  H   -0.003249
    12  H    0.001330
 Sum of Mulliken charges =  -0.00000

 Dipole moment (field-independent basis, Debye):
    X=              0.0000    Y=             -0.0000    Z=              0.0000  Tot=              0.0000
 Quadrupole moment (field-independent basis, Debye-Ang):
   XX=            -16.7108   YY=            -16.7052   ZZ=            -15.5214
   XY=             -0.1908   XZ=             -0.0000   YZ=              0.0000

 Normal termination of Gaussian 09 at Fri Feb 17 12:07:49 2017.
