 Gaussian 09, Revision E.01,
 Gaussian 09:  ES64L-G09RevE.01 30-Nov-2015

 ----------------------------------------------------------------------
 #rhf/gen scf(symm,tight,novaracc,noincfock,fulldiag) stable(crhf) gues
 s=read geom=nocrowd test
 ----------------------------------------------------------------------

 hf stability analysis of h12 triangular lattice, y= 0.6417319999662348
 7
 ----------------------------------------------------------------------
 Symbolic Z-matrix:
 Charge =  0 Multiplicity = 1

                         Standard orientation:
 ---------------------------------------------------------------------
 Center     Atomic      Atomic             Coordinates (Angstroms)
 Number     Number       Type             X           Y           Z
 ---------------------------------------------------------------------
      1          1           0        1.044888    1.297859    0.000000
      2          1           0        0.000000    1.657643    0.000000
      3          1           0        1.044888    0.192764    0.000000
      4          1           0        0.000000    0.552548    0.000000
      5          1           0       -1.044888    2.017426    0.000000
      6          1           0       -1.044888    0.912331    0.000000
      7          1           0       -1.044888   -0.192764   -0.000000
      8          1           0       -0.000000   -0.552548    0.000000
      9          1           0        1.044888   -0.912331    0.000000
     10          1           0        1.044888   -2.017426    0.000000
     11          1           0       -0.000000   -1.657643    0.000000
     12          1           0       -1.044888   -1.297859    0.000000
 ---------------------------------------------------------------------

 SCF Done:  E(RHF) =  -5.08319233043     A.U. after   11 cycles
 E2 =    -0.2273049034D+00 EUMP2 =    -0.53104972338655D+01

 The electronic state is 1-AG.
 Alpha  occ. eigenvalues --   -0.91136  -0.73704  -0.60010  -0.50909  -0.20735
 Alpha  occ. eigenvalues --   -0.05028
 Alpha virt. eigenvalues --   -0.20107   0.08478   0.30080   0.36127   0.59493
 Alpha virt. eigenvalues --    0.80026

 Mulliken charges:
               1
     1  H    0.335573
     2  H   -0.040110
     3  H   -0.208588
     4  H   -0.068126
     5  H   -0.214908
     6  H    0.196160
     7  H   -0.208588
     8  H   -0.068126
     9  H    0.196160
    10  H   -0.214908
    11  H   -0.040110
    12  H    0.335573
 Sum of Mulliken charges =   0.00000

 Dipole moment (field-independent basis, Debye):
    X=             -0.0000    Y=             -0.0000    Z=             -0.0000  Tot=              0.0000
 Quadrupole moment (field-independent basis, Debye-Ang):
   XX=            -13.6603   YY=            -25.3704   ZZ=            -14.5771
   XY=              7.1064   XZ=             -0.0000   YZ=              0.0000

 Normal termination of Gaussian 09 at Fri Feb 17 14:58:37 2017.
