 Gaussian 09, Revision E.01,
 Gaussian 09:  ES64L-G09RevE.01 30-Nov-2015

 ----------------------------------------------------------------------
 #rhf/gen scf(symm,tight,novaracc,noincfock,fulldiag) stable(crhf) gues
 s=read geom=nocrowd test
 ----------------------------------------------------------------------

 hf stability analysis of h12 triangular lattice, y= 0.3864103211392155
 8
 ----------------------------------------------------------------------
 Symbolic Z-matrix:
 Charge =  0 Multiplicity = 1

                         Standard orientation:
 ---------------------------------------------------------------------
 Center     Atomic      Atomic             Coordinates (Angstroms)
 Number     Number       Type             X           Y           Z
 ---------------------------------------------------------------------
      1          1           0        0.748204    0.965147    0.000000
      2          1           0        0.000000    2.314943    0.000000
      3          1           0        0.748204   -0.578149    0.000000
      4          1           0        0.000000    0.771648    0.000000
      5          1           0       -0.748204    3.664740    0.000000
      6          1           0       -0.748204    2.121444    0.000000
      7          1           0       -0.748204    0.578149   -0.000000
      8          1           0       -0.000000   -0.771648    0.000000
      9          1           0        0.748204   -2.121444    0.000000
     10          1           0        0.748204   -3.664740    0.000000
     11          1           0       -0.000000   -2.314943    0.000000
     12          1           0       -0.748204   -0.965147    0.000000
 ---------------------------------------------------------------------

 SCF Done:  E(RHF) =  -5.73142127977     A.U. after    7 cycles
 E2 =    -0.6285524944D+00 EUMP2 =    -0.63599737741361D+01

 The electronic state is 1-AG.
 Alpha  occ. eigenvalues --   -0.88979  -0.76379  -0.62852  -0.55107  -0.40891
 Alpha  occ. eigenvalues --   -0.14239
 Alpha virt. eigenvalues --   -0.07774   0.00782   0.40858   0.45692   0.63701
 Alpha virt. eigenvalues --    0.87335

 Mulliken charges:
               1
     1  H    0.154617
     2  H   -0.005208
     3  H    0.068681
     4  H   -0.193501
     5  H   -0.061250
     6  H    0.036660
     7  H    0.068681
     8  H   -0.193501
     9  H    0.036660
    10  H   -0.061250
    11  H   -0.005208
    12  H    0.154617
 Sum of Mulliken charges =   0.00000

 Dipole moment (field-independent basis, Debye):
    X=              0.0000    Y=             -0.0000    Z=             -0.0000  Tot=              0.0000
 Quadrupole moment (field-independent basis, Debye-Ang):
   XX=            -15.3087   YY=            -26.2749   ZZ=            -15.2121
   XY=              3.3050   XZ=             -0.0000   YZ=              0.0000

 Normal termination of Gaussian 09 at Fri Feb 17 14:54:17 2017.
