 Gaussian 09, Revision E.01,
 Gaussian 09:  ES64L-G09RevE.01 30-Nov-2015

 ----------------------------------------------------------------------
 #rhf/gen scf(symm,tight,novaracc,noincfock,fulldiag) stable(crhf) gues
 s=read geom=nocrowd test
 ----------------------------------------------------------------------

 hf stability analysis of h12 triangular lattice, y= 0.5099777844418526
 0
 ----------------------------------------------------------------------
 Symbolic Z-matrix:
 Charge =  0 Multiplicity = 1

                         Standard orientation:
 ---------------------------------------------------------------------
 Center     Atomic      Atomic             Coordinates (Angstroms)
 Number     Number       Type             X           Y           Z
 ---------------------------------------------------------------------
      1          1           0        0.929957    1.039751    0.000000
      2          1           0        0.000000    1.862507    0.000000
      3          1           0        0.929957   -0.201921   -0.000000
      4          1           0        0.000000    0.620836    0.000000
      5          1           0       -0.929957    2.685263    0.000000
      6          1           0       -0.929957    1.443592    0.000000
      7          1           0       -0.929957    0.201921   -0.000000
      8          1           0       -0.000000   -0.620836    0.000000
      9          1           0        0.929957   -1.443592    0.000000
     10          1           0        0.929957   -2.685263    0.000000
     11          1           0       -0.000000   -1.862507    0.000000
     12          1           0       -0.929957   -1.039751    0.000000
 ---------------------------------------------------------------------

 SCF Done:  E(RHF) =  -5.24086285550     A.U. after   15 cycles
 E2 =    -0.4384890687D+00 EUMP2 =    -0.56793519242040D+01

 The electronic state is 1-AG.
 Alpha  occ. eigenvalues --   -0.92331  -0.72572  -0.56458  -0.54544  -0.33401
 Alpha  occ. eigenvalues --    0.07189
 Alpha virt. eigenvalues --   -0.09006   0.13886   0.23589   0.33226   0.50839
 Alpha virt. eigenvalues --    0.52946

 Mulliken charges:
               1
     1  H    0.302676
     2  H   -0.323311
     3  H    0.012908
     4  H   -0.101109
     5  H   -0.009429
     6  H    0.118264
     7  H    0.012908
     8  H   -0.101109
     9  H    0.118264
    10  H   -0.009429
    11  H   -0.323311
    12  H    0.302676
 Sum of Mulliken charges =  -0.00000

 Dipole moment (field-independent basis, Debye):
    X=             -0.0000    Y=              0.0000    Z=             -0.0000  Tot=              0.0000
 Quadrupole moment (field-independent basis, Debye-Ang):
   XX=            -14.0145   YY=            -25.8541   ZZ=            -14.8667
   XY=              3.3241   XZ=              0.0000   YZ=             -0.0000

 Normal termination of Gaussian 09 at Fri Feb 17 14:56:16 2017.
