 Gaussian 09, Revision E.01,
 Gaussian 09:  ES64L-G09RevE.01 30-Nov-2015

 ----------------------------------------------------------------------
 #rhf/gen scf(symm,tight,novaracc,noincfock,fulldiag) stable(crhf) gues
 s=read geom=nocrowd test
 ----------------------------------------------------------------------

 hf stability analysis of h12 triangular lattice, y= 0.6625913996779515
 5
 ----------------------------------------------------------------------
 Symbolic Z-matrix:
 Charge =  0 Multiplicity = 1

                         Standard orientation:
 ---------------------------------------------------------------------
 Center     Atomic      Atomic             Coordinates (Angstroms)
 Number     Number       Type             X           Y           Z
 ---------------------------------------------------------------------
      1          1           0        1.054848    1.349455   -0.000000
      2          1           0        0.000000    1.641991   -0.000000
      3          1           0        1.054848    0.254795    0.000000
      4          1           0        0.000000    0.547330   -0.000000
      5          1           0       -1.054848    1.934526   -0.000000
      6          1           0       -1.054848    0.839865   -0.000000
      7          1           0       -1.054848   -0.254795    0.000000
      8          1           0       -0.000000   -0.547330   -0.000000
      9          1           0        1.054848   -0.839865   -0.000000
     10          1           0        1.054848   -1.934526   -0.000000
     11          1           0       -0.000000   -1.641991   -0.000000
     12          1           0       -1.054848   -1.349455   -0.000000
 ---------------------------------------------------------------------

 SCF Done:  E(RHF) =  -5.06197325956     A.U. after   11 cycles
 E2 =    -0.1620470152D+00 EUMP2 =    -0.52240202747126D+01

 The electronic state is 1-AG.
 Alpha  occ. eigenvalues --   -0.90766  -0.73459  -0.60094  -0.50381  -0.19624
 Alpha  occ. eigenvalues --   -0.06772
 Alpha virt. eigenvalues --   -0.20962   0.07936   0.29090   0.38733   0.59884
 Alpha virt. eigenvalues --    0.86418

 Mulliken charges:
               1
     1  H    0.293351
     2  H   -0.014916
     3  H   -0.201291
     4  H   -0.080712
     5  H   -0.216921
     6  H    0.220489
     7  H   -0.201291
     8  H   -0.080712
     9  H    0.220489
    10  H   -0.216921
    11  H   -0.014916
    12  H    0.293351
 Sum of Mulliken charges =  -0.00000

 Dipole moment (field-independent basis, Debye):
    X=              0.0000    Y=              0.0000    Z=              0.0000  Tot=              0.0000
 Quadrupole moment (field-independent basis, Debye-Ang):
   XX=            -13.3333   YY=            -25.0109   ZZ=            -14.5313
   XY=              6.2815   XZ=             -0.0000   YZ=             -0.0000

 Normal termination of Gaussian 09 at Fri Feb 17 14:58:58 2017.
