 Gaussian 09, Revision E.01,
 Gaussian 09:  ES64L-G09RevE.01 30-Nov-2015

 ----------------------------------------------------------------------
 #rhf/gen scf(symm,tight,novaracc,noincfock,fulldiag) stable(crhf) gues
 s=read geom=nocrowd test
 ----------------------------------------------------------------------

 ----------------------------------------------------------------------
 hf stability analysis of h12 triangular lattice, y= 1.0205721581109972
 ----------------------------------------------------------------------
 Symbolic Z-matrix:
 Charge =  0 Multiplicity = 1

                         Standard orientation:
 ---------------------------------------------------------------------
 Center     Atomic      Atomic             Coordinates (Angstroms)
 Number     Number       Type             X           Y           Z
 ---------------------------------------------------------------------
      1          1           0        0.989566    2.368663   -0.000000
      2          1           0        0.000000    1.750313   -0.000000
      3          1           0        0.989566    1.201787   -0.000000
      4          1           0        0.000000    0.583438   -0.000000
      5          1           0       -0.989566    1.131963   -0.000000
      6          1           0       -0.989566   -0.034912    0.000000
      7          1           0       -0.989566   -1.201787    0.000000
      8          1           0       -0.000000   -0.583438    0.000000
      9          1           0        0.989566    0.034912    0.000000
     10          1           0        0.989566   -1.131963    0.000000
     11          1           0       -0.000000   -1.750313    0.000000
     12          1           0       -0.989566   -2.368663    0.000000
 ---------------------------------------------------------------------

 SCF Done:  E(RHF) =  -5.18340168060     A.U. after   11 cycles
 E2 =    -0.1683867681D+00 EUMP2 =    -0.53517884486821D+01

 The electronic state is 1-AG.
 Alpha  occ. eigenvalues --   -0.92720  -0.73325  -0.59195  -0.53059  -0.26974
 Alpha  occ. eigenvalues --    0.01768
 Alpha virt. eigenvalues --   -0.14814   0.12288   0.26482   0.38601   0.54170
 Alpha virt. eigenvalues --    0.54711

 Mulliken charges:
               1
     1  H   -0.091504
     2  H   -0.178428
     3  H    0.045218
     4  H   -0.057179
     5  H    0.363595
     6  H   -0.081701
     7  H    0.045218
     8  H   -0.057179
     9  H   -0.081701
    10  H    0.363595
    11  H   -0.178428
    12  H   -0.091504
 Sum of Mulliken charges =  -0.00000

 Dipole moment (field-independent basis, Debye):
    X=             -0.0000    Y=              0.0000    Z=              0.0000  Tot=              0.0000
 Quadrupole moment (field-independent basis, Debye-Ang):
   XX=            -14.3766   YY=            -25.9794   ZZ=            -14.7672
   XY=             -6.4587   XZ=              0.0000   YZ=              0.0000

 Normal termination of Gaussian 09 at Fri Feb 17 12:06:54 2017.
