 Gaussian 09, Revision E.01,
 Gaussian 09:  ES64L-G09RevE.01 30-Nov-2015

 ----------------------------------------------------------------------
 #rhf/gen scf(symm,tight,novaracc,noincfock,fulldiag) stable(crhf) gues
 s=read geom=nocrowd test
 ----------------------------------------------------------------------

 hf stability analysis of h12 triangular lattice, y= 0.9428899751596989
 7
 ----------------------------------------------------------------------
 Symbolic Z-matrix:
 Charge =  0 Multiplicity = 1

                         Standard orientation:
 ---------------------------------------------------------------------
 Center     Atomic      Atomic             Coordinates (Angstroms)
 Number     Number       Type             X           Y           Z
 ---------------------------------------------------------------------
      1          1           0        1.027069    2.143682   -0.000000
      2          1           0        0.000000    1.686401   -0.000000
      3          1           0        1.027069    1.019414   -0.000000
      4          1           0        0.000000    0.562134   -0.000000
      5          1           0       -1.027069    1.229120   -0.000000
      6          1           0       -1.027069    0.104853   -0.000000
      7          1           0       -1.027069   -1.019414   -0.000000
      8          1           0       -0.000000   -0.562134   -0.000000
      9          1           0        1.027069   -0.104853   -0.000000
     10          1           0        1.027069   -1.229120   -0.000000
     11          1           0       -0.000000   -1.686401   -0.000000
     12          1           0       -1.027069   -2.143682   -0.000000
 ---------------------------------------------------------------------

 SCF Done:  E(RHF) =  -5.12038301523     A.U. after   11 cycles
 E2 =    -0.1791768528D+00 EUMP2 =    -0.52995598680008D+01

 The electronic state is 1-AG.
 Alpha  occ. eigenvalues --   -0.91861  -0.73775  -0.59960  -0.51746  -0.22672
 Alpha  occ. eigenvalues --   -0.02504
 Alpha virt. eigenvalues --   -0.18426   0.09387   0.32429   0.32569   0.58134
 Alpha virt. eigenvalues --    0.70047

 Mulliken charges:
               1
     1  H   -0.181129
     2  H   -0.093832
     3  H    0.135157
     4  H   -0.053697
     5  H    0.369471
     6  H   -0.175970
     7  H    0.135157
     8  H   -0.053697
     9  H   -0.175970
    10  H    0.369471
    11  H   -0.093832
    12  H   -0.181129
 Sum of Mulliken charges =  -0.00000

 Dipole moment (field-independent basis, Debye):
    X=             -0.0000    Y=              0.0000    Z=              0.0000  Tot=              0.0000
 Quadrupole moment (field-independent basis, Debye-Ang):
   XX=            -14.0079   YY=            -25.9244   ZZ=            -14.6482
   XY=             -7.5576   XZ=             -0.0000   YZ=             -0.0000

 Normal termination of Gaussian 09 at Fri Feb 17 12:06:44 2017.
