 Gaussian 09, Revision E.01,
 Gaussian 09:  ES64L-G09RevE.01 30-Nov-2015

 ----------------------------------------------------------------------
 #rhf/gen scf(symm,tight,novaracc,noincfock,fulldiag) stable(crhf) gues
 s=read geom=nocrowd test
 ----------------------------------------------------------------------

 hf stability analysis of h12 triangular lattice, y= 0.6181745873441064
 6
 ----------------------------------------------------------------------
 Symbolic Z-matrix:
 Charge =  0 Multiplicity = 1

                         Standard orientation:
 ---------------------------------------------------------------------
 Center     Atomic      Atomic             Coordinates (Angstroms)
 Number     Number       Type             X           Y           Z
 ---------------------------------------------------------------------
      1          1           0        1.030974    1.242391   -0.000000
      2          1           0        0.000000    1.680014   -0.000000
      3          1           0        1.030974    0.122382   -0.000000
      4          1           0        0.000000    0.560005   -0.000000
      5          1           0       -1.030974    2.117637   -0.000000
      6          1           0       -1.030974    0.997627   -0.000000
      7          1           0       -1.030974   -0.122382    0.000000
      8          1           0       -0.000000   -0.560005    0.000000
      9          1           0        1.030974   -0.997627    0.000000
     10          1           0        1.030974   -2.117637    0.000000
     11          1           0       -0.000000   -1.680014    0.000000
     12          1           0       -1.030974   -1.242391    0.000000
 ---------------------------------------------------------------------

 SCF Done:  E(RHF) =  -5.11249181995     A.U. after   11 cycles
 E2 =    -0.1824719990D+00 EUMP2 =    -0.52949638189964D+01

 The electronic state is 1-AG.
 Alpha  occ. eigenvalues --   -0.91710  -0.73787  -0.59978  -0.51576  -0.22239
 Alpha  occ. eigenvalues --   -0.03017
 Alpha virt. eigenvalues --   -0.18803   0.09173   0.31973   0.33167   0.58472
 Alpha virt. eigenvalues --    0.72084

 Mulliken charges:
               1
     1  H    0.365305
     2  H   -0.082401
     3  H   -0.185577
     4  H   -0.055712
     5  H   -0.190024
     6  H    0.148409
     7  H   -0.185577
     8  H   -0.055712
     9  H    0.148409
    10  H   -0.190024
    11  H   -0.082401
    12  H    0.365305
 Sum of Mulliken charges =   0.00000

 Dipole moment (field-independent basis, Debye):
    X=              0.0000    Y=              0.0000    Z=              0.0000  Tot=              0.0000
 Quadrupole moment (field-independent basis, Debye-Ang):
   XX=            -13.9484   YY=            -25.8252   ZZ=            -14.6336
   XY=              7.5412   XZ=             -0.0000   YZ=              0.0000

 Normal termination of Gaussian 09 at Fri Feb 17 14:58:12 2017.
