 Gaussian 09, Revision E.01,
 Gaussian 09:  ES64L-G09RevE.01 30-Nov-2015

 ----------------------------------------------------------------------
 #rhf/gen scf(symm,tight,novaracc,noincfock,fulldiag) stable(crhf) gues
 s=read geom=nocrowd test
 ----------------------------------------------------------------------

 ----------------------------------------------------------------------
 hf stability analysis of h12 triangular lattice, y= 1.3635879012585173
 ----------------------------------------------------------------------
 Symbolic Z-matrix:
 Charge =  0 Multiplicity = 1

                         Standard orientation:
 ---------------------------------------------------------------------
 Center     Atomic      Atomic             Coordinates (Angstroms)
 Number     Number       Type             X           Y           Z
 ---------------------------------------------------------------------
      1          1           0        0.808721    3.318413   -0.000000
      2          1           0       -0.000000    2.141716   -0.000000
      3          1           0        0.808721    1.890602   -0.000000
      4          1           0       -0.000000    0.713905   -0.000000
      5          1           0       -0.808721    0.965020   -0.000000
      6          1           0       -0.808721   -0.462791   -0.000000
      7          1           0       -0.808721   -1.890602    0.000000
      8          1           0       -0.000000   -0.713905    0.000000
      9          1           0        0.808721    0.462791   -0.000000
     10          1           0        0.808721   -0.965020   -0.000000
     11          1           0       -0.000000   -2.141716    0.000000
     12          1           0       -0.808721   -3.318413    0.000000
 ---------------------------------------------------------------------

 SCF Done:  E(RHF) =  -5.66733957801     A.U. after    8 cycles
 E2 =    -0.6117739322D+00 EUMP2 =    -0.62791135102052D+01

 The electronic state is 1-AG.
 Alpha  occ. eigenvalues --   -0.89824  -0.75733  -0.60683  -0.50334  -0.43714
 Alpha  occ. eigenvalues --   -0.09522
 Alpha virt. eigenvalues --   -0.03845  -0.01456   0.37011   0.41814   0.54255
 Alpha virt. eigenvalues --    0.75659

 Mulliken charges:
               1
     1  H   -0.104197
     2  H   -0.006562
     3  H    0.067338
     4  H   -0.160706
     5  H    0.166092
     6  H    0.038035
     7  H    0.067338
     8  H   -0.160706
     9  H    0.038035
    10  H    0.166092
    11  H   -0.006562
    12  H   -0.104197
 Sum of Mulliken charges =   0.00000

 Dipole moment (field-independent basis, Debye):
    X=             -0.0000    Y=             -0.0000    Z=             -0.0000  Tot=              0.0000
 Quadrupole moment (field-independent basis, Debye-Ang):
   XX=            -14.9827   YY=            -28.9671   ZZ=            -15.0706
   XY=             -4.8093   XZ=              0.0000   YZ=              0.0000

 Normal termination of Gaussian 09 at Fri Feb 17 15:06:22 2017.
