 Gaussian 09, Revision E.01,
 Gaussian 09:  ES64L-G09RevE.01 30-Nov-2015

 ----------------------------------------------------------------------
 #rhf/gen scf(symm,tight,novaracc,noincfock,fulldiag) stable(crhf) gues
 s=read geom=nocrowd test
 ----------------------------------------------------------------------

 hf stability analysis of h12 triangular lattice, y= 0.8792984807723166
 5
 ----------------------------------------------------------------------
 Symbolic Z-matrix:
 Charge =  0 Multiplicity = 1

                         Standard orientation:
 ---------------------------------------------------------------------
 Center     Atomic      Atomic             Coordinates (Angstroms)
 Number     Number       Type             X           Y           Z
 ---------------------------------------------------------------------
      1          1           0        1.052212    1.957784    0.000000
      2          1           0        0.000000    1.646105    0.000000
      3          1           0        1.052212    0.860381    0.000000
      4          1           0        0.000000    0.548702    0.000000
      5          1           0       -1.052212    1.334425   -0.000000
      6          1           0       -1.052212    0.237022   -0.000000
      7          1           0       -1.052212   -0.860381    0.000000
      8          1           0       -0.000000   -0.548702    0.000000
      9          1           0        1.052212   -0.237022   -0.000000
     10          1           0        1.052212   -1.334425   -0.000000
     11          1           0       -0.000000   -1.646105    0.000000
     12          1           0       -1.052212   -1.957784    0.000000
 ---------------------------------------------------------------------

 SCF Done:  E(RHF) =  -5.06754568842     A.U. after   11 cycles
 E2 =    -0.1460690555D+00 EUMP2 =    -0.52136147439003D+01

 The electronic state is 1-AG.
 Alpha  occ. eigenvalues --   -0.90855  -0.73544  -0.60060  -0.50524  -0.19932
 Alpha  occ. eigenvalues --   -0.06272
 Alpha virt. eigenvalues --   -0.20746   0.08091   0.29311   0.37989   0.59822
 Alpha virt. eigenvalues --    0.84666

 Mulliken charges:
               1
     1  H   -0.218581
     2  H   -0.020544
     3  H    0.215889
     4  H   -0.077307
     5  H    0.306775
     6  H   -0.206232
     7  H    0.215889
     8  H   -0.077307
     9  H   -0.206232
    10  H    0.306775
    11  H   -0.020544
    12  H   -0.218581
 Sum of Mulliken charges =   0.00000

 Dipole moment (field-independent basis, Debye):
    X=             -0.0000    Y=             -0.0000    Z=             -0.0000  Tot=              0.0000
 Quadrupole moment (field-independent basis, Debye-Ang):
   XX=            -13.4334   YY=            -25.1044   ZZ=            -14.5440
   XY=             -6.5542   XZ=             -0.0000   YZ=             -0.0000

 Normal termination of Gaussian 09 at Fri Feb 17 15:02:21 2017.
