 Gaussian 09, Revision E.01,
 Gaussian 09:  ES64L-G09RevE.01 30-Nov-2015

 ----------------------------------------------------------------------
 #rhf/gen scf(symm,tight,novaracc,noincfock,fulldiag) stable(crhf) gues
 s=read geom=nocrowd test
 ----------------------------------------------------------------------

 hf stability analysis of h12 triangular lattice, y= 0.3465386445008242
 8
 ----------------------------------------------------------------------
 Symbolic Z-matrix:
 Charge =  0 Multiplicity = 1

                         Standard orientation:
 ---------------------------------------------------------------------
 Center     Atomic      Atomic             Coordinates (Angstroms)
 Number     Number       Type             X           Y           Z
 ---------------------------------------------------------------------
      1          1           0        0.678554    0.991993   -0.000000
      2          1           0        0.000000    2.552561   -0.000000
      3          1           0        0.678554   -0.709714    0.000000
      4          1           0        0.000000    0.850854   -0.000000
      5          1           0       -0.678554    4.113129   -0.000000
      6          1           0       -0.678554    2.411421   -0.000000
      7          1           0       -0.678554    0.709714    0.000000
      8          1           0       -0.000000   -0.850854    0.000000
      9          1           0        0.678554   -2.411421    0.000000
     10          1           0        0.678554   -4.113129    0.000000
     11          1           0       -0.000000   -2.552561    0.000000
     12          1           0       -0.678554   -0.991993    0.000000
 ---------------------------------------------------------------------

 SCF Done:  E(RHF) =  -5.66839014354     A.U. after    6 cycles
 E2 =    -0.7002868315D+00 EUMP2 =    -0.63686769750733D+01

 The electronic state is 1-AG.
 Alpha  occ. eigenvalues --   -0.88626  -0.78107  -0.65311  -0.61665  -0.35928
 Alpha  occ. eigenvalues --   -0.17591
 Alpha virt. eigenvalues --   -0.11366   0.02854   0.45723   0.48574   0.79585
 Alpha virt. eigenvalues --    1.01553

 Mulliken charges:
               1
     1  H    0.158316
     2  H   -0.006582
     3  H    0.109852
     4  H   -0.249377
     5  H   -0.026770
     6  H    0.014560
     7  H    0.109852
     8  H   -0.249377
     9  H    0.014560
    10  H   -0.026770
    11  H   -0.006582
    12  H    0.158316
 Sum of Mulliken charges =  -0.00000

 Dipole moment (field-independent basis, Debye):
    X=              0.0000    Y=             -0.0000    Z=              0.0000  Tot=              0.0000
 Quadrupole moment (field-independent basis, Debye-Ang):
   XX=            -15.7286   YY=            -23.0120   ZZ=            -15.3492
   XY=              1.9523   XZ=             -0.0000   YZ=              0.0000

 Normal termination of Gaussian 09 at Fri Feb 17 14:53:46 2017.
