 Gaussian 09, Revision E.01,
 Gaussian 09:  ES64L-G09RevE.01 30-Nov-2015

 ----------------------------------------------------------------------
 #rhf/gen scf(symm,tight,novaracc,noincfock,fulldiag) stable(crhf) gues
 s=read geom=nocrowd test
 ----------------------------------------------------------------------

 ----------------------------------------------------------------------
 hf stability analysis of h12 triangular lattice, y= 1.5507537964299845
 ----------------------------------------------------------------------
 Symbolic Z-matrix:
 Charge =  0 Multiplicity = 1

                         Standard orientation:
 ---------------------------------------------------------------------
 Center     Atomic      Atomic             Coordinates (Angstroms)
 Number     Number       Type             X           Y           Z
 ---------------------------------------------------------------------
      1          1           0        0.724033    3.813222   -0.000000
      2          1           0        0.000000    2.392228   -0.000000
      3          1           0        0.724033    2.218403   -0.000000
      4          1           0        0.000000    0.797409   -0.000000
      5          1           0       -0.724033    0.971234   -0.000000
      6          1           0       -0.724033   -0.623585    0.000000
      7          1           0       -0.724033   -2.218403   -0.000000
      8          1           0       -0.000000   -0.797409   -0.000000
      9          1           0        0.724033    0.623585    0.000000
     10          1           0        0.724033   -0.971234   -0.000000
     11          1           0       -0.000000   -2.392228   -0.000000
     12          1           0       -0.724033   -3.813222   -0.000000
 ---------------------------------------------------------------------

 SCF Done:  E(RHF) =  -5.72654412993     A.U. after    7 cycles
 E2 =    -0.6489231678D+00 EUMP2 =    -0.63754672977563D+01

 The electronic state is 1-AG.
 Alpha  occ. eigenvalues --   -0.88767  -0.76814  -0.63706  -0.57456  -0.39227
 Alpha  occ. eigenvalues --   -0.15612
 Alpha virt. eigenvalues --   -0.09161   0.01600   0.42494   0.46662   0.68800
 Alpha virt. eigenvalues --    0.92140

 Mulliken charges:
               1
     1  H   -0.047424
     2  H   -0.005672
     3  H    0.027588
     4  H   -0.210158
     5  H    0.153663
     6  H    0.082002
     7  H    0.027588
     8  H   -0.210158
     9  H    0.082002
    10  H    0.153663
    11  H   -0.005672
    12  H   -0.047424
 Sum of Mulliken charges =   0.00000

 Dipole moment (field-independent basis, Debye):
    X=              0.0000    Y=             -0.0000    Z=              0.0000  Tot=              0.0000
 Quadrupole moment (field-independent basis, Debye-Ang):
   XX=            -15.4514   YY=            -25.1353   ZZ=            -15.2629
   XY=             -2.7870   XZ=             -0.0000   YZ=             -0.0000

 Normal termination of Gaussian 09 at Fri Feb 17 15:07:06 2017.
