 Gaussian 09, Revision E.01,
 Gaussian 09:  ES64L-G09RevE.01 30-Nov-2015

 ----------------------------------------------------------------------
 #rhf/gen scf(symm,tight,novaracc,noincfock,fulldiag) stable(crhf) gues
 s=read geom=nocrowd test
 ----------------------------------------------------------------------

 hf stability analysis of h12 triangular lattice, y= 0.9295513923648614
 0
 ----------------------------------------------------------------------
 Symbolic Z-matrix:
 Charge =  0 Multiplicity = 1

                         Standard orientation:
 ---------------------------------------------------------------------
 Center     Atomic      Atomic             Coordinates (Angstroms)
 Number     Number       Type             X           Y           Z
 ---------------------------------------------------------------------
      1          1           0        1.032862    2.104768    0.000000
      2          1           0        0.000000    1.676943    0.000000
      3          1           0        1.032862    0.986806    0.000000
      4          1           0        0.000000    0.558981    0.000000
      5          1           0       -1.032862    1.249117    0.000000
      6          1           0       -1.032862    0.131155   -0.000000
      7          1           0       -1.032862   -0.986806    0.000000
      8          1           0       -0.000000   -0.558981   -0.000000
      9          1           0        1.032862   -0.131155   -0.000000
     10          1           0        1.032862   -1.249117   -0.000000
     11          1           0       -0.000000   -1.676943   -0.000000
     12          1           0       -1.032862   -2.104768   -0.000000
 ---------------------------------------------------------------------

 SCF Done:  E(RHF) =  -5.10860983093     A.U. after   11 cycles
 E2 =    -0.1844484041D+00 EUMP2 =    -0.52930582349932D+01

 The electronic state is 1-AG.
 Alpha  occ. eigenvalues --   -0.91634  -0.73788  -0.59984  -0.51491  -0.22031
 Alpha  occ. eigenvalues --   -0.03272
 Alpha virt. eigenvalues --   -0.18984   0.09074   0.31693   0.33536   0.58630
 Alpha virt. eigenvalues --    0.73098

 Mulliken charges:
               1
     1  H   -0.194140
     2  H   -0.076731
     3  H    0.154961
     4  H   -0.056914
     5  H    0.362739
     6  H   -0.189916
     7  H    0.154961
     8  H   -0.056914
     9  H   -0.189916
    10  H    0.362739
    11  H   -0.076731
    12  H   -0.194140
 Sum of Mulliken charges =   0.00000

 Dipole moment (field-independent basis, Debye):
    X=             -0.0000    Y=             -0.0000    Z=             -0.0000  Tot=              0.0000
 Quadrupole moment (field-independent basis, Debye-Ang):
   XX=            -13.9170   YY=            -25.7718   ZZ=            -14.6264
   XY=             -7.5192   XZ=             -0.0000   YZ=             -0.0000

 Normal termination of Gaussian 09 at Fri Feb 17 15:02:59 2017.
