 Gaussian 09, Revision E.01,
 Gaussian 09:  ES64L-G09RevE.01 30-Nov-2015

 ----------------------------------------------------------------------
 #rhf/gen scf(symm,tight,novaracc,noincfock,fulldiag) stable(crhf) gues
 s=read geom=nocrowd test
 ----------------------------------------------------------------------

 hf stability analysis of h12 triangular lattice, y= 0.5277127250247978
 2
 ----------------------------------------------------------------------
 Symbolic Z-matrix:
 Charge =  0 Multiplicity = 1

                         Standard orientation:
 ---------------------------------------------------------------------
 Center     Atomic      Atomic             Coordinates (Angstroms)
 Number     Number       Type             X           Y           Z
 ---------------------------------------------------------------------
      1          1           0        0.950620    1.065865   -0.000000
      2          1           0       -0.000000    1.822023    0.000000
      3          1           0        0.950620   -0.148816   -0.000000
      4          1           0       -0.000000    0.607341    0.000000
      5          1           0       -0.950620    2.578180    0.000000
      6          1           0       -0.950620    1.363498    0.000000
      7          1           0       -0.950620    0.148816   -0.000000
      8          1           0       -0.000000   -0.607341    0.000000
      9          1           0        0.950620   -1.363498    0.000000
     10          1           0        0.950620   -2.578180    0.000000
     11          1           0       -0.000000   -1.822023    0.000000
     12          1           0       -0.950620   -1.065865   -0.000000
 ---------------------------------------------------------------------

 SCF Done:  E(RHF) =  -5.22279134038     A.U. after   11 cycles
 E2 =    -0.2308066758D+00 EUMP2 =    -0.54535980162026D+01

 The electronic state is 1-AG.
 Alpha  occ. eigenvalues --   -0.92494  -0.72646  -0.57357  -0.54012  -0.31217
 Alpha  occ. eigenvalues --    0.05386
 Alpha virt. eigenvalues --   -0.11196   0.15530   0.22724   0.38088   0.49546
 Alpha virt. eigenvalues --    0.51736

 Mulliken charges:
               1
     1  H    0.327275
     2  H   -0.251237
     3  H   -0.015752
     4  H   -0.080968
     5  H   -0.012911
     6  H    0.033593
     7  H   -0.015752
     8  H   -0.080968
     9  H    0.033593
    10  H   -0.012911
    11  H   -0.251237
    12  H    0.327275
 Sum of Mulliken charges =  -0.00000

 Dipole moment (field-independent basis, Debye):
    X=             -0.0000    Y=              0.0000    Z=             -0.0000  Tot=              0.0000
 Quadrupole moment (field-independent basis, Debye-Ang):
   XX=            -14.4507   YY=            -24.7826   ZZ=            -14.8579
   XY=              4.2283   XZ=              0.0000   YZ=              0.0000

 Normal termination of Gaussian 09 at Fri Feb 17 14:56:34 2017.
