 Gaussian 09, Revision E.01,
 Gaussian 09:  ES64L-G09RevE.01 30-Nov-2015

 ----------------------------------------------------------------------
 #rhf/gen scf(symm,tight,novaracc,noincfock,fulldiag) stable(crhf) gues
 s=read geom=nocrowd test
 ----------------------------------------------------------------------

 hf stability analysis of h12 triangular lattice, y= 0.4890258879954954
 6
 ----------------------------------------------------------------------
 Symbolic Z-matrix:
 Charge =  0 Multiplicity = 1

                         Standard orientation:
 ---------------------------------------------------------------------
 Center     Atomic      Atomic             Coordinates (Angstroms)
 Number     Number       Type             X           Y           Z
 ---------------------------------------------------------------------
      1          1           0        0.903602    1.013227   -0.000000
      2          1           0        0.000000    1.916829   -0.000000
      3          1           0        0.903602   -0.264659   -0.000000
      4          1           0        0.000000    0.638943   -0.000000
      5          1           0       -0.903602    2.820431   -0.000000
      6          1           0       -0.903602    1.542545   -0.000000
      7          1           0       -0.903602    0.264659   -0.000000
      8          1           0       -0.000000   -0.638943    0.000000
      9          1           0        0.903602   -1.542545    0.000000
     10          1           0        0.903602   -2.820431    0.000000
     11          1           0       -0.000000   -1.916829    0.000000
     12          1           0       -0.903602   -1.013227    0.000000
 ---------------------------------------------------------------------

 SCF Done:  E(RHF) =  -5.34718662940     A.U. after   10 cycles
 E2 =    -0.6097380420D+00 EUMP2 =    -0.59569246714386D+01

 The electronic state is 1-AG.
 Alpha  occ. eigenvalues --   -0.91926  -0.74878  -0.56815  -0.54469  -0.36840
 Alpha  occ. eigenvalues --    0.02969
 Alpha virt. eigenvalues --   -0.07234   0.06327   0.27643   0.32101   0.51783
 Alpha virt. eigenvalues --    0.57678

 Mulliken charges:
               1
     1  H    0.214463
     2  H   -0.080811
     3  H   -0.001070
     4  H   -0.120636
     5  H   -0.173494
     6  H    0.161547
     7  H   -0.001070
     8  H   -0.120636
     9  H    0.161547
    10  H   -0.173494
    11  H   -0.080811
    12  H    0.214463
 Sum of Mulliken charges =  -0.00000

 Dipole moment (field-independent basis, Debye):
    X=              0.0000    Y=              0.0000    Z=             -0.0000  Tot=              0.0000
 Quadrupole moment (field-independent basis, Debye-Ang):
   XX=            -14.5243   YY=            -31.6792   ZZ=            -14.8156
   XY=              7.0231   XZ=             -0.0000   YZ=              0.0000

 Normal termination of Gaussian 09 at Fri Feb 17 14:55:55 2017.
