 Gaussian 09, Revision E.01,
 Gaussian 09:  ES64L-G09RevE.01 30-Nov-2015

 ----------------------------------------------------------------------
 #rhf/gen scf(symm,tight,novaracc,noincfock,fulldiag) stable(crhf) gues
 s=read geom=nocrowd test
 ----------------------------------------------------------------------

 hf stability analysis of h12 triangular lattice, y= 0.3023959355609886
 5
 ----------------------------------------------------------------------
 Symbolic Z-matrix:
 Charge =  0 Multiplicity = 1

                         Standard orientation:
 ---------------------------------------------------------------------
 Center     Atomic      Atomic             Coordinates (Angstroms)
 Number     Number       Type             X           Y           Z
 ---------------------------------------------------------------------
      1          1           0        0.597346    1.061136   -0.000000
      2          1           0        0.000000    2.899578   -0.000000
      3          1           0        0.597346   -0.871916   -0.000000
      4          1           0        0.000000    0.966526   -0.000000
      5          1           0       -0.597346    4.738019   -0.000000
      6          1           0       -0.597346    2.804967   -0.000000
      7          1           0       -0.597346    0.871916   -0.000000
      8          1           0       -0.000000   -0.966526    0.000000
      9          1           0        0.597346   -2.804967    0.000000
     10          1           0        0.597346   -4.738019    0.000000
     11          1           0       -0.000000   -2.899578    0.000000
     12          1           0       -0.597346   -1.061136    0.000000
 ---------------------------------------------------------------------

 SCF Done:  E(RHF) =  -5.38996353462     A.U. after    6 cycles
 E2 =    -0.8220946318D+00 EUMP2 =    -0.62120581663994D+01

 The electronic state is 1-AG.
 Alpha  occ. eigenvalues --   -0.89459  -0.82586  -0.68190  -0.67409  -0.29744
 Alpha  occ. eigenvalues --   -0.19659
 Alpha virt. eigenvalues --   -0.14126   0.04322   0.52035   0.53177   1.02389
 Alpha virt. eigenvalues --    1.20429

 Mulliken charges:
               1
     1  H    0.192031
     2  H   -0.006428
     3  H    0.173702
     4  H   -0.355565
     5  H   -0.005769
     6  H    0.002029
     7  H    0.173702
     8  H   -0.355565
     9  H    0.002029
    10  H   -0.005769
    11  H   -0.006428
    12  H    0.192031
 Sum of Mulliken charges =  -0.00000

 Dipole moment (field-independent basis, Debye):
    X=              0.0000    Y=              0.0000    Z=             -0.0000  Tot=              0.0000
 Quadrupole moment (field-independent basis, Debye-Ang):
   XX=            -16.2109   YY=            -19.6675   ZZ=            -15.4679
   XY=              0.8990   XZ=             -0.0000   YZ=              0.0000

 Normal termination of Gaussian 09 at Fri Feb 17 14:53:17 2017.
