 Gaussian 09, Revision E.01,
 Gaussian 09:  ES64L-G09RevE.01 30-Nov-2015

 ----------------------------------------------------------------------
 #rhf/gen scf(symm,tight,novaracc,noincfock,fulldiag) stable(crhf) gues
 s=read geom=nocrowd test
 ----------------------------------------------------------------------

 hf stability analysis of h12 triangular lattice, y= 0.7369646693133348
 2
 ----------------------------------------------------------------------
 Symbolic Z-matrix:
 Charge =  0 Multiplicity = 1

                         Standard orientation:
 ---------------------------------------------------------------------
 Center     Atomic      Atomic             Coordinates (Angstroms)
 Number     Number       Type             X           Y           Z
 ---------------------------------------------------------------------
      1          1           0        1.073567    1.547698   -0.000000
      2          1           0        0.000000    1.613360   -0.000000
      3          1           0        1.073567    0.472125    0.000000
      4          1           0        0.000000    0.537787   -0.000000
      5          1           0       -1.073567    1.679022   -0.000000
      6          1           0       -1.073567    0.603449   -0.000000
      7          1           0       -1.073567   -0.472125    0.000000
      8          1           0       -0.000000   -0.537787    0.000000
      9          1           0        1.073567   -0.603449   -0.000000
     10          1           0        1.073567   -1.679022   -0.000000
     11          1           0       -0.000000   -1.613360    0.000000
     12          1           0       -1.073567   -1.547698    0.000000
 ---------------------------------------------------------------------

 SCF Done:  E(RHF) =  -5.02498113835     A.U. after   11 cycles
 E2 =    -0.1468358806D+00 EUMP2 =    -0.51718170189382D+01

 The electronic state is 1-AG.
 Alpha  occ. eigenvalues --   -0.90373  -0.72355  -0.60746  -0.49453  -0.15665
 Alpha  occ. eigenvalues --   -0.12551
 Alpha virt. eigenvalues --   -0.22118   0.06503   0.28567   0.45844   0.58743
 Alpha virt. eigenvalues --    1.00201

 Mulliken charges:
               1
     1  H    0.073746
     2  H   -0.011335
     3  H   -0.017552
     4  H   -0.094431
     5  H   -0.067966
     6  H    0.117538
     7  H   -0.017552
     8  H   -0.094431
     9  H    0.117538
    10  H   -0.067966
    11  H   -0.011335
    12  H    0.073746
 Sum of Mulliken charges =   0.00000

 Dipole moment (field-independent basis, Debye):
    X=             -0.0000    Y=              0.0000    Z=              0.0000  Tot=              0.0000
 Quadrupole moment (field-independent basis, Debye-Ang):
   XX=            -12.3196   YY=            -24.3374   ZZ=            -14.4279
   XY=              1.5681   XZ=             -0.0000   YZ=              0.0000

 Normal termination of Gaussian 09 at Fri Feb 17 15:00:15 2017.
