 Gaussian 09, Revision E.01,
 Gaussian 09:  ES64L-G09RevE.01 30-Nov-2015

 ----------------------------------------------------------------------
 #rhf/gen scf(symm,tight,novaracc,noincfock,fulldiag) stable(crhf) gues
 s=read geom=nocrowd test
 ----------------------------------------------------------------------

 hf stability analysis of h12 triangular lattice, y= 0.5744413597680069
 2
 ----------------------------------------------------------------------
 Symbolic Z-matrix:
 Charge =  0 Multiplicity = 1

                         Standard orientation:
 ---------------------------------------------------------------------
 Center     Atomic      Atomic             Coordinates (Angstroms)
 Number     Number       Type             X           Y           Z
 ---------------------------------------------------------------------
      1          1           0        0.997459    1.148916    0.000000
      2          1           0        0.000000    1.736464    0.000000
      3          1           0        0.997459   -0.008727    0.000000
      4          1           0        0.000000    0.578821    0.000000
      5          1           0       -0.997459    2.324012    0.000000
      6          1           0       -0.997459    1.166369    0.000000
      7          1           0       -0.997459    0.008727    0.000000
      8          1           0       -0.000000   -0.578821   -0.000000
      9          1           0        0.997459   -1.166369   -0.000000
     10          1           0        0.997459   -2.324012   -0.000000
     11          1           0       -0.000000   -1.736464   -0.000000
     12          1           0       -0.997459   -1.148916    0.000000
 ---------------------------------------------------------------------

 SCF Done:  E(RHF) =  -5.17225988726     A.U. after   11 cycles
 E2 =    -0.1691985558D+00 EUMP2 =    -0.53414584430874D+01

 The electronic state is 1-AG.
 Alpha  occ. eigenvalues --   -0.92639  -0.73449  -0.59454  -0.52823  -0.26069
 Alpha  occ. eigenvalues --    0.00951
 Alpha virt. eigenvalues --   -0.15564   0.11555   0.27595   0.37379   0.55410
 Alpha virt. eigenvalues --    0.56969

 Mulliken charges:
               1
     1  H    0.369101
     2  H   -0.163902
     3  H   -0.099387
     4  H   -0.054049
     5  H   -0.109742
     6  H    0.057979
     7  H   -0.099387
     8  H   -0.054049
     9  H    0.057979
    10  H   -0.109742
    11  H   -0.163902
    12  H    0.369101
 Sum of Mulliken charges =   0.00000

 Dipole moment (field-independent basis, Debye):
    X=              0.0000    Y=             -0.0000    Z=              0.0000  Tot=              0.0000
 Quadrupole moment (field-independent basis, Debye-Ang):
   XX=            -14.3198   YY=            -26.1029   ZZ=            -14.7450
   XY=              6.8176   XZ=              0.0000   YZ=             -0.0000

 Normal termination of Gaussian 09 at Fri Feb 17 14:57:25 2017.
