 Gaussian 09, Revision E.01,
 Gaussian 09:  ES64L-G09RevE.01 30-Nov-2015

 ----------------------------------------------------------------------
 #rhf/gen scf(symm,tight,novaracc,noincfock,fulldiag) stable(crhf) gues
 s=read geom=nocrowd test
 ----------------------------------------------------------------------

 ----------------------------------------------------------------------
 hf stability analysis of h12 triangular lattice, y= 1.1064166633763877
 ----------------------------------------------------------------------
 Symbolic Z-matrix:
 Charge =  0 Multiplicity = 1

                         Standard orientation:
 ---------------------------------------------------------------------
 Center     Atomic      Atomic             Coordinates (Angstroms)
 Number     Number       Type             X           Y           Z
 ---------------------------------------------------------------------
      1          1           0        0.943926    2.613057   -0.000000
      2          1           0        0.000000    1.834944   -0.000000
      3          1           0        0.943926    1.389760   -0.000000
      4          1           0        0.000000    0.611648   -0.000000
      5          1           0       -0.943926    1.056832   -0.000000
      6          1           0       -0.943926   -0.166464   -0.000000
      7          1           0       -0.943926   -1.389760    0.000000
      8          1           0       -0.000000   -0.611648    0.000000
      9          1           0        0.943926    0.166464    0.000000
     10          1           0        0.943926   -1.056832    0.000000
     11          1           0       -0.000000   -1.834944    0.000000
     12          1           0       -0.943926   -2.613057    0.000000
 ---------------------------------------------------------------------

 SCF Done:  E(RHF) =  -5.22776343380     A.U. after   11 cycles
 E2 =    -0.4718251757D+00 EUMP2 =    -0.56995886095321D+01

 The electronic state is 1-AG.
 Alpha  occ. eigenvalues --   -0.92402  -0.72538  -0.57010  -0.54151  -0.31909
 Alpha  occ. eigenvalues --    0.05967
 Alpha virt. eigenvalues --   -0.10561   0.15550   0.22711   0.36604   0.50494
 Alpha virt. eigenvalues --    0.51328

 Mulliken charges:
               1
     1  H   -0.003109
     2  H   -0.269826
     3  H    0.045083
     4  H   -0.086296
     5  H    0.320877
     6  H   -0.006730
     7  H    0.045083
     8  H   -0.086296
     9  H   -0.006730
    10  H    0.320877
    11  H   -0.269826
    12  H   -0.003109
 Sum of Mulliken charges =   0.00000

 Dipole moment (field-independent basis, Debye):
    X=              0.0000    Y=              0.0000    Z=             -0.0000  Tot=              0.0000
 Quadrupole moment (field-independent basis, Debye-Ang):
   XX=            -14.3907   YY=            -24.6626   ZZ=            -14.8691
   XY=             -3.8086   XZ=              0.0000   YZ=              0.0000

 Normal termination of Gaussian 09 at Fri Feb 17 15:04:43 2017.
