 Gaussian 09, Revision E.01,
 Gaussian 09:  ES64L-G09RevE.01 30-Nov-2015

 ----------------------------------------------------------------------
 #rhf/gen scf(symm,tight,novaracc,noincfock,fulldiag) stable(crhf) gues
 s=read geom=nocrowd test
 ----------------------------------------------------------------------

 hf stability analysis of h12 triangular lattice, y= 0.8042800232144692
 3
 ----------------------------------------------------------------------
 Symbolic Z-matrix:
 Charge =  0 Multiplicity = 1

                         Standard orientation:
 ---------------------------------------------------------------------
 Center     Atomic      Atomic             Coordinates (Angstroms)
 Number     Number       Type             X           Y           Z
 ---------------------------------------------------------------------
      1          1           0        1.071111    1.739098   -0.000000
      2          1           0        0.000000    1.617061   -0.000000
      3          1           0        1.071111    0.661058   -0.000000
      4          1           0        0.000000    0.539020   -0.000000
      5          1           0       -1.071111    1.495023   -0.000000
      6          1           0       -1.071111    0.416983   -0.000000
      7          1           0       -1.071111   -0.661058   -0.000000
      8          1           0       -0.000000   -0.539020   -0.000000
      9          1           0        1.071111   -0.416983   -0.000000
     10          1           0        1.071111   -1.495023   -0.000000
     11          1           0       -0.000000   -1.617061   -0.000000
     12          1           0       -1.071111   -1.739098   -0.000000
 ---------------------------------------------------------------------

 SCF Done:  E(RHF) =  -5.02947823947     A.U. after   11 cycles
 E2 =    -0.1534412524D+00 EUMP2 =    -0.51829194919187D+01

 The electronic state is 1-AG.
 Alpha  occ. eigenvalues --   -0.90400  -0.72545  -0.60613  -0.49551  -0.16726
 Alpha  occ. eigenvalues --   -0.11219
 Alpha virt. eigenvalues --   -0.22020   0.06723   0.28540   0.44630   0.59153
 Alpha virt. eigenvalues --    0.98250

 Mulliken charges:
               1
     1  H   -0.122027
     2  H   -0.008499
     3  H    0.165730
     4  H   -0.094272
     5  H    0.135652
     6  H   -0.076584
     7  H    0.165730
     8  H   -0.094272
     9  H   -0.076584
    10  H    0.135652
    11  H   -0.008499
    12  H   -0.122027
 Sum of Mulliken charges =  -0.00000

 Dipole moment (field-independent basis, Debye):
    X=             -0.0000    Y=              0.0000    Z=             -0.0000  Tot=              0.0000
 Quadrupole moment (field-independent basis, Debye-Ang):
   XX=            -12.4696   YY=            -24.4414   ZZ=            -14.4427
   XY=             -2.8943   XZ=              0.0000   YZ=              0.0000

 Normal termination of Gaussian 09 at Fri Feb 17 15:01:20 2017.
