 Gaussian 09, Revision E.01,
 Gaussian 09:  ES64L-G09RevE.01 30-Nov-2015

 ----------------------------------------------------------------------
 #rhf/gen scf(symm,tight,novaracc,noincfock,fulldiag) stable(crhf) gues
 s=read geom=nocrowd test
 ----------------------------------------------------------------------

 hf stability analysis of h12 triangular lattice, y= 0.2357806384192915
 3
 ----------------------------------------------------------------------
 Symbolic Z-matrix:
 Charge =  0 Multiplicity = 1

                         Standard orientation:
 ---------------------------------------------------------------------
 Center     Atomic      Atomic             Coordinates (Angstroms)
 Number     Number       Type             X           Y           Z
 ---------------------------------------------------------------------
      1          1           0        0.469390    1.275198   -0.000000
      2          1           0        0.000000    3.690001   -0.000000
      3          1           0        0.469390   -1.184803    0.000000
      4          1           0        0.000000    1.230000   -0.000000
      5          1           0       -0.469390    6.104805   -0.000000
      6          1           0       -0.469390    3.644804   -0.000000
      7          1           0       -0.469390    1.184803    0.000000
      8          1           0       -0.000000   -1.230000   -0.000000
      9          1           0        0.469390   -3.644804   -0.000000
     10          1           0        0.469390   -6.104805   -0.000000
     11          1           0       -0.000000   -3.690001   -0.000000
     12          1           0       -0.469390   -1.275198   -0.000000
 ---------------------------------------------------------------------

 SCF Done:  E(RHF) =  -4.36267197813     A.U. after    6 cycles
 E2 =    -0.1093330464D+01 EUMP2 =    -0.54560024419730D+01

 The electronic state is 1-AG.
 Alpha  occ. eigenvalues --   -0.94531  -0.93756  -0.72763  -0.72758  -0.20612
 Alpha  occ. eigenvalues --   -0.18768
 Alpha virt. eigenvalues --   -0.16291   0.06402   0.64123   0.64260   1.51225
 Alpha virt. eigenvalues --    1.61651

 Mulliken charges:
               1
     1  H    0.341340
     2  H   -0.002599
     3  H    0.344128
     4  H   -0.682886
     5  H    0.001388
     6  H   -0.001372
     7  H    0.344128
     8  H   -0.682886
     9  H   -0.001372
    10  H    0.001388
    11  H   -0.002599
    12  H    0.341340
 Sum of Mulliken charges =  -0.00000

 Dipole moment (field-independent basis, Debye):
    X=              0.0000    Y=             -0.0000    Z=              0.0000  Tot=              0.0000
 Quadrupole moment (field-independent basis, Debye-Ang):
   XX=            -16.7796   YY=            -16.3347   ZZ=            -15.5137
   XY=              0.1189   XZ=             -0.0000   YZ=              0.0000

 Normal termination of Gaussian 09 at Fri Feb 17 14:52:44 2017.
