 Gaussian 09, Revision E.01,
 Gaussian 09:  ES64L-G09RevE.01 30-Nov-2015

 ----------------------------------------------------------------------
 #rhf/gen scf(symm,tight,novaracc,noincfock,fulldiag) stable(crhf) gues
 s=read geom=nocrowd test
 ----------------------------------------------------------------------

 hf stability analysis of h12 triangular lattice, y= 0.3388836262365067
 0
 ----------------------------------------------------------------------
 Symbolic Z-matrix:
 Charge =  0 Multiplicity = 1

                         Standard orientation:
 ---------------------------------------------------------------------
 Center     Atomic      Atomic             Coordinates (Angstroms)
 Number     Number       Type             X           Y           Z
 ---------------------------------------------------------------------
      1          1           0        0.664744    1.000756   -0.000000
      2          1           0        0.000000    2.605590   -0.000000
      3          1           0        0.664744   -0.736304    0.000000
      4          1           0        0.000000    0.868530   -0.000000
      5          1           0       -0.664744    4.210424   -0.000000
      6          1           0       -0.664744    2.473364   -0.000000
      7          1           0       -0.664744    0.736304   -0.000000
      8          1           0       -0.000000   -0.868530   -0.000000
      9          1           0        0.664744   -2.473364    0.000000
     10          1           0        0.664744   -4.210424   -0.000000
     11          1           0       -0.000000   -2.605590   -0.000000
     12          1           0       -0.664744   -1.000756   -0.000000
 ---------------------------------------------------------------------

 SCF Done:  E(RHF) =  -5.63751376757     A.U. after    6 cycles
 E2 =    -0.7185714901D+00 EUMP2 =    -0.63560852576716D+01

 The electronic state is 1-AG.
 Alpha  occ. eigenvalues --   -0.88661  -0.78657  -0.65800  -0.62827  -0.34901
 Alpha  occ. eigenvalues --   -0.18060
 Alpha virt. eigenvalues --   -0.11936   0.03164   0.46744   0.49234   0.83134
 Alpha virt. eigenvalues --    1.04541

 Mulliken charges:
               1
     1  H    0.161573
     2  H   -0.006750
     3  H    0.119237
     4  H   -0.263757
     5  H   -0.021847
     6  H    0.011544
     7  H    0.119237
     8  H   -0.263757
     9  H    0.011544
    10  H   -0.021847
    11  H   -0.006750
    12  H    0.161573
 Sum of Mulliken charges =  -0.00000

 Dipole moment (field-independent basis, Debye):
    X=              0.0000    Y=              0.0000    Z=             -0.0000  Tot=              0.0000
 Quadrupole moment (field-independent basis, Debye-Ang):
   XX=            -15.8132   YY=            -22.3912   ZZ=            -15.3729
   XY=              1.7349   XZ=             -0.0000   YZ=              0.0000

 Normal termination of Gaussian 09 at Fri Feb 17 14:53:40 2017.
