 Gaussian 09, Revision E.01,
 Gaussian 09:  ES64L-G09RevE.01 30-Nov-2015

 ----------------------------------------------------------------------
 #rhf/gen scf(symm,tight,novaracc,noincfock,fulldiag) stable(crhf) gues
 s=read geom=nocrowd test
 ----------------------------------------------------------------------

 hf stability analysis of h12 triangular lattice, y= 0.6807147699477958
 9
 ----------------------------------------------------------------------
 Symbolic Z-matrix:
 Charge =  0 Multiplicity = 1

                         Standard orientation:
 ---------------------------------------------------------------------
 Center     Atomic      Atomic             Coordinates (Angstroms)
 Number     Number       Type             X           Y           Z
 ---------------------------------------------------------------------
      1          1           0        1.061758    1.395919    0.000000
      2          1           0        0.000000    1.631305    0.000000
      3          1           0        1.061758    0.308382    0.000000
      4          1           0        0.000000    0.543768    0.000000
      5          1           0       -1.061758    1.866691    0.000000
      6          1           0       -1.061758    0.779154    0.000000
      7          1           0       -1.061758   -0.308382    0.000000
      8          1           0       -0.000000   -0.543768    0.000000
      9          1           0        1.061758   -0.779154    0.000000
     10          1           0        1.061758   -1.866691    0.000000
     11          1           0       -0.000000   -1.631305    0.000000
     12          1           0       -1.061758   -1.395919    0.000000
 ---------------------------------------------------------------------

 SCF Done:  E(RHF) =  -5.04768873802     A.U. after   11 cycles
 E2 =    -0.1680803225D+00 EUMP2 =    -0.52157690605211D+01

 The electronic state is 1-AG.
 Alpha  occ. eigenvalues --   -0.90570  -0.73154  -0.60245  -0.50008  -0.18703
 Alpha  occ. eigenvalues --   -0.08281
 Alpha virt. eigenvalues --   -0.21482   0.07474   0.28680   0.40915   0.59857
 Alpha virt. eigenvalues --    0.91223

 Mulliken charges:
               1
     1  H    0.247552
     2  H   -0.005806
     3  H   -0.173723
     4  H   -0.088703
     5  H   -0.200478
     6  H    0.221158
     7  H   -0.173723
     8  H   -0.088703
     9  H    0.221158
    10  H   -0.200478
    11  H   -0.005806
    12  H    0.247552
 Sum of Mulliken charges =  -0.00000

 Dipole moment (field-independent basis, Debye):
    X=             -0.0000    Y=              0.0000    Z=              0.0000  Tot=              0.0000
 Quadrupole moment (field-independent basis, Debye-Ang):
   XX=            -13.0152   YY=            -24.7759   ZZ=            -14.4960
   XY=              5.3143   XZ=              0.0000   YZ=             -0.0000

 Normal termination of Gaussian 09 at Fri Feb 17 14:59:17 2017.
