 Gaussian 09, Revision E.01,
 Gaussian 09:  ES64L-G09RevE.01 30-Nov-2015

 ----------------------------------------------------------------------
 #rhf/gen scf(symm,tight,novaracc,noincfock,fulldiag) stable(crhf) gues
 s=read geom=nocrowd test
 ----------------------------------------------------------------------

 ----------------------------------------------------------------------
 hf stability analysis of h12 triangular lattice, y= 1.1879529318790409
 ----------------------------------------------------------------------
 Symbolic Z-matrix:
 Charge =  0 Multiplicity = 1

                         Standard orientation:
 ---------------------------------------------------------------------
 Center     Atomic      Atomic             Coordinates (Angstroms)
 Number     Number       Type             X           Y           Z
 ---------------------------------------------------------------------
      1          1           0        0.899633    2.840759   -0.000000
      2          1           0        0.000000    1.925285   -0.000000
      3          1           0        0.899633    1.557235   -0.000000
      4          1           0        0.000000    0.641762   -0.000000
      5          1           0       -0.899633    1.009811   -0.000000
      6          1           0       -0.899633   -0.273712   -0.000000
      7          1           0       -0.899633   -1.557235    0.000000
      8          1           0       -0.000000   -0.641762   -0.000000
      9          1           0        0.899633    0.273712   -0.000000
     10          1           0        0.899633   -1.009811   -0.000000
     11          1           0       -0.000000   -1.925285   -0.000000
     12          1           0       -0.899633   -2.840759    0.000000
 ---------------------------------------------------------------------

 SCF Done:  E(RHF) =  -5.36556890377     A.U. after   10 cycles
 E2 =    -0.6037474490D+00 EUMP2 =    -0.59693163528218D+01

 The electronic state is 1-AG.
 Alpha  occ. eigenvalues --   -0.91809  -0.74967  -0.57021  -0.54150  -0.37253
 Alpha  occ. eigenvalues --    0.02299
 Alpha virt. eigenvalues --   -0.07010   0.05790   0.28313   0.32231   0.51762
 Alpha virt. eigenvalues --    0.58427

 Mulliken charges:
               1
     1  H   -0.174107
     2  H   -0.068416
     3  H    0.155159
     4  H   -0.122303
     5  H    0.210425
     6  H   -0.000758
     7  H    0.155159
     8  H   -0.122303
     9  H   -0.000758
    10  H    0.210425
    11  H   -0.068416
    12  H   -0.174107
 Sum of Mulliken charges =  -0.00000

 Dipole moment (field-independent basis, Debye):
    X=             -0.0000    Y=             -0.0000    Z=             -0.0000  Tot=              0.0000
 Quadrupole moment (field-independent basis, Debye-Ang):
   XX=            -14.5592   YY=            -31.6963   ZZ=            -14.8253
   XY=             -7.0329   XZ=              0.0000   YZ=              0.0000

 Normal termination of Gaussian 09 at Fri Feb 17 15:05:22 2017.
