 Gaussian 09, Revision E.01,
 Gaussian 09:  ES64L-G09RevE.01 30-Nov-2015

 ----------------------------------------------------------------------
 #rhf/gen scf(symm,tight,novaracc,noincfock,fulldiag) stable(crhf) gues
 s=read geom=nocrowd test
 ----------------------------------------------------------------------

 hf stability analysis of h12 triangular lattice, y= 0.6328681913590388
 2
 ----------------------------------------------------------------------
 Symbolic Z-matrix:
 Charge =  0 Multiplicity = 1

                         Standard orientation:
 ---------------------------------------------------------------------
 Center     Atomic      Atomic             Coordinates (Angstroms)
 Number     Number       Type             X           Y           Z
 ---------------------------------------------------------------------
      1          1           0        1.039988    1.276616    0.000000
      2          1           0        0.000000    1.665452    0.000000
      3          1           0        1.039988    0.166315    0.000000
      4          1           0        0.000000    0.555151    0.000000
      5          1           0       -1.039988    2.054288    0.000000
      6          1           0       -1.039988    0.943986    0.000000
      7          1           0       -1.039988   -0.166315   -0.000000
      8          1           0       -0.000000   -0.555151    0.000000
      9          1           0        1.039988   -0.943986    0.000000
     10          1           0        1.039988   -2.054288    0.000000
     11          1           0       -0.000000   -1.665452    0.000000
     12          1           0       -1.039988   -1.276616   -0.000000
 ---------------------------------------------------------------------

 SCF Done:  E(RHF) =  -5.09365275407     A.U. after   11 cycles
 E2 =    -0.1967583342D+00 EUMP2 =    -0.52904110882354D+01

 The electronic state is 1-AG.
 Alpha  occ. eigenvalues --   -0.91339  -0.73761  -0.59998  -0.51154  -0.21260
 Alpha  occ. eigenvalues --   -0.04280
 Alpha virt. eigenvalues --   -0.19658   0.08719   0.30695   0.35014   0.59178
 Alpha virt. eigenvalues --    0.77102

 Mulliken charges:
               1
     1  H    0.349186
     2  H   -0.054889
     3  H   -0.203395
     4  H   -0.062837
     5  H   -0.207935
     6  H    0.179870
     7  H   -0.203395
     8  H   -0.062837
     9  H    0.179870
    10  H   -0.207935
    11  H   -0.054889
    12  H    0.349186
 Sum of Mulliken charges =   0.00000

 Dipole moment (field-independent basis, Debye):
    X=              0.0000    Y=             -0.0000    Z=             -0.0000  Tot=              0.0000
 Quadrupole moment (field-independent basis, Debye-Ang):
   XX=            -13.7787   YY=            -25.5440   ZZ=            -14.5979
   XY=              7.3379   XZ=              0.0000   YZ=              0.0000

 Normal termination of Gaussian 09 at Fri Feb 17 14:58:28 2017.
