 Gaussian 09, Revision E.01,
 Gaussian 09:  ES64L-G09RevE.01 30-Nov-2015

 ----------------------------------------------------------------------
 #rhf/gen scf(symm,tight,novaracc,noincfock,fulldiag) stable(crhf) gues
 s=read geom=nocrowd test
 ----------------------------------------------------------------------

 ----------------------------------------------------------------------
 hf stability analysis of h12 triangular lattice, y= 1.0760973851886237
 ----------------------------------------------------------------------
 Symbolic Z-matrix:
 Charge =  0 Multiplicity = 1

                         Standard orientation:
 ---------------------------------------------------------------------
 Center     Atomic      Atomic             Coordinates (Angstroms)
 Number     Number       Type             X           Y           Z
 ---------------------------------------------------------------------
      1          1           0        0.960305    2.527289    0.000000
      2          1           0        0.000000    1.803647    0.000000
      3          1           0        0.960305    1.324857    0.000000
      4          1           0        0.000000    0.601216    0.000000
      5          1           0       -0.960305    1.080006    0.000000
      6          1           0       -0.960305   -0.122426    0.000000
      7          1           0       -0.960305   -1.324857    0.000000
      8          1           0       -0.000000   -0.601216    0.000000
      9          1           0        0.960305    0.122426   -0.000000
     10          1           0        0.960305   -1.080006   -0.000000
     11          1           0       -0.000000   -1.803647    0.000000
     12          1           0       -0.960305   -2.527289    0.000000
 ---------------------------------------------------------------------

 SCF Done:  E(RHF) =  -5.21506982548     A.U. after   11 cycles
 E2 =    -0.1795279773D+00 EUMP2 =    -0.53945978028013D+01

 The electronic state is 1-AG.
 Alpha  occ. eigenvalues --   -0.92620  -0.72817  -0.57868  -0.53803  -0.30200
 Alpha  occ. eigenvalues --    0.04534
 Alpha virt. eigenvalues --   -0.12093   0.15025   0.23212   0.39813   0.48752
 Alpha virt. eigenvalues --    0.52391

 Mulliken charges:
               1
     1  H   -0.030072
     2  H   -0.229878
     3  H    0.026802
     4  H   -0.074026
     5  H    0.336684
     6  H   -0.029510
     7  H    0.026802
     8  H   -0.074026
     9  H   -0.029510
    10  H    0.336684
    11  H   -0.229878
    12  H   -0.030072
 Sum of Mulliken charges =  -0.00000

 Dipole moment (field-independent basis, Debye):
    X=              0.0000    Y=             -0.0000    Z=             -0.0000  Tot=              0.0000
 Quadrupole moment (field-independent basis, Debye-Ang):
   XX=            -14.4804   YY=            -25.0925   ZZ=            -14.8386
   XY=             -4.8312   XZ=              0.0000   YZ=              0.0000

 Normal termination of Gaussian 09 at Fri Feb 17 15:04:27 2017.
