 Gaussian 09, Revision E.01,
 Gaussian 09:  ES64L-G09RevE.01 30-Nov-2015

 ----------------------------------------------------------------------
 #rhf/gen scf(symm,tight,novaracc,noincfock,fulldiag) stable(crhf) gues
 s=read geom=nocrowd test
 ----------------------------------------------------------------------

 hf stability analysis of h12 triangular lattice, y= 0.4521619835073459
 3
 ----------------------------------------------------------------------
 Symbolic Z-matrix:
 Charge =  0 Multiplicity = 1

                         Standard orientation:
 ---------------------------------------------------------------------
 Center     Atomic      Atomic             Coordinates (Angstroms)
 Number     Number       Type             X           Y           Z
 ---------------------------------------------------------------------
      1          1           0        0.852453    0.979150   -0.000000
      2          1           0        0.000000    2.031842   -0.000000
      3          1           0        0.852453   -0.375411   -0.000000
      4          1           0        0.000000    0.677281   -0.000000
      5          1           0       -0.852453    3.084535   -0.000000
      6          1           0       -0.852453    1.729973   -0.000000
      7          1           0       -0.852453    0.375411   -0.000000
      8          1           0       -0.000000   -0.677281   -0.000000
      9          1           0        0.852453   -1.729973    0.000000
     10          1           0        0.852453   -3.084535   -0.000000
     11          1           0       -0.000000   -2.031842   -0.000000
     12          1           0       -0.852453   -0.979150   -0.000000
 ---------------------------------------------------------------------

 SCF Done:  E(RHF) =  -5.55315104456     A.U. after    8 cycles
 E2 =    -0.7718614857D+00 EUMP2 =    -0.63250125303041D+01

 The electronic state is 1-AG.
 Alpha  occ. eigenvalues --   -0.90654  -0.75442  -0.59037  -0.50994  -0.41674
 Alpha  occ. eigenvalues --   -0.04656
 Alpha virt. eigenvalues --   -0.04394   0.00690   0.34489   0.36056   0.51857
 Alpha virt. eigenvalues --    0.67371

 Mulliken charges:
               1
     1  H    0.181944
     2  H   -0.015635
     3  H    0.017133
     4  H   -0.141746
     5  H   -0.141269
     6  H    0.099574
     7  H    0.017133
     8  H   -0.141746
     9  H    0.099574
    10  H   -0.141269
    11  H   -0.015635
    12  H    0.181944
 Sum of Mulliken charges =  -0.00000

 Dipole moment (field-independent basis, Debye):
    X=              0.0000    Y=              0.0000    Z=             -0.0000  Tot=              0.0000
 Quadrupole moment (field-independent basis, Debye-Ang):
   XX=            -14.7861   YY=            -30.6025   ZZ=            -14.9555
   XY=              6.0221   XZ=              0.0000   YZ=              0.0000

 Normal termination of Gaussian 09 at Fri Feb 17 14:55:19 2017.
