 Gaussian 09, Revision E.01,
 Gaussian 09:  ES64L-G09RevE.01 30-Nov-2015

 ----------------------------------------------------------------------
 #rhf/gen scf(symm,tight,novaracc,noincfock,fulldiag) stable(crhf) gues
 s=read geom=nocrowd test
 ----------------------------------------------------------------------

 hf stability analysis of h12 triangular lattice, y= 0.5977250200806807
 4
 ----------------------------------------------------------------------
 Symbolic Z-matrix:
 Charge =  0 Multiplicity = 1

                         Standard orientation:
 ---------------------------------------------------------------------
 Center     Atomic      Atomic             Coordinates (Angstroms)
 Number     Number       Type             X           Y           Z
 ---------------------------------------------------------------------
      1          1           0        1.016554    1.197011    0.000000
      2          1           0        0.000000    1.703846   -0.000000
      3          1           0        1.016554    0.061114    0.000000
      4          1           0        0.000000    0.567949   -0.000000
      5          1           0       -1.016554    2.210681   -0.000000
      6          1           0       -1.016554    1.074784   -0.000000
      7          1           0       -1.016554   -0.061114    0.000000
      8          1           0       -0.000000   -0.567949   -0.000000
      9          1           0        1.016554   -1.074784   -0.000000
     10          1           0        1.016554   -2.210681   -0.000000
     11          1           0       -0.000000   -1.703846   -0.000000
     12          1           0       -1.016554   -1.197011    0.000000
 ---------------------------------------------------------------------

 SCF Done:  E(RHF) =  -5.14053663317     A.U. after   10 cycles
 E2 =    -0.1735436436D+00 EUMP2 =    -0.53140802767663D+01

 The electronic state is 1-AG.
 Alpha  occ. eigenvalues --   -0.92220  -0.73697  -0.59863  -0.52168  -0.23864
 Alpha  occ. eigenvalues --   -0.01198
 Alpha virt. eigenvalues --   -0.17405   0.10042   0.30578   0.34247   0.57175
 Alpha virt. eigenvalues --    0.64941

 Mulliken charges:
               1
     1  H    0.374564
     2  H   -0.122109
     3  H   -0.148088
     4  H   -0.051087
     5  H   -0.155832
     6  H    0.102552
     7  H   -0.148088
     8  H   -0.051087
     9  H    0.102552
    10  H   -0.155832
    11  H   -0.122109
    12  H    0.374564
 Sum of Mulliken charges =  -0.00000

 Dipole moment (field-independent basis, Debye):
    X=              0.0000    Y=             -0.0000    Z=              0.0000  Tot=              0.0000
 Quadrupole moment (field-independent basis, Debye-Ang):
   XX=            -14.1409   YY=            -26.1077   ZZ=            -14.6852
   XY=              7.4405   XZ=              0.0000   YZ=              0.0000

 Normal termination of Gaussian 09 at Fri Feb 17 14:57:51 2017.
