 Gaussian 09, Revision E.01,
 Gaussian 09:  ES64L-G09RevE.01 30-Nov-2015

 ----------------------------------------------------------------------
 #rhf/gen scf(symm,tight,novaracc,noincfock,fulldiag) stable(crhf) gues
 s=read geom=nocrowd test
 ----------------------------------------------------------------------

 ----------------------------------------------------------------------
 hf stability analysis of h12 triangular lattice, y= 2.2086216254199424
 ----------------------------------------------------------------------
 Symbolic Z-matrix:
 Charge =  0 Multiplicity = 1

                         Standard orientation:
 ---------------------------------------------------------------------
 Center     Atomic      Atomic             Coordinates (Angstroms)
 Number     Number       Type             X           Y           Z
 ---------------------------------------------------------------------
      1          1           0        0.519191    5.498644   -0.000000
      2          1           0        0.000000    3.336056   -0.000000
      3          1           0        0.519191    3.274606   -0.000000
      4          1           0        0.000000    1.112019   -0.000000
      5          1           0       -0.519191    1.173469   -0.000000
      6          1           0       -0.519191   -1.050568   -0.000000
      7          1           0       -0.519191   -3.274606    0.000000
      8          1           0       -0.000000   -1.112019    0.000000
      9          1           0        0.519191    1.050568   -0.000000
     10          1           0        0.519191   -1.173469    0.000000
     11          1           0       -0.000000   -3.336056    0.000000
     12          1           0       -0.519191   -5.498644    0.000000
 ---------------------------------------------------------------------

 SCF Done:  E(RHF) =  -4.86656310870     A.U. after    6 cycles
 E2 =    -0.9725698228D+00 EUMP2 =    -0.58391329315416D+01

 The electronic state is 1-AG.
 Alpha  occ. eigenvalues --   -0.91943  -0.89132  -0.70966  -0.70910  -0.23302
 Alpha  occ. eigenvalues --   -0.20471
 Alpha virt. eigenvalues --   -0.15680   0.05424   0.59017   0.59370   1.29771
 Alpha virt. eigenvalues --    1.43188

 Mulliken charges:
               1
     1  H    0.000785
     2  H   -0.004224
     3  H   -0.001366
     4  H   -0.524185
     5  H    0.265504
     6  H    0.263486
     7  H   -0.001366
     8  H   -0.524185
     9  H    0.263486
    10  H    0.265504
    11  H   -0.004224
    12  H    0.000785
 Sum of Mulliken charges =  -0.00000

 Dipole moment (field-independent basis, Debye):
    X=             -0.0000    Y=             -0.0000    Z=             -0.0000  Tot=              0.0000
 Quadrupole moment (field-independent basis, Debye-Ang):
   XX=            -16.5971   YY=            -17.3361   ZZ=            -15.5216
   XY=             -0.3230   XZ=             -0.0000   YZ=              0.0000

 Normal termination of Gaussian 09 at Fri Feb 17 15:08:25 2017.
