 Gaussian 09, Revision E.01,
 Gaussian 09:  ES64L-G09RevE.01 30-Nov-2015

 ----------------------------------------------------------------------
 #rhf/gen scf(symm,tight,novaracc,noincfock,fulldiag) stable(crhf) gues
 s=read geom=nocrowd test
 ----------------------------------------------------------------------

 hf stability analysis of h12 triangular lattice, y= 0.2980984873290020
 2
 ----------------------------------------------------------------------
 Symbolic Z-matrix:
 Charge =  0 Multiplicity = 1

                         Standard orientation:
 ---------------------------------------------------------------------
 Center     Atomic      Atomic             Coordinates (Angstroms)
 Number     Number       Type             X           Y           Z
 ---------------------------------------------------------------------
      1          1           0        0.589258    1.070487    0.000000
      2          1           0        0.000000    2.939375    0.000000
      3          1           0        0.589258   -0.889096    0.000000
      4          1           0        0.000000    0.979792    0.000000
      5          1           0       -0.589258    4.808263    0.000000
      6          1           0       -0.589258    2.848680    0.000000
      7          1           0       -0.589258    0.889096    0.000000
      8          1           0       -0.000000   -0.979792   -0.000000
      9          1           0        0.589258   -2.848680   -0.000000
     10          1           0        0.589258   -4.808263   -0.000000
     11          1           0       -0.000000   -2.939375   -0.000000
     12          1           0       -0.589258   -1.070487   -0.000000
 ---------------------------------------------------------------------

 SCF Done:  E(RHF) =  -5.34855795329     A.U. after    6 cycles
 E2 =    -0.8360255770D+00 EUMP2 =    -0.61845835302966D+01

 The electronic state is 1-AG.
 Alpha  occ. eigenvalues --   -0.89633  -0.83188  -0.68477  -0.67840  -0.29105
 Alpha  occ. eigenvalues --   -0.19787
 Alpha virt. eigenvalues --   -0.14330   0.04434   0.52710   0.53736   1.04940
 Alpha virt. eigenvalues --    1.22524

 Mulliken charges:
               1
     1  H    0.197522
     2  H   -0.006268
     3  H    0.181435
     4  H   -0.369461
     5  H   -0.004602
     6  H    0.001373
     7  H    0.181435
     8  H   -0.369461
     9  H    0.001373
    10  H   -0.004602
    11  H   -0.006268
    12  H    0.197522
 Sum of Mulliken charges =  -0.00000

 Dipole moment (field-independent basis, Debye):
    X=              0.0000    Y=             -0.0000    Z=              0.0000  Tot=              0.0000
 Quadrupole moment (field-independent basis, Debye-Ang):
   XX=            -16.2555   YY=            -19.3824   ZZ=            -15.4766
   XY=              0.8217   XZ=              0.0000   YZ=             -0.0000

 Normal termination of Gaussian 09 at Fri Feb 17 14:53:14 2017.
