 Gaussian 09, Revision E.01,
 Gaussian 09:  ES64L-G09RevE.01 30-Nov-2015

 ----------------------------------------------------------------------
 #rhf/gen scf(symm,tight,novaracc,noincfock,fulldiag) stable(crhf) gues
 s=read geom=nocrowd test
 ----------------------------------------------------------------------

 ----------------------------------------------------------------------
 hf stability analysis of h12 triangular lattice, y= 1.5217180473945009
 ----------------------------------------------------------------------
 Symbolic Z-matrix:
 Charge =  0 Multiplicity = 1

                         Standard orientation:
 ---------------------------------------------------------------------
 Center     Atomic      Atomic             Coordinates (Angstroms)
 Number     Number       Type             X           Y           Z
 ---------------------------------------------------------------------
      1          1           0        0.736274    3.737185   -0.000000
      2          1           0        0.000000    2.352455   -0.000000
      3          1           0        0.736274    2.168881   -0.000000
      4          1           0        0.000000    0.784152   -0.000000
      5          1           0       -0.736274    0.967725   -0.000000
      6          1           0       -0.736274   -0.600578    0.000000
      7          1           0       -0.736274   -2.168881   -0.000000
      8          1           0       -0.000000   -0.784152   -0.000000
      9          1           0        0.736274    0.600578    0.000000
     10          1           0        0.736274   -0.967725   -0.000000
     11          1           0       -0.000000   -2.352455   -0.000000
     12          1           0       -0.736274   -3.737185   -0.000000
 ---------------------------------------------------------------------

 SCF Done:  E(RHF) =  -5.73121914575     A.U. after    7 cycles
 E2 =    -0.6378968259D+00 EUMP2 =    -0.63691159716188D+01

 The electronic state is 1-AG.
 Alpha  occ. eigenvalues --   -0.88864  -0.76576  -0.63274  -0.56266  -0.40082
 Alpha  occ. eigenvalues --   -0.14948
 Alpha virt. eigenvalues --   -0.08478   0.01199   0.41658   0.46178   0.66154
 Alpha virt. eigenvalues --    0.89693

 Mulliken charges:
               1
     1  H   -0.054179
     2  H   -0.005414
     3  H    0.031982
     4  H   -0.201410
     5  H    0.153868
     6  H    0.075152
     7  H    0.031982
     8  H   -0.201410
     9  H    0.075152
    10  H    0.153868
    11  H   -0.005414
    12  H   -0.054179
 Sum of Mulliken charges =  -0.00000

 Dipole moment (field-independent basis, Debye):
    X=             -0.0000    Y=             -0.0000    Z=              0.0000  Tot=              0.0000
 Quadrupole moment (field-independent basis, Debye-Ang):
   XX=            -15.3785   YY=            -25.7139   ZZ=            -15.2376
   XY=             -3.0430   XZ=             -0.0000   YZ=             -0.0000

 Normal termination of Gaussian 09 at Fri Feb 17 15:07:00 2017.
