 Gaussian 09, Revision E.01,
 Gaussian 09:  ES64L-G09RevE.01 30-Nov-2015

 ----------------------------------------------------------------------
 #rhf/gen scf(symm,tight,novaracc,noincfock,fulldiag) stable(crhf) gues
 s=read geom=nocrowd test
 ----------------------------------------------------------------------

 ----------------------------------------------------------------------
 hf stability analysis of h12 triangular lattice, y= 1.0153487862282633
 ----------------------------------------------------------------------
 Symbolic Z-matrix:
 Charge =  0 Multiplicity = 1

                         Standard orientation:
 ---------------------------------------------------------------------
 Center     Atomic      Atomic             Coordinates (Angstroms)
 Number     Number       Type             X           Y           Z
 ---------------------------------------------------------------------
      1          1           0        0.992242    2.353640    0.000000
      2          1           0        0.000000    1.745593    0.000000
      3          1           0        0.992242    1.189911    0.000000
      4          1           0        0.000000    0.581864    0.000000
      5          1           0       -0.992242    1.137547    0.000000
      6          1           0       -0.992242   -0.026182    0.000000
      7          1           0       -0.992242   -1.189911    0.000000
      8          1           0       -0.000000   -0.581864    0.000000
      9          1           0        0.992242    0.026182    0.000000
     10          1           0        0.992242   -1.137547    0.000000
     11          1           0       -0.000000   -1.745593    0.000000
     12          1           0       -0.992242   -2.353640    0.000000
 ---------------------------------------------------------------------

 SCF Done:  E(RHF) =  -5.17975455752     A.U. after   10 cycles
 E2 =    -0.1686236483D+00 EUMP2 =    -0.53483782058179D+01

 The electronic state is 1-AG.
 Alpha  occ. eigenvalues --   -0.92698  -0.73368  -0.59289  -0.52981  -0.26668
 Alpha  occ. eigenvalues --    0.01495
 Alpha virt. eigenvalues --   -0.15068   0.12034   0.26852   0.38199   0.54945
 Alpha virt. eigenvalues --    0.55082

 Mulliken charges:
               1
     1  H   -0.097618
     2  H   -0.173630
     3  H    0.049182
     4  H   -0.056026
     5  H    0.365604
     6  H   -0.087512
     7  H    0.049182
     8  H   -0.056026
     9  H   -0.087512
    10  H    0.365604
    11  H   -0.173630
    12  H   -0.097618
 Sum of Mulliken charges =   0.00000

 Dipole moment (field-independent basis, Debye):
    X=              0.0000    Y=             -0.0000    Z=              0.0000  Tot=              0.0000
 Quadrupole moment (field-independent basis, Debye-Ang):
   XX=            -14.3584   YY=            -26.0286   ZZ=            -14.7598
   XY=             -6.5854   XZ=              0.0000   YZ=              0.0000

 Normal termination of Gaussian 09 at Fri Feb 17 15:03:54 2017.
