 Gaussian 09, Revision E.01,
 Gaussian 09:  ES64L-G09RevE.01 30-Nov-2015

 ----------------------------------------------------------------------
 #rhf/gen scf(symm,tight,novaracc,noincfock,fulldiag) stable(crhf) gues
 s=read geom=nocrowd test
 ----------------------------------------------------------------------

 hf stability analysis of h12 triangular lattice, y= 0.7532333993657272
 0
 ----------------------------------------------------------------------
 Symbolic Z-matrix:
 Charge =  0 Multiplicity = 1

                         Standard orientation:
 ---------------------------------------------------------------------
 Center     Atomic      Atomic             Coordinates (Angstroms)
 Number     Number       Type             X           Y           Z
 ---------------------------------------------------------------------
      1          1           0        1.074488    1.593222   -0.000000
      2          1           0        0.000000    1.611978   -0.000000
      3          1           0        1.074488    0.518571    0.000000
      4          1           0        0.000000    0.537326   -0.000000
      5          1           0       -1.074488    1.630733   -0.000000
      6          1           0       -1.074488    0.556081   -0.000000
      7          1           0       -1.074488   -0.518571   -0.000000
      8          1           0       -0.000000   -0.537326    0.000000
      9          1           0        1.074488   -0.556081    0.000000
     10          1           0        1.074488   -1.630733    0.000000
     11          1           0       -0.000000   -1.611978    0.000000
     12          1           0       -1.074488   -1.593222    0.000000
 ---------------------------------------------------------------------

 SCF Done:  E(RHF) =  -5.02333133416     A.U. after   11 cycles
 E2 =    -0.1441614621D+00 EUMP2 =    -0.51674927962964D+01

 The electronic state is 1-AG.
 Alpha  occ. eigenvalues --   -0.90366  -0.72282  -0.60800  -0.49419  -0.14865
 Alpha  occ. eigenvalues --   -0.13454
 Alpha virt. eigenvalues --   -0.22151   0.06417   0.28581   0.46340   0.58549
 Alpha virt. eigenvalues --    1.00944

 Mulliken charges:
               1
     1  H    0.021823
     2  H   -0.012505
     3  H    0.032468
     4  H   -0.094359
     5  H   -0.018958
     6  H    0.071531
     7  H    0.032468
     8  H   -0.094359
     9  H    0.071531
    10  H   -0.018958
    11  H   -0.012505
    12  H    0.021823
 Sum of Mulliken charges =  -0.00000

 Dipole moment (field-independent basis, Debye):
    X=              0.0000    Y=              0.0000    Z=             -0.0000  Tot=              0.0000
 Quadrupole moment (field-independent basis, Debye-Ang):
   XX=            -12.2645   YY=            -24.2960   ZZ=            -14.4223
   XY=              0.4487   XZ=              0.0000   YZ=              0.0000

 Normal termination of Gaussian 09 at Fri Feb 17 15:00:32 2017.
