 Gaussian 09, Revision E.01,
 Gaussian 09:  ES64L-G09RevE.01 30-Nov-2015

 ----------------------------------------------------------------------
 #rhf/gen scf(symm,tight,novaracc,noincfock,fulldiag) stable(crhf) gues
 s=read geom=nocrowd test
 ----------------------------------------------------------------------

 hf stability analysis of h12 triangular lattice, y= 0.9474130986383170
 2
 ----------------------------------------------------------------------
 Symbolic Z-matrix:
 Charge =  0 Multiplicity = 1

                         Standard orientation:
 ---------------------------------------------------------------------
 Center     Atomic      Atomic             Coordinates (Angstroms)
 Number     Number       Type             X           Y           Z
 ---------------------------------------------------------------------
      1          1           0        1.025053    2.156862    0.000000
      2          1           0        0.000000    1.689719    0.000000
      3          1           0        1.025053    1.030383    0.000000
      4          1           0        0.000000    0.563240    0.000000
      5          1           0       -1.025053    1.222576    0.000000
      6          1           0       -1.025053    0.096096    0.000000
      7          1           0       -1.025053   -1.030383    0.000000
      8          1           0       -0.000000   -0.563240   -0.000000
      9          1           0        1.025053   -0.096096   -0.000000
     10          1           0        1.025053   -1.222576   -0.000000
     11          1           0       -0.000000   -1.689719   -0.000000
     12          1           0       -1.025053   -2.156862    0.000000
 ---------------------------------------------------------------------

 SCF Done:  E(RHF) =  -5.12437878145     A.U. after   10 cycles
 E2 =    -0.1777896294D+00 EUMP2 =    -0.53021684108451D+01

 The electronic state is 1-AG.
 Alpha  occ. eigenvalues --   -0.91936  -0.73765  -0.59947  -0.51831  -0.22898
 Alpha  occ. eigenvalues --   -0.02245
 Alpha virt. eigenvalues --   -0.18231   0.09503   0.32059   0.32883   0.57954
 Alpha virt. eigenvalues --    0.69026

 Mulliken charges:
               1
     1  H   -0.176387
     2  H   -0.099553
     3  H    0.128520
     4  H   -0.052893
     5  H    0.371083
     6  H   -0.170771
     7  H    0.128520
     8  H   -0.052893
     9  H   -0.170771
    10  H    0.371083
    11  H   -0.099553
    12  H   -0.176387
 Sum of Mulliken charges =  -0.00000

 Dipole moment (field-independent basis, Debye):
    X=             -0.0000    Y=              0.0000    Z=             -0.0000  Tot=              0.0000
 Quadrupole moment (field-independent basis, Debye-Ang):
   XX=            -14.0361   YY=            -25.9694   ZZ=            -14.6556
   XY=             -7.5520   XZ=             -0.0000   YZ=             -0.0000

 Normal termination of Gaussian 09 at Fri Feb 17 15:03:11 2017.
