 Gaussian 09, Revision E.01,
 Gaussian 09:  ES64L-G09RevE.01 30-Nov-2015

 ----------------------------------------------------------------------
 #rhf/gen scf(symm,tight,novaracc,noincfock,fulldiag) stable(crhf) gues
 s=read geom=nocrowd test
 ----------------------------------------------------------------------

 hf stability analysis of h12 triangular lattice, y= 0.9900233955345416
 6
 ----------------------------------------------------------------------
 Symbolic Z-matrix:
 Charge =  0 Multiplicity = 1

                         Standard orientation:
 ---------------------------------------------------------------------
 Center     Atomic      Atomic             Coordinates (Angstroms)
 Number     Number       Type             X           Y           Z
 ---------------------------------------------------------------------
      1          1           0        1.004950    2.280573   -0.000000
      2          1           0        0.000000    1.723520   -0.000000
      3          1           0        1.004950    1.131559   -0.000000
      4          1           0        0.000000    0.574507   -0.000000
      5          1           0       -1.004950    1.166467   -0.000000
      6          1           0       -1.004950    0.017454   -0.000000
      7          1           0       -1.004950   -1.131559   -0.000000
      8          1           0       -0.000000   -0.574507   -0.000000
      9          1           0        1.004950   -0.017454   -0.000000
     10          1           0        1.004950   -1.166467   -0.000000
     11          1           0       -0.000000   -1.723520   -0.000000
     12          1           0       -1.004950   -2.280573   -0.000000
 ---------------------------------------------------------------------

 SCF Done:  E(RHF) =  -5.16060932314     A.U. after   10 cycles
 E2 =    -0.1703644792D+00 EUMP2 =    -0.53309738023578D+01

 The electronic state is 1-AG.
 Alpha  occ. eigenvalues --   -0.92513  -0.73557  -0.59652  -0.52581  -0.25204
 Alpha  occ. eigenvalues --    0.00138
 Alpha virt. eigenvalues --   -0.16282   0.10913   0.28716   0.36158   0.56095
 Alpha virt. eigenvalues --    0.59902

 Mulliken charges:
               1
     1  H   -0.127572
     2  H   -0.148822
     3  H    0.073126
     4  H   -0.051966
     5  H    0.372876
     6  H   -0.117642
     7  H    0.073126
     8  H   -0.051966
     9  H   -0.117642
    10  H    0.372876
    11  H   -0.148822
    12  H   -0.127572
 Sum of Mulliken charges =   0.00000

 Dipole moment (field-independent basis, Debye):
    X=             -0.0000    Y=             -0.0000    Z=             -0.0000  Tot=              0.0000
 Quadrupole moment (field-independent basis, Debye-Ang):
   XX=            -14.2570   YY=            -26.1564   ZZ=            -14.7226
   XY=             -7.1104   XZ=              0.0000   YZ=              0.0000

 Normal termination of Gaussian 09 at Fri Feb 17 15:03:38 2017.
