 Gaussian 09, Revision E.01,
 Gaussian 09:  ES64L-G09RevE.01 30-Nov-2015

 ----------------------------------------------------------------------
 #rhf/gen scf(symm,tight,novaracc,noincfock,fulldiag) stable(crhf) gues
 s=read geom=nocrowd test
 ----------------------------------------------------------------------

 hf stability analysis of h12 triangular lattice, y= 0.7147002101552084
 6
 ----------------------------------------------------------------------
 Symbolic Z-matrix:
 Charge =  0 Multiplicity = 1

                         Standard orientation:
 ---------------------------------------------------------------------
 Center     Atomic      Atomic             Coordinates (Angstroms)
 Number     Number       Type             X           Y           Z
 ---------------------------------------------------------------------
      1          1           0        1.070558    1.486448   -0.000000
      2          1           0        0.000000    1.617896   -0.000000
      3          1           0        1.070558    0.407851    0.000000
      4          1           0        0.000000    0.539299   -0.000000
      5          1           0       -1.070558    1.749344   -0.000000
      6          1           0       -1.070558    0.670747   -0.000000
      7          1           0       -1.070558   -0.407851    0.000000
      8          1           0       -0.000000   -0.539299   -0.000000
      9          1           0        1.070558   -0.670747   -0.000000
     10          1           0        1.070558   -1.749344   -0.000000
     11          1           0       -0.000000   -1.617896   -0.000000
     12          1           0       -1.070558   -1.486448    0.000000
 ---------------------------------------------------------------------

 SCF Done:  E(RHF) =  -5.03050889320     A.U. after   11 cycles
 E2 =    -0.1548041578D+00 EUMP2 =    -0.51853130509577D+01

 The electronic state is 1-AG.
 Alpha  occ. eigenvalues --   -0.90407  -0.72587  -0.60585  -0.49575  -0.16899
 Alpha  occ. eigenvalues --   -0.10985
 Alpha virt. eigenvalues --   -0.21995   0.06772   0.28537   0.44376   0.59227
 Alpha virt. eigenvalues --    0.97817

 Mulliken charges:
               1
     1  H    0.145749
     2  H   -0.007940
     3  H   -0.086049
     4  H   -0.094162
     5  H   -0.130330
     6  H    0.172731
     7  H   -0.086049
     8  H   -0.094162
     9  H    0.172731
    10  H   -0.130330
    11  H   -0.007940
    12  H    0.145749
 Sum of Mulliken charges =   0.00000

 Dipole moment (field-independent basis, Debye):
    X=             -0.0000    Y=             -0.0000    Z=              0.0000  Tot=              0.0000
 Quadrupole moment (field-independent basis, Debye-Ang):
   XX=            -12.5036   YY=            -24.4635   ZZ=            -14.4460
   XY=              3.1114   XZ=             -0.0000   YZ=              0.0000

 Normal termination of Gaussian 09 at Fri Feb 17 14:59:51 2017.
