 Gaussian 09, Revision E.01,
 Gaussian 09:  ES64L-G09RevE.01 30-Nov-2015

 ----------------------------------------------------------------------
 #rhf/gen scf(symm,tight,novaracc,noincfock,fulldiag) stable(crhf) gues
 s=read geom=nocrowd test
 ----------------------------------------------------------------------

 ----------------------------------------------------------------------
 hf stability analysis of h12 triangular lattice, y= 1.1002000313062268
 ----------------------------------------------------------------------
 Symbolic Z-matrix:
 Charge =  0 Multiplicity = 1

                         Standard orientation:
 ---------------------------------------------------------------------
 Center     Atomic      Atomic             Coordinates (Angstroms)
 Number     Number       Type             X           Y           Z
 ---------------------------------------------------------------------
      1          1           0        0.947297    2.595520   -0.000000
      2          1           0        0.000000    1.828415   -0.000000
      3          1           0        0.947297    1.376577   -0.000000
      4          1           0        0.000000    0.609472   -0.000000
      5          1           0       -0.947297    1.061309   -0.000000
      6          1           0       -0.947297   -0.157634   -0.000000
      7          1           0       -0.947297   -1.376577    0.000000
      8          1           0       -0.000000   -0.609472   -0.000000
      9          1           0        0.947297    0.157634   -0.000000
     10          1           0        0.947297   -1.061309   -0.000000
     11          1           0       -0.000000   -1.828415   -0.000000
     12          1           0       -0.947297   -2.595520   -0.000000
 ---------------------------------------------------------------------

 SCF Done:  E(RHF) =  -5.22526931482     A.U. after   11 cycles
 E2 =    -0.2947422712D+00 EUMP2 =    -0.55200115860695D+01

 The electronic state is 1-AG.
 Alpha  occ. eigenvalues --   -0.92448  -0.72590  -0.57183  -0.54081  -0.31561
 Alpha  occ. eigenvalues --    0.05675
 Alpha virt. eigenvalues --   -0.10884   0.15582   0.22681   0.37368   0.49990
 Alpha virt. eigenvalues --    0.51528

 Mulliken charges:
               1
     1  H   -0.007742
     2  H   -0.259948
     3  H    0.038388
     4  H   -0.083544
     5  H    0.324093
     6  H   -0.011247
     7  H    0.038388
     8  H   -0.083544
     9  H   -0.011247
    10  H    0.324093
    11  H   -0.259948
    12  H   -0.007742
 Sum of Mulliken charges =  -0.00000

 Dipole moment (field-independent basis, Debye):
    X=             -0.0000    Y=              0.0000    Z=             -0.0000  Tot=              0.0000
 Quadrupole moment (field-independent basis, Debye-Ang):
   XX=            -14.4262   YY=            -24.7066   ZZ=            -14.8638
   XY=             -4.0190   XZ=             -0.0000   YZ=              0.0000

 Normal termination of Gaussian 09 at Fri Feb 17 15:04:40 2017.
