 Gaussian 09, Revision E.01,
 Gaussian 09:  ES64L-G09RevE.01 30-Nov-2015

 ----------------------------------------------------------------------
 #rhf/gen scf(symm,tight,novaracc,noincfock,fulldiag) stable(crhf) gues
 s=read geom=nocrowd test
 ----------------------------------------------------------------------

 hf stability analysis of h12 triangular lattice, y= 0.8185645993885070
 1
 ----------------------------------------------------------------------
 Symbolic Z-matrix:
 Charge =  0 Multiplicity = 1

                         Standard orientation:
 ---------------------------------------------------------------------
 Center     Atomic      Atomic             Coordinates (Angstroms)
 Number     Number       Type             X           Y           Z
 ---------------------------------------------------------------------
      1          1           0        1.068652    1.780492    0.000000
      2          1           0        0.000000    1.620781    0.000000
      3          1           0        1.068652    0.699971   -0.000000
      4          1           0        0.000000    0.540260    0.000000
      5          1           0       -1.068652    1.461070    0.000000
      6          1           0       -1.068652    0.380549    0.000000
      7          1           0       -1.068652   -0.699971    0.000000
      8          1           0       -0.000000   -0.540260    0.000000
      9          1           0        1.068652   -0.380549    0.000000
     10          1           0        1.068652   -1.461070    0.000000
     11          1           0       -0.000000   -1.620781    0.000000
     12          1           0       -1.068652   -1.780492    0.000000
 ---------------------------------------------------------------------

 SCF Done:  E(RHF) =  -5.03410906060     A.U. after   11 cycles
 E2 =    -0.1590921982D+00 EUMP2 =    -0.51932012588015D+01

 The electronic state is 1-AG.
 Alpha  occ. eigenvalues --   -0.90434  -0.72725  -0.60496  -0.49660  -0.17411
 Alpha  occ. eigenvalues --   -0.10268
 Alpha virt. eigenvalues --   -0.21902   0.06934   0.28535   0.43539   0.59444
 Alpha virt. eigenvalues --    0.96342

 Mulliken charges:
               1
     1  H   -0.153654
     2  H   -0.006317
     3  H    0.191502
     4  H   -0.093566
     5  H    0.175388
     6  H   -0.113352
     7  H    0.191502
     8  H   -0.093566
     9  H   -0.113352
    10  H    0.175388
    11  H   -0.006317
    12  H   -0.153654
 Sum of Mulliken charges =   0.00000

 Dipole moment (field-independent basis, Debye):
    X=             -0.0000    Y=             -0.0000    Z=              0.0000  Tot=              0.0000
 Quadrupole moment (field-independent basis, Debye-Ang):
   XX=            -12.6205   YY=            -24.5368   ZZ=            -14.4573
   XY=             -3.7509   XZ=             -0.0000   YZ=              0.0000

 Normal termination of Gaussian 09 at Fri Feb 17 15:01:32 2017.
