 Gaussian 09, Revision E.01,
 Gaussian 09:  ES64L-G09RevE.01 30-Nov-2015

 ----------------------------------------------------------------------
 #rhf/gen scf(symm,tight,novaracc,noincfock,fulldiag) stable(crhf) gues
 s=read geom=nocrowd test
 ----------------------------------------------------------------------

 hf stability analysis of h12 triangular lattice, y= 0.3898764483944726
 1
 ----------------------------------------------------------------------
 Symbolic Z-matrix:
 Charge =  0 Multiplicity = 1

                         Standard orientation:
 ---------------------------------------------------------------------
 Center     Atomic      Atomic             Coordinates (Angstroms)
 Number     Number       Type             X           Y           Z
 ---------------------------------------------------------------------
      1          1           0        0.754057    0.964185   -0.000000
      2          1           0        0.000000    2.296976   -0.000000
      3          1           0        0.754057   -0.567132   -0.000000
      4          1           0        0.000000    0.765659   -0.000000
      5          1           0       -0.754057    3.629767   -0.000000
      6          1           0       -0.754057    2.098450   -0.000000
      7          1           0       -0.754057    0.567132   -0.000000
      8          1           0       -0.000000   -0.765659    0.000000
      9          1           0        0.754057   -2.098450    0.000000
     10          1           0        0.754057   -3.629767    0.000000
     11          1           0       -0.000000   -2.296976    0.000000
     12          1           0       -0.754057   -0.964185   -0.000000
 ---------------------------------------------------------------------

 SCF Done:  E(RHF) =  -5.72996278960     A.U. after    7 cycles
 E2 =    -0.6245292812D+00 EUMP2 =    -0.63544920708115D+01

 The electronic state is 1-AG.
 Alpha  occ. eigenvalues --   -0.89043  -0.76293  -0.62645  -0.54544  -0.41276
 Alpha  occ. eigenvalues --   -0.13867
 Alpha virt. eigenvalues --   -0.07416   0.00569   0.40470   0.45441   0.62549
 Alpha virt. eigenvalues --    0.86187

 Mulliken charges:
               1
     1  H    0.155176
     2  H   -0.005133
     3  H    0.065573
     4  H   -0.189827
     5  H   -0.064893
     6  H    0.039104
     7  H    0.065573
     8  H   -0.189827
     9  H    0.039104
    10  H   -0.064893
    11  H   -0.005133
    12  H    0.155176
 Sum of Mulliken charges =  -0.00000

 Dipole moment (field-independent basis, Debye):
    X=              0.0000    Y=             -0.0000    Z=             -0.0000  Tot=              0.0000
 Quadrupole moment (field-independent basis, Debye-Ang):
   XX=            -15.2750   YY=            -26.5482   ZZ=            -15.1993
   XY=              3.4380   XZ=             -0.0000   YZ=              0.0000

 Normal termination of Gaussian 09 at Fri Feb 17 14:54:20 2017.
