 Gaussian 09, Revision E.01,
 Gaussian 09:  ES64L-G09RevE.01 30-Nov-2015

 ----------------------------------------------------------------------
 #rhf/gen scf(symm,tight,novaracc,noincfock,fulldiag) stable(crhf) gues
 s=read geom=nocrowd test
 ----------------------------------------------------------------------

 ----------------------------------------------------------------------
 hf stability analysis of h12 triangular lattice, y= 1.0420355127918348
 ----------------------------------------------------------------------
 Symbolic Z-matrix:
 Charge =  0 Multiplicity = 1

                         Standard orientation:
 ---------------------------------------------------------------------
 Center     Atomic      Atomic             Coordinates (Angstroms)
 Number     Number       Type             X           Y           Z
 ---------------------------------------------------------------------
      1          1           0        0.978412    2.430215    0.000000
      2          1           0        0.000000    1.770267   -0.000000
      3          1           0        0.978412    1.250036    0.000000
      4          1           0        0.000000    0.590089   -0.000000
      5          1           0       -0.978412    1.110320   -0.000000
      6          1           0       -0.978412   -0.069858   -0.000000
      7          1           0       -0.978412   -1.250036    0.000000
      8          1           0       -0.000000   -0.590089   -0.000000
      9          1           0        0.978412    0.069858   -0.000000
     10          1           0        0.978412   -1.110320   -0.000000
     11          1           0       -0.000000   -1.770267   -0.000000
     12          1           0       -0.978412   -2.430215    0.000000
 ---------------------------------------------------------------------

 SCF Done:  E(RHF) =  -5.19719309163     A.U. after    9 cycles
 E2 =    -0.1678720340D+00 EUMP2 =    -0.53650651256099D+01

 The electronic state is 1-AG.
 Alpha  occ. eigenvalues --   -0.92748  -0.73138  -0.58748  -0.53366  -0.28230
 Alpha  occ. eigenvalues --    0.02866
 Alpha virt. eigenvalues --   -0.13768   0.13383   0.25040   0.40007   0.50882
 Alpha virt. eigenvalues --    0.53771

 Mulliken charges:
               1
     1  H   -0.066833
     2  H   -0.197601
     3  H    0.032645
     4  H   -0.062804
     5  H    0.354080
     6  H   -0.059487
     7  H    0.032645
     8  H   -0.062804
     9  H   -0.059487
    10  H    0.354080
    11  H   -0.197601
    12  H   -0.066833
 Sum of Mulliken charges =   0.00000

 Dipole moment (field-independent basis, Debye):
    X=              0.0000    Y=             -0.0000    Z=             -0.0000  Tot=              0.0000
 Quadrupole moment (field-independent basis, Debye-Ang):
   XX=            -14.4393   YY=            -25.7029   ZZ=            -14.7964
   XY=             -5.8838   XZ=              0.0000   YZ=              0.0000

 Normal termination of Gaussian 09 at Fri Feb 17 15:04:09 2017.
