 Gaussian 09, Revision E.01,
 Gaussian 09:  ES64L-G09RevE.01 30-Nov-2015

 ----------------------------------------------------------------------
 #rhf/gen scf(symm,tight,novaracc,noincfock,fulldiag) stable(crhf) gues
 s=read geom=nocrowd test
 ----------------------------------------------------------------------

 ----------------------------------------------------------------------
 hf stability analysis of h12 triangular lattice, y= 1.3232044396011293
 ----------------------------------------------------------------------
 Symbolic Z-matrix:
 Charge =  0 Multiplicity = 1

                         Standard orientation:
 ---------------------------------------------------------------------
 Center     Atomic      Atomic             Coordinates (Angstroms)
 Number     Number       Type             X           Y           Z
 ---------------------------------------------------------------------
      1          1           0        0.828759    3.209936    0.000000
      2          1           0        0.000000    2.089932    0.000000
      3          1           0        0.828759    1.816648    0.000000
      4          1           0        0.000000    0.696644    0.000000
      5          1           0       -0.828759    0.969928    0.000000
      6          1           0       -0.828759   -0.423360   -0.000000
      7          1           0       -0.828759   -1.816648    0.000000
      8          1           0       -0.000000   -0.696644    0.000000
      9          1           0        0.828759    0.423360   -0.000000
     10          1           0        0.828759   -0.969928    0.000000
     11          1           0       -0.000000   -2.089932    0.000000
     12          1           0       -0.828759   -3.209936    0.000000
 ---------------------------------------------------------------------

 SCF Done:  E(RHF) =  -5.62217950653     A.U. after    8 cycles
 E2 =    -0.6263770934D+00 EUMP2 =    -0.62485565998819D+01

 The electronic state is 1-AG.
 Alpha  occ. eigenvalues --   -0.90183  -0.75594  -0.59942  -0.50132  -0.43269
 Alpha  occ. eigenvalues --   -0.07466
 Alpha virt. eigenvalues --   -0.03449  -0.01171   0.35824   0.39472   0.52722
 Alpha virt. eigenvalues --    0.71856

 Mulliken charges:
               1
     1  H   -0.120734
     2  H   -0.009155
     3  H    0.080712
     4  H   -0.151732
     5  H    0.172550
     6  H    0.028360
     7  H    0.080712
     8  H   -0.151732
     9  H    0.028360
    10  H    0.172550
    11  H   -0.009155
    12  H   -0.120734
 Sum of Mulliken charges =   0.00000

 Dipole moment (field-independent basis, Debye):
    X=              0.0000    Y=             -0.0000    Z=             -0.0000  Tot=              0.0000
 Quadrupole moment (field-independent basis, Debye-Ang):
   XX=            -14.8883   YY=            -29.7597   ZZ=            -15.0192
   XY=             -5.3595   XZ=              0.0000   YZ=              0.0000

 Normal termination of Gaussian 09 at Fri Feb 17 15:06:10 2017.
