 Gaussian 09, Revision E.01,
 Gaussian 09:  ES64L-G09RevE.01 30-Nov-2015

 ----------------------------------------------------------------------
 #rhf/gen scf(symm,tight,novaracc,noincfock,fulldiag) stable(crhf) gues
 s=read geom=nocrowd test
 ----------------------------------------------------------------------

 ----------------------------------------------------------------------
 hf stability analysis of h12 triangular lattice, y= 1.9954740303864316
 ----------------------------------------------------------------------
 Symbolic Z-matrix:
 Charge =  0 Multiplicity = 1

                         Standard orientation:
 ---------------------------------------------------------------------
 Center     Atomic      Atomic             Coordinates (Angstroms)
 Number     Number       Type             X           Y           Z
 ---------------------------------------------------------------------
      1          1           0        0.572672    4.957817   -0.000000
      2          1           0        0.000000    3.024511   -0.000000
      3          1           0        0.572672    2.941477   -0.000000
      4          1           0        0.000000    1.008170   -0.000000
      5          1           0       -0.572672    1.091204   -0.000000
      6          1           0       -0.572672   -0.925137    0.000000
      7          1           0       -0.572672   -2.941477   -0.000000
      8          1           0       -0.000000   -1.008170   -0.000000
      9          1           0        0.572672    0.925137    0.000000
     10          1           0        0.572672   -1.091204    0.000000
     11          1           0       -0.000000   -3.024511   -0.000000
     12          1           0       -0.572672   -4.957817   -0.000000
 ---------------------------------------------------------------------

 SCF Done:  E(RHF) =  -5.25503172651     A.U. after    6 cycles
 E2 =    -0.8656598086D+00 EUMP2 =    -0.61206915351335D+01

 The electronic state is 1-AG.
 Alpha  occ. eigenvalues --   -0.90047  -0.84491  -0.69066  -0.68662  -0.27778
 Alpha  occ. eigenvalues --   -0.20014
 Alpha virt. eigenvalues --   -0.14714   0.04660   0.54125   0.54940   1.10357
 Alpha virt. eigenvalues --    1.26984

 Mulliken charges:
               1
     1  H   -0.002621
     2  H   -0.005874
     3  H    0.000288
     4  H   -0.400258
     5  H    0.210185
     6  H    0.198280
     7  H    0.000288
     8  H   -0.400258
     9  H    0.198280
    10  H    0.210185
    11  H   -0.005874
    12  H   -0.002621
 Sum of Mulliken charges =  -0.00000

 Dipole moment (field-independent basis, Debye):
    X=             -0.0000    Y=              0.0000    Z=              0.0000  Tot=              0.0000
 Quadrupole moment (field-independent basis, Debye-Ang):
   XX=            -16.3441   YY=            -18.8291   ZZ=            -15.4924
   XY=             -0.6771   XZ=             -0.0000   YZ=              0.0000

 Normal termination of Gaussian 09 at Fri Feb 17 15:08:08 2017.
