 Gaussian 09, Revision E.01,
 Gaussian 09:  ES64L-G09RevE.01 30-Nov-2015

 ----------------------------------------------------------------------
 #rhf/gen scf(symm,tight,novaracc,noincfock,fulldiag) stable(crhf) gues
 s=read geom=nocrowd test
 ----------------------------------------------------------------------

 hf stability analysis of h12 triangular lattice, y= 0.6960275979088506
 0
 ----------------------------------------------------------------------
 Symbolic Z-matrix:
 Charge =  0 Multiplicity = 1

                         Standard orientation:
 ---------------------------------------------------------------------
 Center     Atomic      Atomic             Coordinates (Angstroms)
 Number     Number       Type             X           Y           Z
 ---------------------------------------------------------------------
      1          1           0        1.066376    1.436209    0.000000
      2          1           0       -0.000000    1.624240   -0.000000
      3          1           0        1.066376    0.353382    0.000000
      4          1           0       -0.000000    0.541413   -0.000000
      5          1           0       -1.066376    1.812271   -0.000000
      6          1           0       -1.066376    0.729444   -0.000000
      7          1           0       -1.066376   -0.353382    0.000000
      8          1           0       -0.000000   -0.541413   -0.000000
      9          1           0        1.066376   -0.729444   -0.000000
     10          1           0        1.066376   -1.812271   -0.000000
     11          1           0       -0.000000   -1.624240   -0.000000
     12          1           0       -1.066376   -1.436209    0.000000
 ---------------------------------------------------------------------

 SCF Done:  E(RHF) =  -5.03850170974     A.U. after   11 cycles
 E2 =    -0.1632800483D+00 EUMP2 =    -0.52017817580187D+01

 The electronic state is 1-AG.
 Alpha  occ. eigenvalues --   -0.90473  -0.72880  -0.60401  -0.49769  -0.17907
 Alpha  occ. eigenvalues --   -0.09532
 Alpha virt. eigenvalues --   -0.21777   0.07121   0.28555   0.42611   0.59636
 Alpha virt. eigenvalues --    0.94615

 Mulliken charges:
               1
     1  H    0.203771
     2  H   -0.005126
     3  H   -0.138495
     4  H   -0.092414
     5  H   -0.174151
     6  H    0.206415
     7  H   -0.138495
     8  H   -0.092414
     9  H    0.206415
    10  H   -0.174151
    11  H   -0.005126
    12  H    0.203771
 Sum of Mulliken charges =   0.00000

 Dipole moment (field-independent basis, Debye):
    X=              0.0000    Y=             -0.0000    Z=              0.0000  Tot=              0.0000
 Quadrupole moment (field-independent basis, Debye-Ang):
   XX=            -12.7574   YY=            -24.6190   ZZ=            -14.4704
   XY=              4.3662   XZ=             -0.0000   YZ=              0.0000

 Normal termination of Gaussian 09 at Fri Feb 17 14:59:32 2017.
