 Gaussian 09, Revision E.01,
 Gaussian 09:  ES64L-G09RevE.01 30-Nov-2015

 ----------------------------------------------------------------------
 #rhf/gen scf(symm,tight,novaracc,noincfock,fulldiag) stable(crhf) gues
 s=read geom=nocrowd test
 ----------------------------------------------------------------------

 hf stability analysis of h12 triangular lattice, y= 0.5040240137193442
 4
 ----------------------------------------------------------------------
 Symbolic Z-matrix:
 Charge =  0 Multiplicity = 1

                         Standard orientation:
 ---------------------------------------------------------------------
 Center     Atomic      Atomic             Coordinates (Angstroms)
 Number     Number       Type             X           Y           Z
 ---------------------------------------------------------------------
      1          1           0        0.922678    1.031721   -0.000000
      2          1           0        0.000000    1.877200    0.000000
      3          1           0        0.922678   -0.219745   -0.000000
      4          1           0        0.000000    0.625733    0.000000
      5          1           0       -0.922678    2.722678    0.000000
      6          1           0       -0.922678    1.471212    0.000000
      7          1           0       -0.922678    0.219745   -0.000000
      8          1           0       -0.000000   -0.625733    0.000000
      9          1           0        0.922678   -1.471212    0.000000
     10          1           0        0.922678   -2.722678    0.000000
     11          1           0       -0.000000   -1.877200    0.000000
     12          1           0       -0.922678   -1.031721   -0.000000
 ---------------------------------------------------------------------

 SCF Done:  E(RHF) =  -5.26087310131     A.U. after   12 cycles
 E2 =    -0.3832525051D+00 EUMP2 =    -0.56441256064235D+01

 The electronic state is 1-AG.
 Alpha  occ. eigenvalues --   -0.92450  -0.73767  -0.56114  -0.55431  -0.34558
 Alpha  occ. eigenvalues --    0.06457
 Alpha virt. eigenvalues --   -0.08185   0.10161   0.24515   0.32029   0.51569
 Alpha virt. eigenvalues --    0.54235

 Mulliken charges:
               1
     1  H    0.256897
     2  H   -0.228335
     3  H    0.009670
     4  H   -0.111275
     5  H   -0.111131
     6  H    0.184175
     7  H    0.009670
     8  H   -0.111275
     9  H    0.184175
    10  H   -0.111131
    11  H   -0.228335
    12  H    0.256897
 Sum of Mulliken charges =   0.00000

 Dipole moment (field-independent basis, Debye):
    X=             -0.0000    Y=              0.0000    Z=             -0.0000  Tot=              0.0000
 Quadrupole moment (field-independent basis, Debye-Ang):
   XX=            -14.1016   YY=            -29.8169   ZZ=            -14.8009
   XY=              5.5343   XZ=             -0.0000   YZ=             -0.0000

 Normal termination of Gaussian 09 at Fri Feb 17 14:56:10 2017.
