 Gaussian 09, Revision E.01,
 Gaussian 09:  ES64L-G09RevE.01 30-Nov-2015

 ----------------------------------------------------------------------
 #rhf/gen scf(symm,tight,novaracc,noincfock,fulldiag) stable(crhf) gues
 s=read geom=nocrowd test
 ----------------------------------------------------------------------

 hf stability analysis of h12 triangular lattice, y= 0.6358183901871248
 3
 ----------------------------------------------------------------------
 Symbolic Z-matrix:
 Charge =  0 Multiplicity = 1

                         Standard orientation:
 ---------------------------------------------------------------------
 Center     Atomic      Atomic             Coordinates (Angstroms)
 Number     Number       Type             X           Y           Z
 ---------------------------------------------------------------------
      1          1           0        1.041664    1.283639    0.000000
      2          1           0        0.000000    1.662773    0.000000
      3          1           0        1.041664    0.175123    0.000000
      4          1           0        0.000000    0.554258    0.000000
      5          1           0       -1.041664    2.041908    0.000000
      6          1           0       -1.041664    0.933392   -0.000000
      7          1           0       -1.041664   -0.175123    0.000000
      8          1           0       -0.000000   -0.554258    0.000000
      9          1           0        1.041664   -0.933392    0.000000
     10          1           0        1.041664   -2.041908    0.000000
     11          1           0       -0.000000   -1.662773    0.000000
     12          1           0       -1.041664   -1.283639    0.000000
 ---------------------------------------------------------------------

 SCF Done:  E(RHF) =  -5.09008531054     A.U. after   11 cycles
 E2 =    -0.2024248904D+00 EUMP2 =    -0.52925102009581D+01

 The electronic state is 1-AG.
 Alpha  occ. eigenvalues --   -0.91269  -0.73745  -0.60001  -0.51071  -0.21080
 Alpha  occ. eigenvalues --   -0.04529
 Alpha virt. eigenvalues --   -0.19813   0.08637   0.30477   0.35385   0.59293
 Alpha virt. eigenvalues --    0.78086

 Mulliken charges:
               1
     1  H    0.344972
     2  H   -0.049766
     3  H   -0.205639
     4  H   -0.064543
     5  H   -0.210615
     6  H    0.185590
     7  H   -0.205639
     8  H   -0.064543
     9  H    0.185590
    10  H   -0.210615
    11  H   -0.049766
    12  H    0.344972
 Sum of Mulliken charges =  -0.00000

 Dipole moment (field-independent basis, Debye):
    X=              0.0000    Y=              0.0000    Z=              0.0000  Tot=              0.0000
 Quadrupole moment (field-independent basis, Debye-Ang):
   XX=            -13.7407   YY=            -25.4857   ZZ=            -14.5909
   XY=              7.2696   XZ=             -0.0000   YZ=              0.0000

 Normal termination of Gaussian 09 at Fri Feb 17 14:58:31 2017.
