 Gaussian 09, Revision E.01,
 Gaussian 09:  ES64L-G09RevE.01 30-Nov-2015

 ----------------------------------------------------------------------
 #rhf/gen scf(symm,tight,novaracc,noincfock,fulldiag) stable(crhf) gues
 s=read geom=nocrowd test
 ----------------------------------------------------------------------

 ----------------------------------------------------------------------
 hf stability analysis of h12 triangular lattice, y= 1.1733815430447392
 ----------------------------------------------------------------------
 Symbolic Z-matrix:
 Charge =  0 Multiplicity = 1

                         Standard orientation:
 ---------------------------------------------------------------------
 Center     Atomic      Atomic             Coordinates (Angstroms)
 Number     Number       Type             X           Y           Z
 ---------------------------------------------------------------------
      1          1           0        0.907519    2.800373    0.000000
      2          1           0        0.000000    1.908556    0.000000
      3          1           0        0.907519    1.528002   -0.000000
      4          1           0        0.000000    0.636185    0.000000
      5          1           0       -0.907519    1.016740    0.000000
      6          1           0       -0.907519   -0.255631    0.000000
      7          1           0       -0.907519   -1.528002    0.000000
      8          1           0       -0.000000   -0.636185    0.000000
      9          1           0        0.907519    0.255631    0.000000
     10          1           0        0.907519   -1.016740    0.000000
     11          1           0       -0.000000   -1.908556    0.000000
     12          1           0       -0.907519   -2.800373    0.000000
 ---------------------------------------------------------------------

 SCF Done:  E(RHF) =  -5.32886999068     A.U. after   10 cycles
 E2 =    -0.6045021186D+00 EUMP2 =    -0.59333721092707D+01

 The electronic state is 1-AG.
 Alpha  occ. eigenvalues --   -0.92044  -0.74767  -0.56598  -0.54793  -0.36421
 Alpha  occ. eigenvalues --    0.03645
 Alpha virt. eigenvalues --   -0.07450   0.06896   0.26982   0.31994   0.51796
 Alpha virt. eigenvalues --    0.56944

 Mulliken charges:
               1
     1  H   -0.170995
     2  H   -0.096424
     3  H    0.168041
     4  H   -0.118973
     5  H    0.219192
     6  H   -0.000841
     7  H    0.168041
     8  H   -0.118973
     9  H   -0.000841
    10  H    0.219192
    11  H   -0.096424
    12  H   -0.170995
 Sum of Mulliken charges =  -0.00000

 Dipole moment (field-independent basis, Debye):
    X=              0.0000    Y=              0.0000    Z=              0.0000  Tot=              0.0000
 Quadrupole moment (field-independent basis, Debye-Ang):
   XX=            -14.4808   YY=            -31.6078   ZZ=            -14.8068
   XY=             -6.9653   XZ=              0.0000   YZ=              0.0000

 Normal termination of Gaussian 09 at Fri Feb 17 15:05:16 2017.
