 Gaussian 09, Revision E.01,
 Gaussian 09:  ES64L-G09RevE.01 30-Nov-2015

 ----------------------------------------------------------------------
 #rhf/gen scf(symm,tight,novaracc,noincfock,fulldiag) stable(crhf) gues
 s=read geom=nocrowd test
 ----------------------------------------------------------------------

 hf stability analysis of h12 triangular lattice, y= 0.7115635020464597
 9
 ----------------------------------------------------------------------
 Symbolic Z-matrix:
 Charge =  0 Multiplicity = 1

                         Standard orientation:
 ---------------------------------------------------------------------
 Center     Atomic      Atomic             Coordinates (Angstroms)
 Number     Number       Type             X           Y           Z
 ---------------------------------------------------------------------
      1          1           0        1.069964    1.477931   -0.000000
      2          1           0        0.000000    1.618794   -0.000000
      3          1           0        1.069964    0.398735   -0.000000
      4          1           0        0.000000    0.539598   -0.000000
      5          1           0       -1.069964    1.759658    0.000000
      6          1           0       -1.069964    0.680461    0.000000
      7          1           0       -1.069964   -0.398735   -0.000000
      8          1           0       -0.000000   -0.539598   -0.000000
      9          1           0        1.069964   -0.680461    0.000000
     10          1           0        1.069964   -1.759658    0.000000
     11          1           0       -0.000000   -1.618794   -0.000000
     12          1           0       -1.069964   -1.477931   -0.000000
 ---------------------------------------------------------------------

 SCF Done:  E(RHF) =  -5.03162330806     A.U. after   11 cycles
 E2 =    -0.1562110968D+00 EUMP2 =    -0.51878344048437D+01

 The electronic state is 1-AG.
 Alpha  occ. eigenvalues --   -0.90415  -0.72630  -0.60556  -0.49601  -0.17071
 Alpha  occ. eigenvalues --   -0.10748
 Alpha virt. eigenvalues --   -0.21967   0.06823   0.28535   0.44108   0.59301
 Alpha virt. eigenvalues --    0.97355

 Mulliken charges:
               1
     1  H    0.155747
     2  H   -0.007381
     3  H   -0.095348
     4  H   -0.094012
     5  H   -0.138382
     6  H    0.179376
     7  H   -0.095348
     8  H   -0.094012
     9  H    0.179376
    10  H   -0.138382
    11  H   -0.007381
    12  H    0.155747
 Sum of Mulliken charges =  -0.00000

 Dipole moment (field-independent basis, Debye):
    X=             -0.0000    Y=              0.0000    Z=             -0.0000  Tot=              0.0000
 Quadrupole moment (field-independent basis, Debye-Ang):
   XX=            -12.5401   YY=            -24.4869   ZZ=            -14.4495
   XY=              3.3267   XZ=             -0.0000   YZ=             -0.0000

 Normal termination of Gaussian 09 at Fri Feb 17 14:59:48 2017.
