 Gaussian 09, Revision E.01,
 Gaussian 09:  ES64L-G09RevE.01 30-Nov-2015

 ----------------------------------------------------------------------
 #rhf/gen scf(symm,tight,novaracc,noincfock,fulldiag) stable(crhf) gues
 s=read geom=nocrowd test
 ----------------------------------------------------------------------

 hf stability analysis of h12 triangular lattice, y= 0.8221863201757335
 6
 ----------------------------------------------------------------------
 Symbolic Z-matrix:
 Charge =  0 Multiplicity = 1

                         Standard orientation:
 ---------------------------------------------------------------------
 Center     Atomic      Atomic             Coordinates (Angstroms)
 Number     Number       Type             X           Y           Z
 ---------------------------------------------------------------------
      1          1           0        1.067935    1.791014   -0.000000
      2          1           0        0.000000    1.621870   -0.000000
      3          1           0        1.067935    0.709767   -0.000000
      4          1           0        0.000000    0.540623   -0.000000
      5          1           0       -1.067935    1.452726   -0.000000
      6          1           0       -1.067935    0.371479   -0.000000
      7          1           0       -1.067935   -0.709767   -0.000000
      8          1           0       -0.000000   -0.540623   -0.000000
      9          1           0        1.067935   -0.371479   -0.000000
     10          1           0        1.067935   -1.452726   -0.000000
     11          1           0       -0.000000   -1.621870   -0.000000
     12          1           0       -1.067935   -1.791014   -0.000000
 ---------------------------------------------------------------------

 SCF Done:  E(RHF) =  -5.03548327985     A.U. after   11 cycles
 E2 =    -0.1605284668D+00 EUMP2 =    -0.51960117466064D+01

 The electronic state is 1-AG.
 Alpha  occ. eigenvalues --   -0.90445  -0.72775  -0.60464  -0.49694  -0.17578
 Alpha  occ. eigenvalues --   -0.10024
 Alpha virt. eigenvalues --   -0.21864   0.06994   0.28539   0.43239   0.59511
 Alpha virt. eigenvalues --    0.95794

 Mulliken charges:
               1
     1  H   -0.160830
     2  H   -0.005845
     3  H    0.196933
     4  H   -0.093254
     5  H    0.185005
     6  H   -0.122007
     7  H    0.196933
     8  H   -0.093254
     9  H   -0.122007
    10  H    0.185005
    11  H   -0.005845
    12  H   -0.160830
 Sum of Mulliken charges =  -0.00000

 Dipole moment (field-independent basis, Debye):
    X=             -0.0000    Y=             -0.0000    Z=             -0.0000  Tot=              0.0000
 Quadrupole moment (field-independent basis, Debye-Ang):
   XX=            -12.6641   YY=            -24.5632   ZZ=            -14.4614
   XY=             -3.9591   XZ=             -0.0000   YZ=             -0.0000

 Normal termination of Gaussian 09 at Fri Feb 17 15:01:35 2017.
