 Gaussian 09, Revision E.01,
 Gaussian 09:  ES64L-G09RevE.01 30-Nov-2015

 ----------------------------------------------------------------------
 #rhf/gen scf(symm,tight,novaracc,noincfock,fulldiag) stable(crhf) gues
 s=read geom=nocrowd test
 ----------------------------------------------------------------------

 hf stability analysis of h12 triangular lattice, y= 0.3829207402470090
 1
 ----------------------------------------------------------------------
 Symbolic Z-matrix:
 Charge =  0 Multiplicity = 1

                         Standard orientation:
 ---------------------------------------------------------------------
 Center     Atomic      Atomic             Coordinates (Angstroms)
 Number     Number       Type             X           Y           Z
 ---------------------------------------------------------------------
      1          1           0        0.742277    0.966324   -0.000000
      2          1           0        0.000000    2.333428   -0.000000
      3          1           0        0.742277   -0.589295   -0.000000
      4          1           0        0.000000    0.777809   -0.000000
      5          1           0       -0.742277    3.700533    0.000000
      6          1           0       -0.742277    2.144914    0.000000
      7          1           0       -0.742277    0.589295   -0.000000
      8          1           0       -0.000000   -0.777809    0.000000
      9          1           0        0.742277   -2.144914    0.000000
     10          1           0        0.742277   -3.700533    0.000000
     11          1           0       -0.000000   -2.333428    0.000000
     12          1           0       -0.742277   -0.966324   -0.000000
 ---------------------------------------------------------------------

 SCF Done:  E(RHF) =  -5.73185501695     A.U. after    7 cycles
 E2 =    -0.6330110784D+00 EUMP2 =    -0.63648660953082D+01

 The electronic state is 1-AG.
 Alpha  occ. eigenvalues --   -0.88919  -0.76473  -0.63062  -0.55682  -0.40493
 Alpha  occ. eigenvalues --   -0.14599
 Alpha virt. eigenvalues --   -0.08128   0.00992   0.41254   0.45937   0.64903
 Alpha virt. eigenvalues --    0.88504

 Mulliken charges:
               1
     1  H    0.154179
     2  H   -0.005303
     3  H    0.071872
     4  H   -0.197358
     5  H   -0.057677
     6  H    0.034286
     7  H    0.071872
     8  H   -0.197358
     9  H    0.034286
    10  H   -0.057677
    11  H   -0.005303
    12  H    0.154179
 Sum of Mulliken charges =  -0.00000

 Dipole moment (field-independent basis, Debye):
    X=             -0.0000    Y=             -0.0000    Z=             -0.0000  Tot=              0.0000
 Quadrupole moment (field-independent basis, Debye-Ang):
   XX=            -15.3432   YY=            -25.9968   ZZ=            -15.2248
   XY=              3.1733   XZ=             -0.0000   YZ=              0.0000

 Normal termination of Gaussian 09 at Fri Feb 17 14:54:14 2017.
