 Gaussian 09, Revision E.01,
 Gaussian 09:  ES64L-G09RevE.01 30-Nov-2015

 ----------------------------------------------------------------------
 #rhf/gen scf(symm,tight,novaracc,noincfock,fulldiag) stable(crhf) gues
 s=read geom=nocrowd test
 ----------------------------------------------------------------------

 hf stability analysis of h12 triangular lattice, y= 0.5569753137506021
 6
 ----------------------------------------------------------------------
 Symbolic Z-matrix:
 Charge =  0 Multiplicity = 1

                         Standard orientation:
 ---------------------------------------------------------------------
 Center     Atomic      Atomic             Coordinates (Angstroms)
 Number     Number       Type             X           Y           Z
 ---------------------------------------------------------------------
      1          1           0        0.981269    1.115626    0.000000
      2          1           0       -0.000000    1.765114    0.000000
      3          1           0        0.981269   -0.061116   -0.000000
      4          1           0       -0.000000    0.588371    0.000000
      5          1           0       -0.981269    2.414601    0.000000
      6          1           0       -0.981269    1.237859    0.000000
      7          1           0       -0.981269    0.061116    0.000000
      8          1           0       -0.000000   -0.588371    0.000000
      9          1           0        0.981269   -1.237859   -0.000000
     10          1           0        0.981269   -2.414601    0.000000
     11          1           0       -0.000000   -1.765114    0.000000
     12          1           0       -0.981269   -1.115626    0.000000
 ---------------------------------------------------------------------

 SCF Done:  E(RHF) =  -5.19387475726     A.U. after   10 cycles
 E2 =    -0.1679134727D+00 EUMP2 =    -0.53617882299800D+01

 The electronic state is 1-AG.
 Alpha  occ. eigenvalues --   -0.92749  -0.73187  -0.58871  -0.53290  -0.27912
 Alpha  occ. eigenvalues --    0.02591
 Alpha virt. eigenvalues --   -0.14034   0.13100   0.25393   0.39706   0.51629
 Alpha virt. eigenvalues --    0.54006

 Mulliken charges:
               1
     1  H    0.356657
     2  H   -0.192764
     3  H   -0.064875
     4  H   -0.061253
     5  H   -0.073021
     6  H    0.035256
     7  H   -0.064875
     8  H   -0.061253
     9  H    0.035256
    10  H   -0.073021
    11  H   -0.192764
    12  H    0.356657
 Sum of Mulliken charges =  -0.00000

 Dipole moment (field-independent basis, Debye):
    X=             -0.0000    Y=              0.0000    Z=             -0.0000  Tot=              0.0000
 Quadrupole moment (field-independent basis, Debye-Ang):
   XX=            -14.4254   YY=            -25.7838   ZZ=            -14.7892
   XY=              6.0374   XZ=              0.0000   YZ=             -0.0000

 Normal termination of Gaussian 09 at Fri Feb 17 14:57:07 2017.
