 Gaussian 09, Revision E.01,
 Gaussian 09:  ES64L-G09RevE.01 30-Nov-2015

 ----------------------------------------------------------------------
 #rhf/gen scf(symm,tight,novaracc,noincfock,fulldiag) stable(crhf) gues
 s=read geom=nocrowd test
 ----------------------------------------------------------------------

 ----------------------------------------------------------------------
 hf stability analysis of h12 triangular lattice, y= 1.0101797939139427
 ----------------------------------------------------------------------
 Symbolic Z-matrix:
 Charge =  0 Multiplicity = 1

                         Standard orientation:
 ---------------------------------------------------------------------
 Center     Atomic      Atomic             Coordinates (Angstroms)
 Number     Number       Type             X           Y           Z
 ---------------------------------------------------------------------
      1          1           0        0.994873    2.338757    0.000000
      2          1           0        0.000000    1.740977    0.000000
      3          1           0        0.994873    1.178106    0.000000
      4          1           0        0.000000    0.580326    0.000000
      5          1           0       -0.994873    1.143198    0.000000
      6          1           0       -0.994873   -0.017454    0.000000
      7          1           0       -0.994873   -1.178106   -0.000000
      8          1           0       -0.000000   -0.580326   -0.000000
      9          1           0        0.994873    0.017454    0.000000
     10          1           0        0.994873   -1.143198   -0.000000
     11          1           0       -0.000000   -1.740977   -0.000000
     12          1           0       -0.994873   -2.338757   -0.000000
 ---------------------------------------------------------------------

 SCF Done:  E(RHF) =  -5.17603865884     A.U. after   10 cycles
 E2 =    -0.1688937460D+00 EUMP2 =    -0.53449324048814D+01

 The electronic state is 1-AG.
 Alpha  occ. eigenvalues --   -0.92671  -0.73409  -0.59375  -0.52902  -0.26367
 Alpha  occ. eigenvalues --    0.01223
 Alpha virt. eigenvalues --   -0.15317   0.11790   0.27223   0.37790   0.55178
 Alpha virt. eigenvalues --    0.56017

 Mulliken charges:
               1
     1  H   -0.103700
     2  H   -0.168792
     3  H    0.053441
     4  H   -0.054981
     5  H    0.367443
     6  H   -0.093411
     7  H    0.053441
     8  H   -0.054981
     9  H   -0.093411
    10  H    0.367443
    11  H   -0.168792
    12  H   -0.103700
 Sum of Mulliken charges =  -0.00000

 Dipole moment (field-independent basis, Debye):
    X=              0.0000    Y=              0.0000    Z=              0.0000  Tot=              0.0000
 Quadrupole moment (field-independent basis, Debye-Ang):
   XX=            -14.3395   YY=            -26.0697   ZZ=            -14.7524
   XY=             -6.7051   XZ=             -0.0000   YZ=             -0.0000

 Normal termination of Gaussian 09 at Fri Feb 17 15:03:51 2017.
