 Gaussian 09, Revision E.01,
 Gaussian 09:  ES64L-G09RevE.01 30-Nov-2015

 ----------------------------------------------------------------------
 #rhf/gen scf(symm,tight,novaracc,noincfock,fulldiag) stable(crhf) gues
 s=read geom=nocrowd test
 ----------------------------------------------------------------------

 hf stability analysis of h12 triangular lattice, y= 0.5598889440700592
 9
 ----------------------------------------------------------------------
 Symbolic Z-matrix:
 Charge =  0 Multiplicity = 1

                         Standard orientation:
 ---------------------------------------------------------------------
 Center     Atomic      Atomic             Coordinates (Angstroms)
 Number     Number       Type             X           Y           Z
 ---------------------------------------------------------------------
      1          1           0        0.984080    1.121002    0.000000
      2          1           0        0.000000    1.760071   -0.000000
      3          1           0        0.984080   -0.052379    0.000000
      4          1           0        0.000000    0.586690   -0.000000
      5          1           0       -0.984080    2.399140   -0.000000
      6          1           0       -0.984080    1.225759   -0.000000
      7          1           0       -0.984080    0.052379    0.000000
      8          1           0       -0.000000   -0.586690   -0.000000
      9          1           0        0.984080   -1.225759   -0.000000
     10          1           0        0.984080   -2.399140   -0.000000
     11          1           0       -0.000000   -1.760071   -0.000000
     12          1           0       -0.984080   -1.121002    0.000000
 ---------------------------------------------------------------------

 SCF Done:  E(RHF) =  -5.19046697591     A.U. after   11 cycles
 E2 =    -0.1680231777D+00 EUMP2 =    -0.53584901536328D+01

 The electronic state is 1-AG.
 Alpha  occ. eigenvalues --   -0.92745  -0.73234  -0.58986  -0.53214  -0.27596
 Alpha  occ. eigenvalues --    0.02316
 Alpha virt. eigenvalues --   -0.14298   0.12822   0.25752   0.39363   0.52435
 Alpha virt. eigenvalues --    0.54241

 Mulliken charges:
               1
     1  H    0.359110
     2  H   -0.187974
     3  H   -0.070376
     4  H   -0.059796
     5  H   -0.079199
     6  H    0.038236
     7  H   -0.070376
     8  H   -0.059796
     9  H    0.038236
    10  H   -0.079199
    11  H   -0.187974
    12  H    0.359110
 Sum of Mulliken charges =   0.00000

 Dipole moment (field-independent basis, Debye):
    X=              0.0000    Y=             -0.0000    Z=              0.0000  Tot=              0.0000
 Quadrupole moment (field-independent basis, Debye-Ang):
   XX=            -14.4102   YY=            -25.8569   ZZ=            -14.7819
   XY=              6.1845   XZ=             -0.0000   YZ=              0.0000

 Normal termination of Gaussian 09 at Fri Feb 17 14:57:10 2017.
