 Gaussian 09, Revision E.01,
 Gaussian 09:  ES64L-G09RevE.01 30-Nov-2015

 ----------------------------------------------------------------------
 #rhf/gen scf(symm,tight,novaracc,noincfock,fulldiag) stable(crhf) gues
 s=read geom=nocrowd test
 ----------------------------------------------------------------------

 hf stability analysis of h12 triangular lattice, y= 0.6868150944822820
 6
 ----------------------------------------------------------------------
 Symbolic Z-matrix:
 Charge =  0 Multiplicity = 1

                         Standard orientation:
 ---------------------------------------------------------------------
 Center     Atomic      Atomic             Coordinates (Angstroms)
 Number     Number       Type             X           Y           Z
 ---------------------------------------------------------------------
      1          1           0        1.063729    1.411864   -0.000000
      2          1           0        0.000000    1.628282   -0.000000
      3          1           0        1.063729    0.326342   -0.000000
      4          1           0        0.000000    0.542761   -0.000000
      5          1           0       -1.063729    1.844700   -0.000000
      6          1           0       -1.063729    0.759179   -0.000000
      7          1           0       -1.063729   -0.326342   -0.000000
      8          1           0       -0.000000   -0.542761   -0.000000
      9          1           0        1.063729   -0.759179    0.000000
     10          1           0        1.063729   -1.844700    0.000000
     11          1           0       -0.000000   -1.628282   -0.000000
     12          1           0       -1.063729   -1.411864   -0.000000
 ---------------------------------------------------------------------

 SCF Done:  E(RHF) =  -5.04372589292     A.U. after   11 cycles
 E2 =    -0.1666889657D+00 EUMP2 =    -0.52104148585925D+01

 The electronic state is 1-AG.
 Alpha  occ. eigenvalues --   -0.90525  -0.73044  -0.60306  -0.49904  -0.18389
 Alpha  occ. eigenvalues --   -0.08784
 Alpha virt. eigenvalues --   -0.21614   0.07328   0.28612   0.41611   0.59786
 Alpha virt. eigenvalues --    0.92653

 Mulliken charges:
               1
     1  H    0.230612
     2  H   -0.004975
     3  H   -0.160785
     4  H   -0.090495
     5  H   -0.191236
     6  H    0.216878
     7  H   -0.160785
     8  H   -0.090495
     9  H    0.216878
    10  H   -0.191236
    11  H   -0.004975
    12  H    0.230612
 Sum of Mulliken charges =  -0.00000

 Dipole moment (field-independent basis, Debye):
    X=              0.0000    Y=             -0.0000    Z=             -0.0000  Tot=              0.0000
 Quadrupole moment (field-independent basis, Debye-Ang):
   XX=            -12.9091   YY=            -24.7098   ZZ=            -14.4853
   XY=              4.9485   XZ=              0.0000   YZ=              0.0000

 Normal termination of Gaussian 09 at Fri Feb 17 14:59:23 2017.
