 Gaussian 09, Revision E.01,
 Gaussian 09:  ES64L-G09RevE.01 30-Nov-2015

 ----------------------------------------------------------------------
 #rhf/gen scf(symm,tight,novaracc,noincfock,fulldiag) stable(crhf) gues
 s=read geom=nocrowd test
 ----------------------------------------------------------------------

 hf stability analysis of h12 triangular lattice, y= 0.6746452920691223
 8
 ----------------------------------------------------------------------
 Symbolic Z-matrix:
 Charge =  0 Multiplicity = 1

                         Standard orientation:
 ---------------------------------------------------------------------
 Center     Atomic      Atomic             Coordinates (Angstroms)
 Number     Number       Type             X           Y           Z
 ---------------------------------------------------------------------
      1          1           0        1.059621    1.380203    0.000000
      2          1           0        0.000000    1.634595    0.000000
      3          1           0        1.059621    0.290473    0.000000
      4          1           0        0.000000    0.544865    0.000000
      5          1           0       -1.059621    1.888987   -0.000000
      6          1           0       -1.059621    0.799257   -0.000000
      7          1           0       -1.059621   -0.290473   -0.000000
      8          1           0       -0.000000   -0.544865    0.000000
      9          1           0        1.059621   -0.799257    0.000000
     10          1           0        1.059621   -1.888987    0.000000
     11          1           0       -0.000000   -1.634595    0.000000
     12          1           0       -1.059621   -1.380203   -0.000000
 ---------------------------------------------------------------------

 SCF Done:  E(RHF) =  -5.05204663273     A.U. after   11 cycles
 E2 =    -0.1683232025D+00 EUMP2 =    -0.52203698352097D+01

 The electronic state is 1-AG.
 Alpha  occ. eigenvalues --   -0.90624  -0.73262  -0.60188  -0.50122  -0.19012
 Alpha  occ. eigenvalues --   -0.07778
 Alpha virt. eigenvalues --   -0.21330   0.07626   0.28779   0.40199   0.59899
 Alpha virt. eigenvalues --    0.89703

 Mulliken charges:
               1
     1  H    0.263682
     2  H   -0.007631
     3  H   -0.184900
     4  H   -0.086466
     5  H   -0.207874
     6  H    0.223189
     7  H   -0.184900
     8  H   -0.086466
     9  H    0.223189
    10  H   -0.207874
    11  H   -0.007631
    12  H    0.263682
 Sum of Mulliken charges =   0.00000

 Dipole moment (field-independent basis, Debye):
    X=              0.0000    Y=             -0.0000    Z=              0.0000  Tot=              0.0000
 Quadrupole moment (field-independent basis, Debye-Ang):
   XX=            -13.1226   YY=            -24.8474   ZZ=            -14.5073
   XY=              5.6596   XZ=              0.0000   YZ=              0.0000

 Normal termination of Gaussian 09 at Fri Feb 17 14:59:11 2017.
