 Gaussian 09, Revision E.01,
 Gaussian 09:  ES64L-G09RevE.01 30-Nov-2015

 ----------------------------------------------------------------------
 #rhf/gen scf(symm,tight,novaracc,noincfock,fulldiag) stable(crhf) gues
 s=read geom=nocrowd test
 ----------------------------------------------------------------------

 hf stability analysis of h12 triangular lattice, y= 0.5802591979462536
 9
 ----------------------------------------------------------------------
 Symbolic Z-matrix:
 Charge =  0 Multiplicity = 1

                         Standard orientation:
 ---------------------------------------------------------------------
 Center     Atomic      Atomic             Coordinates (Angstroms)
 Number     Number       Type             X           Y           Z
 ---------------------------------------------------------------------
      1          1           0        1.002497    1.160551    0.000000
      2          1           0        0.000000    1.727737    0.000000
      3          1           0        1.002497    0.008727    0.000000
      4          1           0        0.000000    0.575912    0.000000
      5          1           0       -1.002497    2.294922    0.000000
      6          1           0       -1.002497    1.143098    0.000000
      7          1           0       -1.002497   -0.008727   -0.000000
      8          1           0       -0.000000   -0.575912   -0.000000
      9          1           0        1.002497   -1.143098   -0.000000
     10          1           0        1.002497   -2.294922   -0.000000
     11          1           0       -0.000000   -1.727737   -0.000000
     12          1           0       -1.002497   -1.160551   -0.000000
 ---------------------------------------------------------------------

 SCF Done:  E(RHF) =  -5.16453882700     A.U. after   10 cycles
 E2 =    -0.1699282874D+00 EUMP2 =    -0.53344671144109D+01

 The electronic state is 1-AG.
 Alpha  occ. eigenvalues --   -0.92560  -0.73523  -0.59593  -0.52662  -0.25488
 Alpha  occ. eigenvalues --    0.00408
 Alpha virt. eigenvalues --   -0.16046   0.11117   0.28342   0.36561   0.55869
 Alpha virt. eigenvalues --    0.58913

 Mulliken charges:
               1
     1  H    0.371828
     2  H   -0.153924
     3  H   -0.111517
     4  H   -0.052537
     5  H   -0.121685
     6  H    0.067836
     7  H   -0.111517
     8  H   -0.052537
     9  H    0.067836
    10  H   -0.121685
    11  H   -0.153924
    12  H    0.371828
 Sum of Mulliken charges =  -0.00000

 Dipole moment (field-independent basis, Debye):
    X=             -0.0000    Y=              0.0000    Z=              0.0000  Tot=              0.0000
 Quadrupole moment (field-independent basis, Debye-Ang):
   XX=            -14.2785   YY=            -26.1461   ZZ=            -14.7301
   XY=              7.0204   XZ=              0.0000   YZ=             -0.0000

 Normal termination of Gaussian 09 at Fri Feb 17 14:57:32 2017.
