 Gaussian 09, Revision E.01,
 Gaussian 09:  ES64L-G09RevE.01 30-Nov-2015

 ----------------------------------------------------------------------
 #rhf/gen scf(symm,tight,novaracc,noincfock,fulldiag) stable(crhf) gues
 s=read geom=nocrowd test
 ----------------------------------------------------------------------

 hf stability analysis of h12 triangular lattice, y= 0.6898774187181774
 3
 ----------------------------------------------------------------------
 Symbolic Z-matrix:
 Charge =  0 Multiplicity = 1

                         Standard orientation:
 ---------------------------------------------------------------------
 Center     Atomic      Atomic             Coordinates (Angstroms)
 Number     Number       Type             X           Y           Z
 ---------------------------------------------------------------------
      1          1           0        1.064653    1.419922   -0.000000
      2          1           0        0.000000    1.626869   -0.000000
      3          1           0        1.064653    0.335342   -0.000000
      4          1           0        0.000000    0.542290   -0.000000
      5          1           0       -1.064653    1.833817   -0.000000
      6          1           0       -1.064653    0.749237   -0.000000
      7          1           0       -1.064653   -0.335342   -0.000000
      8          1           0       -0.000000   -0.542290   -0.000000
      9          1           0        1.064653   -0.749237    0.000000
     10          1           0        1.064653   -1.833817   -0.000000
     11          1           0       -0.000000   -1.626869   -0.000000
     12          1           0       -1.064653   -1.419922   -0.000000
 ---------------------------------------------------------------------

 SCF Done:  E(RHF) =  -5.04188977761     A.U. after   11 cycles
 E2 =    -0.1656904068D+00 EUMP2 =    -0.52075801844424D+01

 The electronic state is 1-AG.
 Alpha  occ. eigenvalues --   -0.90506  -0.72989  -0.60337  -0.49856  -0.18230
 Alpha  occ. eigenvalues --   -0.09035
 Alpha virt. eigenvalues --   -0.21673   0.07257   0.28588   0.41951   0.59742
 Alpha virt. eigenvalues --    0.93332

 Mulliken charges:
               1
     1  H    0.221850
     2  H   -0.004866
     3  H   -0.153715
     4  H   -0.091232
     5  H   -0.185954
     6  H    0.213916
     7  H   -0.153715
     8  H   -0.091232
     9  H    0.213916
    10  H   -0.185954
    11  H   -0.004866
    12  H    0.221850
 Sum of Mulliken charges =  -0.00000

 Dipole moment (field-independent basis, Debye):
    X=              0.0000    Y=             -0.0000    Z=             -0.0000  Tot=              0.0000
 Quadrupole moment (field-independent basis, Debye-Ang):
   XX=            -12.8573   YY=            -24.6785   ZZ=            -14.4801
   XY=              4.7586   XZ=              0.0000   YZ=             -0.0000

 Normal termination of Gaussian 09 at Fri Feb 17 14:59:26 2017.
