 Gaussian 09, Revision E.01,
 Gaussian 09:  ES64L-G09RevE.01 30-Nov-2015

 ----------------------------------------------------------------------
 #rhf/gen scf(symm,tight,novaracc,noincfock,fulldiag) stable(crhf) gues
 s=read geom=nocrowd test
 ----------------------------------------------------------------------

 hf stability analysis of h12 triangular lattice, y= 0.9851084292399715
 5
 ----------------------------------------------------------------------
 Symbolic Z-matrix:
 Charge =  0 Multiplicity = 1

                         Standard orientation:
 ---------------------------------------------------------------------
 Center     Atomic      Atomic             Coordinates (Angstroms)
 Number     Number       Type             X           Y           Z
 ---------------------------------------------------------------------
      1          1           0        1.007358    2.266350    0.000000
      2          1           0        0.000000    1.719399    0.000000
      3          1           0        1.007358    1.120084    0.000000
      4          1           0        0.000000    0.573133    0.000000
      5          1           0       -1.007358    1.172448    0.000000
      6          1           0       -1.007358    0.026182    0.000000
      7          1           0       -1.007358   -1.120084    0.000000
      8          1           0       -0.000000   -0.573133    0.000000
      9          1           0        1.007358   -0.026182   -0.000000
     10          1           0        1.007358   -1.172448    0.000000
     11          1           0       -0.000000   -1.719399    0.000000
     12          1           0       -1.007358   -2.266350    0.000000
 ---------------------------------------------------------------------

 SCF Done:  E(RHF) =  -5.15664247269     A.U. after   10 cycles
 E2 =    -0.1708571202D+00 EUMP2 =    -0.53274995928427D+01

 The electronic state is 1-AG.
 Alpha  occ. eigenvalues --   -0.92462  -0.73589  -0.59705  -0.52499  -0.24925
 Alpha  occ. eigenvalues --   -0.00131
 Alpha virt. eigenvalues --   -0.16515   0.10719   0.29089   0.35761   0.56319
 Alpha virt. eigenvalues --    0.60898

 Mulliken charges:
               1
     1  H   -0.133393
     2  H   -0.143640
     3  H    0.078636
     4  H   -0.051522
     5  H    0.373701
     6  H   -0.123783
     7  H    0.078636
     8  H   -0.051522
     9  H   -0.123783
    10  H    0.373701
    11  H   -0.143640
    12  H   -0.133393
 Sum of Mulliken charges =   0.00000

 Dipole moment (field-independent basis, Debye):
    X=             -0.0000    Y=             -0.0000    Z=             -0.0000  Tot=              0.0000
 Quadrupole moment (field-independent basis, Debye-Ang):
   XX=            -14.2349   YY=            -26.1597   ZZ=            -14.7151
   XY=             -7.1926   XZ=              0.0000   YZ=              0.0000

 Normal termination of Gaussian 09 at Fri Feb 17 15:03:35 2017.
