 Gaussian 09, Revision E.01,
 Gaussian 09:  ES64L-G09RevE.01 30-Nov-2015

 ----------------------------------------------------------------------
 #rhf/gen scf(symm,tight,novaracc,noincfock,fulldiag) stable(crhf) gues
 s=read geom=nocrowd test
 ----------------------------------------------------------------------

 ----------------------------------------------------------------------
 hf stability analysis of h10 triangular lattice, y= 1.8095073443210954
 ----------------------------------------------------------------------
 Symbolic Z-matrix:
 Charge =  0 Multiplicity = 1

                         Standard orientation:
 ---------------------------------------------------------------------
 Center     Atomic      Atomic             Coordinates (Angstroms)
 Number     Number       Type             X           Y           Z
 ---------------------------------------------------------------------
      1          1           0        0.000000    0.319065    3.619015
      2          1           0        0.000000    0.638130    1.809507
      3          1           0        0.000000   -0.000000    1.809507
      4          1           0       -0.000000    0.319065    0.000000
      5          1           0        0.000000    0.000000   -1.809507
      6          1           0       -0.000000   -0.319065   -3.619015
      7          1           0       -0.000000   -0.319065   -0.000000
      8          1           0       -0.000000   -0.638130   -1.809507
      9          1           0       -0.000000   -0.319065    3.619015
     10          1           0       -0.000000   -0.638130    1.809507
     11          1           0        0.000000    0.638130   -1.809507
     12          1           0        0.000000    0.319065   -3.619015
 ---------------------------------------------------------------------

 SCF Done:  E(RHF) =  -4.86239039720     A.U. after    8 cycles
 E2 =    -0.2594526160D+00 EUMP2 =    -0.51218430132379D+01

 The electronic state is 1-AG.
 Alpha  occ. eigenvalues --   -0.79189  -0.77717  -0.64690  -0.54407  -0.25984
 Alpha  occ. eigenvalues --   -0.24082
 Alpha virt. eigenvalues --   -0.49778   0.39661   0.40957   0.61438   1.07398
 Alpha virt. eigenvalues --    1.08393

 Mulliken charges:
               1
     1  H    0.180305
     2  H   -0.204151
     3  H    0.079493
     4  H   -0.031801
     5  H    0.079493
     6  H    0.180305
     7  H   -0.031801
     8  H   -0.204151
     9  H    0.180305
    10  H   -0.204151
    11  H   -0.204151
    12  H    0.180305
 Sum of Mulliken charges =   0.00000

 Dipole moment (field-independent basis, Debye):
    X=              0.0000    Y=             -0.0000    Z=             -0.0000  Tot=              0.0000
 Quadrupole moment (field-independent basis, Debye-Ang):
   XX=            -15.1844   YY=            -21.0340   ZZ=             19.0268
   XY=             -0.0000   XZ=             -0.0000   YZ=             -0.0000

 Normal termination of Gaussian 09 at Thu Feb  9 19:33:42 2017.
