 Gaussian 09, Revision E.01,
 Gaussian 09:  ES64L-G09RevE.01 30-Nov-2015

 ----------------------------------------------------------------------
 #rhf/gen scf(symm,tight,novaracc,noincfock,fulldiag) stable(crhf) gues
 s=read geom=nocrowd test
 ----------------------------------------------------------------------

 hf stability analysis of h10 triangular lattice, y= 0.8149635215757493
 6
 ----------------------------------------------------------------------
 Symbolic Z-matrix:
 Charge =  0 Multiplicity = 1

                         Standard orientation:
 ---------------------------------------------------------------------
 Center     Atomic      Atomic             Coordinates (Angstroms)
 Number     Number       Type             X           Y           Z
 ---------------------------------------------------------------------
      1          1           0        0.000000    0.708437    1.629927
      2          1           0        0.000000    1.416874    0.814964
      3          1           0        0.000000    0.000000    0.814964
      4          1           0       -0.000000    0.708437   -0.000000
      5          1           0        0.000000   -0.000000   -0.814964
      6          1           0       -0.000000   -0.708437   -1.629927
      7          1           0       -0.000000   -0.708437    0.000000
      8          1           0       -0.000000   -1.416874   -0.814964
      9          1           0       -0.000000   -0.708437    1.629927
     10          1           0       -0.000000   -1.416874    0.814964
     11          1           0        0.000000    1.416874   -0.814964
     12          1           0        0.000000    0.708437   -1.629927
 ---------------------------------------------------------------------

 SCF Done:  E(RHF) =  -5.89836858194     A.U. after    7 cycles
 E2 =    -0.1397769875D+00 EUMP2 =    -0.60381455694211D+01

 The electronic state is 1-AG.
 Alpha  occ. eigenvalues --   -0.97048  -0.75146  -0.69739  -0.44943  -0.41926
 Alpha  occ. eigenvalues --   -0.31231
 Alpha virt. eigenvalues --    0.10062   0.12971   0.25501   0.43926   0.45144
 Alpha virt. eigenvalues --    0.81701

 Mulliken charges:
               1
     1  H    0.031848
     2  H   -0.046348
     3  H    0.003376
     4  H    0.025623
     5  H    0.003376
     6  H    0.031848
     7  H    0.025623
     8  H   -0.046348
     9  H    0.031848
    10  H   -0.046348
    11  H   -0.046348
    12  H    0.031848
 Sum of Mulliken charges =  -0.00000

 Dipole moment (field-independent basis, Debye):
    X=              0.0000    Y=             -0.0000    Z=              0.0000  Tot=              0.0000
 Quadrupole moment (field-independent basis, Debye-Ang):
   XX=            -15.2926   YY=            -20.7851   ZZ=            -16.9766
   XY=             -0.0000   XZ=              0.0000   YZ=             -0.0000

 Normal termination of Gaussian 09 at Thu Feb  9 19:32:46 2017.
