 Gaussian 09, Revision E.01,
 Gaussian 09:  ES64L-G09RevE.01 30-Nov-2015

 ----------------------------------------------------------------------
 #rhf/gen scf(symm,tight,novaracc,noincfock,fulldiag) stable(crhf) gues
 s=read geom=nocrowd test
 ----------------------------------------------------------------------

 ----------------------------------------------------------------------
 hf stability analysis of h10 triangular lattice, y= 1.2263967642726714
 ----------------------------------------------------------------------
 Symbolic Z-matrix:
 Charge =  0 Multiplicity = 1

                         Standard orientation:
 ---------------------------------------------------------------------
 Center     Atomic      Atomic             Coordinates (Angstroms)
 Number     Number       Type             X           Y           Z
 ---------------------------------------------------------------------
      1          1           0        0.000000    0.470770    2.452793
      2          1           0        0.000000    0.941539    1.226397
      3          1           0        0.000000    0.000000    1.226397
      4          1           0        0.000000    0.470770   -0.000000
      5          1           0        0.000000   -0.000000   -1.226397
      6          1           0       -0.000000   -0.470770   -2.452793
      7          1           0       -0.000000   -0.470770    0.000000
      8          1           0       -0.000000   -0.941539   -1.226397
      9          1           0       -0.000000   -0.470770    2.452793
     10          1           0       -0.000000   -0.941539    1.226397
     11          1           0        0.000000    0.941539   -1.226397
     12          1           0        0.000000    0.470770   -2.452793
 ---------------------------------------------------------------------

 SCF Done:  E(RHF) =  -5.53067922911     A.U. after    9 cycles
 E2 =    -0.7889219326D-01 EUMP2 =    -0.56095714223690D+01

 The electronic state is 1-AG.
 Alpha  occ. eigenvalues --   -0.85062  -0.78469  -0.56903  -0.44050  -0.36334
 Alpha  occ. eigenvalues --   -0.16861
 Alpha virt. eigenvalues --   -0.22314   0.23893   0.37902   0.46417   0.52614
 Alpha virt. eigenvalues --    0.66135

 Mulliken charges:
               1
     1  H    0.120644
     2  H   -0.119290
     3  H    0.099721
     4  H   -0.102429
     5  H    0.099721
     6  H    0.120644
     7  H   -0.102429
     8  H   -0.119290
     9  H    0.120644
    10  H   -0.119290
    11  H   -0.119290
    12  H    0.120644
 Sum of Mulliken charges =  -0.00000

 Dipole moment (field-independent basis, Debye):
    X=              0.0000    Y=              0.0000    Z=             -0.0000  Tot=              0.0000
 Quadrupole moment (field-independent basis, Debye-Ang):
   XX=            -15.0545   YY=            -19.4531   ZZ=             -7.1303
   XY=             -0.0000   XZ=             -0.0000   YZ=              0.0000

 Normal termination of Gaussian 09 at Thu Feb  9 19:33:22 2017.
