 Gaussian 09, Revision E.01,
 Gaussian 09:  ES64L-G09RevE.01 30-Nov-2015

 ----------------------------------------------------------------------
 #rhf/gen scf(symm,tight,novaracc,noincfock,fulldiag) stable(crhf) gues
 s=read geom=nocrowd test
 ----------------------------------------------------------------------

 ----------------------------------------------------------------------
 hf stability analysis of h10 triangular lattice, y= 1.1387493349689228
 ----------------------------------------------------------------------
 Symbolic Z-matrix:
 Charge =  0 Multiplicity = 1

                         Standard orientation:
 ---------------------------------------------------------------------
 Center     Atomic      Atomic             Coordinates (Angstroms)
 Number     Number       Type             X           Y           Z
 ---------------------------------------------------------------------
      1          1           0       -0.000000    0.507004    2.277499
      2          1           0       -0.000000    1.014008    1.138749
      3          1           0        0.000000    0.000000    1.138749
      4          1           0       -0.000000    0.507004   -0.000000
      5          1           0        0.000000   -0.000000   -1.138749
      6          1           0       -0.000000   -0.507004   -2.277499
      7          1           0       -0.000000   -0.507004    0.000000
      8          1           0       -0.000000   -1.014008   -1.138749
      9          1           0       -0.000000   -0.507004    2.277499
     10          1           0       -0.000000   -1.014008    1.138749
     11          1           0        0.000000    1.014008   -1.138749
     12          1           0        0.000000    0.507004   -2.277499
 ---------------------------------------------------------------------

 SCF Done:  E(RHF) =  -5.45581056925     A.U. after   11 cycles
 E2 =    -0.1240885516D+00 EUMP2 =    -0.55798991208705D+01

 The electronic state is 1-AG.
 Alpha  occ. eigenvalues --   -0.87844  -0.79143  -0.55883  -0.48441  -0.38742
 Alpha  occ. eigenvalues --   -0.07882
 Alpha virt. eigenvalues --   -0.16033   0.20263   0.36818   0.38337   0.42921
 Alpha virt. eigenvalues --    0.66671

 Mulliken charges:
               1
     1  H    0.107786
     2  H   -0.145325
     3  H    0.158785
     4  H   -0.083709
     5  H    0.158785
     6  H    0.107786
     7  H   -0.083709
     8  H   -0.145325
     9  H    0.107786
    10  H   -0.145325
    11  H   -0.145325
    12  H    0.107786
 Sum of Mulliken charges =  -0.00000

 Dipole moment (field-independent basis, Debye):
    X=              0.0000    Y=              0.0000    Z=              0.0000  Tot=              0.0000
 Quadrupole moment (field-independent basis, Debye-Ang):
   XX=            -15.0198   YY=            -20.3016   ZZ=            -10.0805
   XY=             -0.0000   XZ=             -0.0000   YZ=              0.0000

 Normal termination of Gaussian 09 at Thu Feb  9 19:33:17 2017.
