 Gaussian 09, Revision E.01,
 Gaussian 09:  ES64L-G09RevE.01 30-Nov-2015

 ----------------------------------------------------------------------
 #rhf/gen scf(symm,tight,novaracc,noincfock,fulldiag) stable(crhf) gues
 s=read geom=nocrowd test
 ----------------------------------------------------------------------

 ----------------------------------------------------------------------
 hf stability analysis of h10 triangular lattice, y= 1.0420355127918348
 ----------------------------------------------------------------------
 Symbolic Z-matrix:
 Charge =  0 Multiplicity = 1

                         Standard orientation:
 ---------------------------------------------------------------------
 Center     Atomic      Atomic             Coordinates (Angstroms)
 Number     Number       Type             X           Y           Z
 ---------------------------------------------------------------------
      1          1           0        0.000000    0.554060    2.084071
      2          1           0        0.000000    1.108120    1.042035
      3          1           0        0.000000    0.000000    1.042035
      4          1           0       -0.000000    0.554060   -0.000000
      5          1           0        0.000000   -0.000000   -1.042035
      6          1           0       -0.000000   -0.554060   -2.084071
      7          1           0       -0.000000   -0.554060    0.000000
      8          1           0       -0.000000   -1.108120   -1.042035
      9          1           0       -0.000000   -0.554060    2.084071
     10          1           0       -0.000000   -1.108120    1.042035
     11          1           0        0.000000    1.108120   -1.042035
     12          1           0        0.000000    0.554060   -2.084071
 ---------------------------------------------------------------------

 SCF Done:  E(RHF) =  -5.51115994456     A.U. after    9 cycles
 E2 =    -0.1877733752D+00 EUMP2 =    -0.56989333197745D+01

 The electronic state is 1-AG.
 Alpha  occ. eigenvalues --   -0.94185  -0.80420  -0.56514  -0.55529  -0.41259
 Alpha  occ. eigenvalues --   -0.07488
 Alpha virt. eigenvalues --   -0.05579   0.12797   0.27853   0.38199   0.38456
 Alpha virt. eigenvalues --    0.63623

 Mulliken charges:
               1
     1  H    0.130798
     2  H   -0.234228
     3  H    0.111165
     4  H    0.095696
     5  H    0.111165
     6  H    0.130798
     7  H    0.095696
     8  H   -0.234228
     9  H    0.130798
    10  H   -0.234228
    11  H   -0.234228
    12  H    0.130798
 Sum of Mulliken charges =   0.00000

 Dipole moment (field-independent basis, Debye):
    X=              0.0000    Y=             -0.0000    Z=              0.0000  Tot=              0.0000
 Quadrupole moment (field-independent basis, Debye-Ang):
   XX=            -15.2415   YY=            -25.4960   ZZ=             -8.6937
   XY=             -0.0000   XZ=             -0.0000   YZ=             -0.0000

 Normal termination of Gaussian 09 at Thu Feb  9 19:33:12 2017.
