 Gaussian 09, Revision E.01,
 Gaussian 09:  ES64L-G09RevE.01 30-Nov-2015

 ----------------------------------------------------------------------
 #uhf/gen scf(tight,novaracc,noincfock,fulldiag) stable(cuhf) guess=rea
 d geom=nocrowd test
 ----------------------------------------------------------------------

 hf stability analysis of h10 triangular lattice, y= 0.9900233955345416
 6
 ----------------------------------------------------------------------
 Symbolic Z-matrix:
 Charge =  0 Multiplicity = 1

                         Standard orientation:
 ---------------------------------------------------------------------
 Center     Atomic      Atomic             Coordinates (Angstroms)
 Number     Number       Type             X           Y           Z
 ---------------------------------------------------------------------
      1          1           0        2.009899    1.688612   -0.000000
      2          1           0        2.009899    0.539599   -0.000000
      3          1           0        1.004950    1.131559   -0.000000
      4          1           0        1.004950   -0.017454    0.000000
      5          1           0       -0.000000    0.574507   -0.000000
      6          1           0       -0.000000   -0.574507   -0.000000
      7          1           0       -1.004950    0.017454   -0.000000
      8          1           0       -1.004950   -1.131559   -0.000000
      9          1           0       -2.009899   -0.539599   -0.000000
     10          1           0       -2.009899   -1.688612   -0.000000
 ---------------------------------------------------------------------

 SCF Done:  E(UHF) =  -4.85836725184     A.U. after   38 cycles
 E2 =    -0.7296336410D-01 EUMP2 =    -0.49313306159400D+01

 The electronic state is 1-BU.
 Alpha  occ. eigenvalues --   -0.84496  -0.75397  -0.51932  -0.40521  -0.29759
 Alpha virt. eigenvalues --   -0.01523   0.19660   0.27179   0.56178   0.61216
  Beta  occ. eigenvalues --   -0.85509  -0.71823  -0.57425  -0.39250  -0.33670
  Beta virt. eigenvalues --    0.03590   0.23591   0.27535   0.54990   0.59124

 Mulliken charges and spin densities:
               1          2
     1  H    0.038065  -0.453786
     2  H    0.038643   0.460348
     3  H   -0.030697   0.310621
     4  H   -0.005963  -0.187321
     5  H   -0.040048  -0.129863
     6  H   -0.040048  -0.129863
     7  H   -0.005963  -0.187321
     8  H   -0.030697   0.310621
     9  H    0.038643   0.460348
    10  H    0.038065  -0.453786
 Sum of Mulliken charges =   0.00000  -0.00000

 Dipole moment (field-independent basis, Debye):
    X=              0.0000    Y=              0.0000    Z=             -0.0000  Tot=              0.0000
 Quadrupole moment (field-independent basis, Debye-Ang):
   XX=            -11.7659   YY=            -15.1064   ZZ=            -12.9382
   XY=              1.9879   XZ=              0.0000   YZ=             -0.0000

 Normal termination of Gaussian 09 at Tue Feb 28 18:17:38 2017.
