 Gaussian 09, Revision E.01,
 Gaussian 09:  ES64L-G09RevE.01 30-Nov-2015

 ----------------------------------------------------------------------
 #uhf/gen scf(tight,novaracc,noincfock,fulldiag) stable(cuhf) guess=rea
 d geom=nocrowd test
 ----------------------------------------------------------------------

 hf stability analysis of h10 triangular lattice, y= 0.9754198370359219
 4
 ----------------------------------------------------------------------
 Symbolic Z-matrix:
 Charge =  0 Multiplicity = 1

                         Standard orientation:
 ---------------------------------------------------------------------
 Center     Atomic      Atomic             Coordinates (Angstroms)
 Number     Number       Type             X           Y           Z
 ---------------------------------------------------------------------
      1          1           0        2.024087    1.624153   -0.000000
      2          1           0        2.024087    0.483193   -0.000000
      3          1           0        1.012043    1.097316   -0.000000
      4          1           0        1.012043   -0.043643   -0.000000
      5          1           0       -0.000000    0.570480   -0.000000
      6          1           0       -0.000000   -0.570480   -0.000000
      7          1           0       -1.012043    0.043643   -0.000000
      8          1           0       -1.012043   -1.097316   -0.000000
      9          1           0       -2.024087   -0.483193   -0.000000
     10          1           0       -2.024087   -1.624153   -0.000000
 ---------------------------------------------------------------------

 SCF Done:  E(UHF) =  -4.86431373330     A.U. after   52 cycles
 E2 =    -0.7306453091D-01 EUMP2 =    -0.49373782642113D+01

 The electronic state is 1-BU.
 Alpha  occ. eigenvalues --   -0.84738  -0.75402  -0.51859  -0.41185  -0.30152
 Alpha virt. eigenvalues --   -0.01308   0.19344   0.28156   0.55791   0.63604
  Beta  occ. eigenvalues --   -0.85750  -0.72017  -0.57362  -0.39367  -0.33713
  Beta virt. eigenvalues --    0.03130   0.24385   0.27071   0.54630   0.61552

 Mulliken charges and spin densities:
               1          2
     1  H    0.032473  -0.444581
     2  H    0.043330   0.448400
     3  H   -0.031155   0.301379
     4  H   -0.006687  -0.181377
     5  H   -0.037963  -0.123821
     6  H   -0.037963  -0.123821
     7  H   -0.006687  -0.181377
     8  H   -0.031155   0.301379
     9  H    0.043330   0.448400
    10  H    0.032473  -0.444581
 Sum of Mulliken charges =  -0.00000  -0.00000

 Dipole moment (field-independent basis, Debye):
    X=             -0.0000    Y=             -0.0000    Z=             -0.0000  Tot=              0.0000
 Quadrupole moment (field-independent basis, Debye-Ang):
   XX=            -11.7900   YY=            -15.3302   ZZ=            -12.9311
   XY=              1.6918   XZ=              0.0000   YZ=             -0.0000

 Normal termination of Gaussian 09 at Tue Feb 28 18:17:29 2017.
