 Gaussian 09, Revision E.01,
 Gaussian 09:  ES64L-G09RevE.01 30-Nov-2015

 ----------------------------------------------------------------------
 #uhf/gen scf(tight,novaracc,noincfock,fulldiag) stable(cuhf) guess=rea
 d geom=nocrowd test
 ----------------------------------------------------------------------

 ----------------------------------------------------------------------
 hf stability analysis of h10 triangular lattice, y= 2.2960291063410230
 ----------------------------------------------------------------------
 Symbolic Z-matrix:
 Charge =  0 Multiplicity = 1

                         Standard orientation:
 ---------------------------------------------------------------------
 Center     Atomic      Atomic             Coordinates (Angstroms)
 Number     Number       Type             X           Y           Z
 ---------------------------------------------------------------------
      1          1           0        0.999846    5.664893   -0.000000
      2          1           0        0.999846    3.355135    0.000000
      3          1           0        0.499923    3.409886   -0.000000
      4          1           0        0.499923    1.100128    0.000000
      5          1           0       -0.000000    1.154879   -0.000000
      6          1           0       -0.000000   -1.154879   -0.000000
      7          1           0       -0.499923   -1.100128    0.000000
      8          1           0       -0.499923   -3.409886   -0.000000
      9          1           0       -0.999846   -3.355135    0.000000
     10          1           0       -0.999846   -5.664893   -0.000000
 ---------------------------------------------------------------------

 SCF Done:  E(UHF) =  -4.83646363154     A.U. after   11 cycles
 E2 =    -0.2838757198D-01 EUMP2 =    -0.48648512035252D+01

 Unable to determine electronic state:  partially filled degenerate orbitals.
 Alpha  occ. eigenvalues --   -0.73516  -0.72110  -0.70106  -0.68225  -0.49623
 Alpha virt. eigenvalues --    0.13335   0.52303   0.57490   0.64682   0.71224
  Beta  occ. eigenvalues --   -0.73516  -0.72110  -0.70106  -0.68225  -0.49623
  Beta virt. eigenvalues --    0.13335   0.52303   0.57490   0.64682   0.71224

 Mulliken charges and spin densities:
               1          2
     1  H    0.003385   1.003383
     2  H   -0.001057  -0.001674
     3  H   -0.002335  -0.001718
     4  H   -0.000104  -0.000016
     5  H    0.000110   0.000024
     6  H    0.000110  -0.000024
     7  H   -0.000104   0.000016
     8  H   -0.002335   0.001718
     9  H   -0.001057   0.001674
    10  H    0.003385  -1.003383
 Sum of Mulliken charges =  -0.00000   0.00000

 Dipole moment (field-independent basis, Debye):
    X=              0.0000    Y=              0.0000    Z=             -0.0000  Tot=              0.0000
 Quadrupole moment (field-independent basis, Debye-Ang):
   XX=            -12.5957   YY=            -14.8436   ZZ=            -13.4316
   XY=             -0.3653   XZ=              0.0000   YZ=              0.0000

 Normal termination of Gaussian 09 at Tue Feb 28 18:22:17 2017.
