 Gaussian 09, Revision E.01,
 Gaussian 09:  ES64L-G09RevE.01 30-Nov-2015

 ----------------------------------------------------------------------
 #uhf/gen scf(tight,novaracc,noincfock,fulldiag) stable(cuhf) guess=rea
 d geom=nocrowd test
 ----------------------------------------------------------------------

 hf stability analysis of h10 triangular lattice, y= 0.5802591979462536
 9
 ----------------------------------------------------------------------
 Symbolic Z-matrix:
 Charge =  0 Multiplicity = 1

                         Standard orientation:
 ---------------------------------------------------------------------
 Center     Atomic      Atomic             Coordinates (Angstroms)
 Number     Number       Type             X           Y           Z
 ---------------------------------------------------------------------
      1          1           0        2.004994   -0.558459   -0.000000
      2          1           0        2.004994   -1.710283   -0.000000
      3          1           0        1.002497    0.008727   -0.000000
      4          1           0        1.002497   -1.143098   -0.000000
      5          1           0        0.000000    0.575912    0.000000
      6          1           0       -0.000000   -0.575912    0.000000
      7          1           0       -1.002497    1.143098   -0.000000
      8          1           0       -1.002497   -0.008727   -0.000000
      9          1           0       -2.004994    1.710283   -0.000000
     10          1           0       -2.004994    0.558459   -0.000000
 ---------------------------------------------------------------------

 SCF Done:  E(UHF) =  -4.89594038633     A.U. after   34 cycles
 E2 =    -0.6834130764D-01 EUMP2 =    -0.49642816939701D+01

 Unable to determine electronic state:  partially filled degenerate orbitals.
 Alpha  occ. eigenvalues --   -0.84936  -0.73890  -0.56258  -0.36614  -0.34938
 Alpha virt. eigenvalues --    0.04109   0.20651   0.28061   0.54985   0.60076
  Beta  occ. eigenvalues --   -0.84936  -0.73890  -0.56258  -0.36614  -0.34938
  Beta virt. eigenvalues --    0.04109   0.20651   0.28061   0.54985   0.60076

 Mulliken charges and spin densities:
               1          2
     1  H    0.032285   0.439822
     2  H   -0.001062  -0.540718
     3  H   -0.090064  -0.279807
     4  H    0.069893   0.382332
     5  H   -0.011050   0.090871
     6  H   -0.011050  -0.090871
     7  H    0.069893  -0.382332
     8  H   -0.090064   0.279807
     9  H   -0.001062   0.540718
    10  H    0.032285  -0.439822
 Sum of Mulliken charges =  -0.00000   0.00000

 Dipole moment (field-independent basis, Debye):
    X=              0.0000    Y=             -0.0000    Z=             -0.0000  Tot=              0.0000
 Quadrupole moment (field-independent basis, Debye-Ang):
   XX=            -14.2913   YY=            -13.9683   ZZ=            -12.9222
   XY=             -1.1320   XZ=              0.0000   YZ=              0.0000

 Normal termination of Gaussian 09 at Tue Feb 28 18:12:00 2017.
