 Gaussian 09, Revision E.01,
 Gaussian 09:  ES64L-G09RevE.01 30-Nov-2015

 ----------------------------------------------------------------------
 #uhf/gen scf(tight,novaracc,noincfock,fulldiag) stable(cuhf) guess=rea
 d geom=nocrowd test
 ----------------------------------------------------------------------

 hf stability analysis of h10 triangular lattice, y= 0.4738346202814235
 9
 ----------------------------------------------------------------------
 Symbolic Z-matrix:
 Charge =  0 Multiplicity = 1

                         Standard orientation:
 ---------------------------------------------------------------------
 Center     Atomic      Atomic             Coordinates (Angstroms)
 Number     Number       Type             X           Y           Z
 ---------------------------------------------------------------------
      1          1           0        1.766470   -1.274087    0.000000
      2          1           0        1.766470   -2.581441    0.000000
      3          1           0        0.883235   -0.310205    0.000000
      4          1           0        0.883235   -1.617559    0.000000
      5          1           0        0.000000    0.653677   -0.000000
      6          1           0       -0.000000   -0.653677   -0.000000
      7          1           0       -0.883235    1.617559    0.000000
      8          1           0       -0.883235    0.310205    0.000000
      9          1           0       -1.766470    2.581441    0.000000
     10          1           0       -1.766470    1.274087    0.000000
 ---------------------------------------------------------------------

 SCF Done:  E(UHF) =  -4.83004522483     A.U. after   24 cycles
 E2 =    -0.5018171840D-01 EUMP2 =    -0.48802269432302D+01

 Unable to determine electronic state:  partially filled degenerate orbitals.
 Alpha  occ. eigenvalues --   -0.81432  -0.73307  -0.58348  -0.42041  -0.25327
 Alpha virt. eigenvalues --    0.06945   0.19519   0.23378   0.41799   0.57342
  Beta  occ. eigenvalues --   -0.82755  -0.72709  -0.58294  -0.38003  -0.29901
  Beta virt. eigenvalues --    0.08231   0.19686   0.27806   0.36267   0.59543

 Mulliken charges and spin densities:
               1          2
     1  H   -0.112569   0.418285
     2  H   -0.086963   0.797674
     3  H    0.124852   0.295217
     4  H    0.163579  -0.291717
     5  H   -0.032473  -0.590118
     6  H   -0.077360  -0.249177
     7  H    0.127837   0.272439
     8  H    0.002675   0.480329
     9  H   -0.102314  -0.677112
    10  H   -0.007262  -0.455821
 Sum of Mulliken charges =  -0.00000   0.00000

 Dipole moment (field-independent basis, Debye):
    X=             -0.0933    Y=              0.1353    Z=             -0.0000  Tot=              0.1643
 Quadrupole moment (field-independent basis, Debye-Ang):
   XX=            -16.8836   YY=            -19.8728   ZZ=            -12.6889
   XY=              5.5776   XZ=              0.0000   YZ=             -0.0000

 Normal termination of Gaussian 09 at Tue Feb 28 18:10:11 2017.
