 Gaussian 09, Revision E.01,
 Gaussian 09:  ES64L-G09RevE.01 30-Nov-2015

 ----------------------------------------------------------------------
 #uhf/gen scf(tight,novaracc,noincfock,fulldiag) stable(cuhf) guess=rea
 d geom=nocrowd test
 ----------------------------------------------------------------------

 hf stability analysis of h10 triangular lattice, y= 0.6417319999662348
 7
 ----------------------------------------------------------------------
 Symbolic Z-matrix:
 Charge =  0 Multiplicity = 1

                         Standard orientation:
 ---------------------------------------------------------------------
 Center     Atomic      Atomic             Coordinates (Angstroms)
 Number     Number       Type             X           Y           Z
 ---------------------------------------------------------------------
      1          1           0        2.089776   -0.167020    0.000000
      2          1           0        2.089776   -1.272115    0.000000
      3          1           0        1.044888    0.192764   -0.000000
      4          1           0        1.044888   -0.912331    0.000000
      5          1           0        0.000000    0.552548   -0.000000
      6          1           0       -0.000000   -0.552548   -0.000000
      7          1           0       -1.044888    0.912331    0.000000
      8          1           0       -1.044888   -0.192764   -0.000000
      9          1           0       -2.089776    1.272115    0.000000
     10          1           0       -2.089776    0.167020   -0.000000
 ---------------------------------------------------------------------

 SCF Done:  E(UHF) =  -4.83144906109     A.U. after   63 cycles
 E2 =    -0.8875839072D-01 EUMP2 =    -0.49202074518124D+01

 Unable to determine electronic state:  partially filled degenerate orbitals.
 Alpha  occ. eigenvalues --   -0.86325  -0.73965  -0.54489  -0.43933  -0.26759
 Alpha virt. eigenvalues --   -0.04275   0.20499   0.31049   0.52168   0.75366
  Beta  occ. eigenvalues --   -0.87542  -0.73944  -0.53987  -0.43921  -0.28287
  Beta virt. eigenvalues --   -0.01647   0.18646   0.29477   0.55076   0.74422

 Mulliken charges and spin densities:
               1          2
     1  H   -0.154511  -0.178842
     2  H    0.213080   0.341665
     3  H    0.112269   0.395290
     4  H   -0.141555  -0.209198
     5  H    0.004031  -0.326896
     6  H    0.015563   0.071176
     7  H    0.138314  -0.119994
     8  H   -0.227078   0.099177
     9  H   -0.132119   0.106559
    10  H    0.172006  -0.178937
 Sum of Mulliken charges =  -0.00000   0.00000

 Dipole moment (field-independent basis, Debye):
    X=              0.4860    Y=             -0.3373    Z=              0.0000  Tot=              0.5916
 Quadrupole moment (field-independent basis, Debye-Ang):
   XX=            -12.6751   YY=            -15.5463   ZZ=            -12.9001
   XY=             -1.8747   XZ=              0.0000   YZ=             -0.0000

 Normal termination of Gaussian 09 at Tue Feb 28 18:13:01 2017.
