 Gaussian 09, Revision E.01,
 Gaussian 09:  ES64L-G09RevE.01 30-Nov-2015

 ----------------------------------------------------------------------
 #uhf/gen scf(tight,novaracc,noincfock,fulldiag) stable(cuhf) guess=rea
 d geom=nocrowd test
 ----------------------------------------------------------------------

 ----------------------------------------------------------------------
 hf stability analysis of h10 triangular lattice, y= 1.0000000336490449
 ----------------------------------------------------------------------
 Symbolic Z-matrix:
 Charge =  0 Multiplicity = 1

                         Standard orientation:
 ---------------------------------------------------------------------
 Center     Atomic      Atomic             Coordinates (Angstroms)
 Number     Number       Type             X           Y           Z
 ---------------------------------------------------------------------
      1          1           0        2.000000    1.732051    0.000000
      2          1           0        2.000000    0.577350    0.000000
      3          1           0        1.000000    1.154701    0.000000
      4          1           0        1.000000    0.000000    0.000000
      5          1           0        0.000000    0.577350    0.000000
      6          1           0       -0.000000   -0.577350    0.000000
      7          1           0       -1.000000    0.000000    0.000000
      8          1           0       -1.000000   -1.154701    0.000000
      9          1           0       -2.000000   -0.577350    0.000000
     10          1           0       -2.000000   -1.732051    0.000000
 ---------------------------------------------------------------------

 SCF Done:  E(UHF) =  -4.85379513280     A.U. after   36 cycles
 E2 =    -0.7291558726D-01 EUMP2 =    -0.49267107200523D+01

 The electronic state is 1-BU.
 Alpha  occ. eigenvalues --   -0.84324  -0.75388  -0.51982  -0.40052  -0.29477
 Alpha virt. eigenvalues --   -0.01674   0.19873   0.26516   0.56441   0.59620
  Beta  occ. eigenvalues --   -0.85341  -0.71687  -0.57461  -0.39213  -0.33579
  Beta virt. eigenvalues --    0.03893   0.23065   0.27824   0.55235   0.57519

 Mulliken charges and spin densities:
               1          2
     1  H    0.041851  -0.459161
     2  H    0.035366   0.467870
     3  H   -0.030256   0.316453
     4  H   -0.005580  -0.191041
     5  H   -0.041381  -0.134121
     6  H   -0.041381  -0.134121
     7  H   -0.005580  -0.191041
     8  H   -0.030256   0.316453
     9  H    0.035366   0.467870
    10  H    0.041851  -0.459161
 Sum of Mulliken charges =   0.00000   0.00000

 Dipole moment (field-independent basis, Debye):
    X=              0.0000    Y=             -0.0000    Z=              0.0000  Tot=              0.0000
 Quadrupole moment (field-independent basis, Debye-Ang):
   XX=            -11.7577   YY=            -14.9365   ZZ=            -12.9432
   XY=              2.1894   XZ=              0.0000   YZ=              0.0000

 Normal termination of Gaussian 09 at Tue Feb 28 18:17:44 2017.
