 Gaussian 09, Revision E.01,
 Gaussian 09:  ES64L-G09RevE.01 30-Nov-2015

 ----------------------------------------------------------------------
 #uhf/gen scf(tight,novaracc,noincfock,fulldiag) stable(cuhf) guess=rea
 d geom=nocrowd test
 ----------------------------------------------------------------------

 ----------------------------------------------------------------------
 hf stability analysis of h10 triangular lattice, y= 1.0644781770328475
 ----------------------------------------------------------------------
 Symbolic Z-matrix:
 Charge =  0 Multiplicity = 1

                         Standard orientation:
 ---------------------------------------------------------------------
 Center     Atomic      Atomic             Coordinates (Angstroms)
 Number     Number       Type             X           Y           Z
 ---------------------------------------------------------------------
      1          1           0        1.933052    2.001790    0.000000
      2          1           0        1.933052    0.807099    0.000000
      3          1           0        0.966526    1.299568    0.000000
      4          1           0        0.966526    0.104876    0.000000
      5          1           0        0.000000    0.597346    0.000000
      6          1           0       -0.000000   -0.597346   -0.000000
      7          1           0       -0.966526   -0.104876   -0.000000
      8          1           0       -0.966526   -1.299568   -0.000000
      9          1           0       -1.933052   -0.807099   -0.000000
     10          1           0       -1.933052   -2.001790   -0.000000
 ---------------------------------------------------------------------

 SCF Done:  E(UHF) =  -4.81433855862     A.U. after   41 cycles
 E2 =    -0.7357554625D-01 EUMP2 =    -0.48879141048678D+01

 The electronic state is 1-BU.
 Alpha  occ. eigenvalues --   -0.83121  -0.75241  -0.52334  -0.36761  -0.27455
 Alpha virt. eigenvalues --   -0.02769   0.21037   0.22334   0.50224   0.58028
  Beta  occ. eigenvalues --   -0.84281  -0.70797  -0.57493  -0.39490  -0.32052
  Beta virt. eigenvalues --    0.05407   0.20150   0.28782   0.48477   0.56739

 Mulliken charges and spin densities:
               1          2
     1  H    0.061272  -0.466585
     2  H    0.015696   0.499127
     3  H   -0.021207   0.338148
     4  H   -0.009250  -0.200637
     5  H   -0.046510  -0.170053
     6  H   -0.046510  -0.170054
     7  H   -0.009250  -0.200637
     8  H   -0.021207   0.338148
     9  H    0.015696   0.499127
    10  H    0.061272  -0.466585
 Sum of Mulliken charges =   0.00000  -0.00000

 Dipole moment (field-independent basis, Debye):
    X=              0.0000    Y=              0.0000    Z=             -0.0000  Tot=              0.0000
 Quadrupole moment (field-independent basis, Debye-Ang):
   XX=            -11.8895   YY=            -13.6151   ZZ=            -12.9778
   XY=              3.3686   XZ=              0.0000   YZ=              0.0000

 Normal termination of Gaussian 09 at Tue Feb 28 18:18:20 2017.
