 Gaussian 09, Revision E.01,
 Gaussian 09:  ES64L-G09RevE.01 30-Nov-2015

 ----------------------------------------------------------------------
 #uhf/gen scf(tight,novaracc,noincfock,fulldiag) stable(cuhf) guess=rea
 d geom=nocrowd test
 ----------------------------------------------------------------------

 ----------------------------------------------------------------------
 hf stability analysis of h10 triangular lattice, y= 1.0101797939139427
 ----------------------------------------------------------------------
 Symbolic Z-matrix:
 Charge =  0 Multiplicity = 1

                         Standard orientation:
 ---------------------------------------------------------------------
 Center     Atomic      Atomic             Coordinates (Angstroms)
 Number     Number       Type             X           Y           Z
 ---------------------------------------------------------------------
      1          1           0        1.989745    1.775885    0.000000
      2          1           0        1.989745    0.615234    0.000000
      3          1           0        0.994873    1.178106    0.000000
      4          1           0        0.994873    0.017454    0.000000
      5          1           0       -0.000000    0.580326    0.000000
      6          1           0       -0.000000   -0.580326   -0.000000
      7          1           0       -0.994873   -0.017454    0.000000
      8          1           0       -0.994873   -1.178106    0.000000
      9          1           0       -1.989745   -0.615234    0.000000
     10          1           0       -1.989745   -1.775885    0.000000
 ---------------------------------------------------------------------

 SCF Done:  E(UHF) =  -4.84870181268     A.U. after   34 cycles
 E2 =    -0.7288819095D-01 EUMP2 =    -0.49215900036296D+01

 The electronic state is 1-BU.
 Alpha  occ. eigenvalues --   -0.84145  -0.75375  -0.52035  -0.39562  -0.29180
 Alpha virt. eigenvalues --   -0.01831   0.20088   0.25844   0.56706   0.58025
  Beta  occ. eigenvalues --   -0.85169  -0.71546  -0.57490  -0.39210  -0.33436
  Beta virt. eigenvalues --    0.04190   0.22547   0.28092   0.55483   0.55933

 Mulliken charges and spin densities:
               1          2
     1  H    0.045641  -0.463837
     2  H    0.031992   0.475005
     3  H   -0.029670   0.321966
     4  H   -0.005309  -0.194509
     5  H   -0.042654  -0.138625
     6  H   -0.042654  -0.138625
     7  H   -0.005309  -0.194509
     8  H   -0.029670   0.321966
     9  H    0.031992   0.475005
    10  H    0.045641  -0.463837
 Sum of Mulliken charges =   0.00000   0.00000

 Dipole moment (field-independent basis, Debye):
    X=             -0.0000    Y=             -0.0000    Z=              0.0000  Tot=              0.0000
 Quadrupole moment (field-independent basis, Debye-Ang):
   XX=            -11.7563   YY=            -14.7501   ZZ=            -12.9483
   XY=              2.3932   XZ=             -0.0000   YZ=             -0.0000

 Normal termination of Gaussian 09 at Tue Feb 28 18:17:51 2017.
