 Gaussian 09, Revision E.01,
 Gaussian 09:  ES64L-G09RevE.01 30-Nov-2015

 ----------------------------------------------------------------------
 #uhf/gen scf(tight,novaracc,noincfock,fulldiag) stable(cuhf) guess=rea
 d geom=nocrowd test
 ----------------------------------------------------------------------

 ----------------------------------------------------------------------
 hf stability analysis of h10 triangular lattice, y= 1.0153487862282633
 ----------------------------------------------------------------------
 Symbolic Z-matrix:
 Charge =  0 Multiplicity = 1

                         Standard orientation:
 ---------------------------------------------------------------------
 Center     Atomic      Atomic             Coordinates (Angstroms)
 Number     Number       Type             X           Y           Z
 ---------------------------------------------------------------------
      1          1           0        1.984484    1.797958    0.000000
      2          1           0        1.984484    0.634229    0.000000
      3          1           0        0.992242    1.189911    0.000000
      4          1           0        0.992242    0.026182    0.000000
      5          1           0       -0.000000    0.581864    0.000000
      6          1           0       -0.000000   -0.581864    0.000000
      7          1           0       -0.992242   -0.026182   -0.000000
      8          1           0       -0.992242   -1.189911   -0.000000
      9          1           0       -1.984484   -0.634229   -0.000000
     10          1           0       -1.984484   -1.797958   -0.000000
 ---------------------------------------------------------------------

 SCF Done:  E(UHF) =  -4.84595011435     A.U. after   34 cycles
 E2 =    -0.7288410068D-01 EUMP2 =    -0.49188342150352D+01

 The electronic state is 1-BU.
 Alpha  occ. eigenvalues --   -0.84052  -0.75367  -0.52063  -0.39309  -0.29026
 Alpha virt. eigenvalues --   -0.01913   0.20194   0.25505   0.56840   0.57229
  Beta  occ. eigenvalues --   -0.85081  -0.71473  -0.57502  -0.39221  -0.33344
  Beta virt. eigenvalues --    0.04334   0.22291   0.28215   0.55149   0.55608

 Mulliken charges and spin densities:
               1          2
     1  H    0.047521  -0.465875
     2  H    0.030279   0.478410
     3  H   -0.029307   0.324578
     4  H   -0.005230  -0.196123
     5  H   -0.043263  -0.140990
     6  H   -0.043263  -0.140990
     7  H   -0.005230  -0.196123
     8  H   -0.029307   0.324578
     9  H    0.030279   0.478410
    10  H    0.047521  -0.465875
 Sum of Mulliken charges =   0.00000  -0.00000

 Dipole moment (field-independent basis, Debye):
    X=              0.0000    Y=              0.0000    Z=              0.0000  Tot=              0.0000
 Quadrupole moment (field-independent basis, Debye-Ang):
   XX=            -11.7584   YY=            -14.6507   ZZ=            -12.9509
   XY=              2.4954   XZ=              0.0000   YZ=              0.0000

 Normal termination of Gaussian 09 at Tue Feb 28 18:17:54 2017.
