 Gaussian 09, Revision E.01,
 Gaussian 09:  ES64L-G09RevE.01 30-Nov-2015

 ----------------------------------------------------------------------
 #uhf/gen scf(tight,novaracc,noincfock,fulldiag) stable(cuhf) guess=rea
 d geom=nocrowd test
 ----------------------------------------------------------------------

 hf stability analysis of h10 triangular lattice, y= 0.4768902663057268
 4
 ----------------------------------------------------------------------
 Symbolic Z-matrix:
 Charge =  0 Multiplicity = 1

                         Standard orientation:
 ---------------------------------------------------------------------
 Center     Atomic      Atomic             Coordinates (Angstroms)
 Number     Number       Type             X           Y           Z
 ---------------------------------------------------------------------
      1          1           0        1.774828   -1.252672   -0.000000
      2          1           0        1.774828   -2.553869   -0.000000
      3          1           0        0.887414   -0.301037   -0.000000
      4          1           0        0.887414   -1.602234   -0.000000
      5          1           0        0.000000    0.650598    0.000000
      6          1           0       -0.000000   -0.650598    0.000000
      7          1           0       -0.887414    1.602234   -0.000000
      8          1           0       -0.887414    0.301037   -0.000000
      9          1           0       -1.774828    2.553869   -0.000000
     10          1           0       -1.774828    1.252672   -0.000000
 ---------------------------------------------------------------------

 SCF Done:  E(UHF) =  -4.82363093591     A.U. after   23 cycles
 E2 =    -0.4935230821D-01 EUMP2 =    -0.48729832441155D+01

 Unable to determine electronic state:  partially filled degenerate orbitals.
 Alpha  occ. eigenvalues --   -0.81561  -0.73403  -0.58403  -0.42256  -0.24843
 Alpha virt. eigenvalues --    0.06708   0.18959   0.23453   0.42274   0.57164
  Beta  occ. eigenvalues --   -0.83033  -0.72792  -0.58184  -0.37872  -0.30336
  Beta virt. eigenvalues --    0.08478   0.19440   0.28656   0.35702   0.59569

 Mulliken charges and spin densities:
               1          2
     1  H   -0.105244   0.361767
     2  H   -0.088060   0.820116
     3  H    0.115463   0.382047
     4  H    0.159236  -0.257153
     5  H   -0.027571  -0.599294
     6  H   -0.062815  -0.352750
     7  H    0.124417   0.266489
     8  H   -0.016567   0.497492
     9  H   -0.104531  -0.670168
    10  H    0.005672  -0.448545
 Sum of Mulliken charges =  -0.00000  -0.00000

 Dipole moment (field-independent basis, Debye):
    X=             -0.0940    Y=              0.1166    Z=              0.0000  Tot=              0.1497
 Quadrupole moment (field-independent basis, Debye-Ang):
   XX=            -16.8387   YY=            -19.7617   ZZ=            -12.6863
   XY=              5.4245   XZ=             -0.0000   YZ=              0.0000

 Normal termination of Gaussian 09 at Tue Feb 28 18:10:14 2017.
