 Gaussian 09, Revision E.01,
 Gaussian 09:  ES64L-G09RevE.01 30-Nov-2015

 ----------------------------------------------------------------------
 #uhf/gen scf(tight,novaracc,noincfock,fulldiag) stable(cuhf) guess=rea
 d geom=nocrowd test
 ----------------------------------------------------------------------

 hf stability analysis of h10 triangular lattice, y= 0.6035568768658181
 6
 ----------------------------------------------------------------------
 Symbolic Z-matrix:
 Charge =  0 Multiplicity = 1

                         Standard orientation:
 ---------------------------------------------------------------------
 Center     Atomic      Atomic             Coordinates (Angstroms)
 Number     Number       Type             X           Y           Z
 ---------------------------------------------------------------------
      1          1           0        2.041779   -0.408342    0.000000
      2          1           0        2.041779   -1.539415    0.000000
      3          1           0        1.020890    0.078597    0.000000
      4          1           0        1.020890   -1.052476    0.000000
      5          1           0        0.000000    0.565536   -0.000000
      6          1           0       -0.000000   -0.565536   -0.000000
      7          1           0       -1.020890    1.052476    0.000000
      8          1           0       -1.020890   -0.078597    0.000000
      9          1           0       -2.041779    1.539415    0.000000
     10          1           0       -2.041779    0.408342    0.000000
 ---------------------------------------------------------------------

 SCF Done:  E(UHF) =  -4.87069221089     A.U. after   48 cycles
 E2 =    -0.7324334877D-01 EUMP2 =    -0.49439355596655D+01

 The electronic state is 1-BU.
 Alpha  occ. eigenvalues --   -0.85032  -0.75394  -0.51769  -0.42001  -0.30625
 Alpha virt. eigenvalues --   -0.01044   0.18940   0.29420   0.55290   0.66758
  Beta  occ. eigenvalues --   -0.86050  -0.72255  -0.57261  -0.39615  -0.33617
  Beta virt. eigenvalues --    0.02518   0.25440   0.26416   0.54167   0.64802

 Mulliken charges and spin densities:
               1          2
     1  H    0.049061   0.431245
     2  H    0.025335  -0.430382
     3  H   -0.007835  -0.172898
     4  H   -0.031503   0.288263
     5  H   -0.035058  -0.116227
     6  H   -0.035058  -0.116227
     7  H   -0.031503   0.288263
     8  H   -0.007835  -0.172898
     9  H    0.025335  -0.430382
    10  H    0.049061   0.431245
 Sum of Mulliken charges =  -0.00000   0.00000

 Dipole moment (field-independent basis, Debye):
    X=              0.0000    Y=             -0.0000    Z=              0.0000  Tot=              0.0000
 Quadrupole moment (field-independent basis, Debye-Ang):
   XX=            -11.8421   YY=            -15.5718   ZZ=            -12.9219
   XY=             -1.3129   XZ=             -0.0000   YZ=             -0.0000

 Normal termination of Gaussian 09 at Tue Feb 28 18:12:25 2017.
