 Gaussian 09, Revision E.01,
 Gaussian 09:  ES64L-G09RevE.01 30-Nov-2015

 ----------------------------------------------------------------------
 #uhf/gen scf(tight,novaracc,noincfock,fulldiag) stable(cuhf) guess=rea
 d geom=nocrowd test
 ----------------------------------------------------------------------

 ----------------------------------------------------------------------
 hf stability analysis of h10 triangular lattice, y= 1.1662555983306084
 ----------------------------------------------------------------------
 Symbolic Z-matrix:
 Charge =  0 Multiplicity = 1

                         Standard orientation:
 ---------------------------------------------------------------------
 Center     Atomic      Atomic             Coordinates (Angstroms)
 Number     Number       Type             X           Y           Z
 ---------------------------------------------------------------------
      1          1           0        1.822769    2.393715    0.000000
      2          1           0        1.822769    1.126741    0.000000
      3          1           0        0.911385    1.513601    0.000000
      4          1           0        0.911385    0.246627    0.000000
      5          1           0       -0.000000    0.633487    0.000000
      6          1           0       -0.000000   -0.633487    0.000000
      7          1           0       -0.911385   -0.246627    0.000000
      8          1           0       -0.911385   -1.513601    0.000000
      9          1           0       -1.822769   -1.126741    0.000000
     10          1           0       -1.822769   -2.393715    0.000000
 ---------------------------------------------------------------------

 SCF Done:  E(UHF) =  -4.79158949783     A.U. after   41 cycles
 E2 =    -0.5550885438D-01 EUMP2 =    -0.48470983522090D+01

 Unable to determine electronic state:  partially filled degenerate orbitals.
 Alpha  occ. eigenvalues --   -0.82357  -0.73726  -0.58172  -0.41503  -0.22455
 Alpha virt. eigenvalues --    0.04421   0.16422   0.23940   0.43194   0.56285
  Beta  occ. eigenvalues --   -0.84329  -0.73438  -0.57578  -0.36759  -0.30894
  Beta virt. eigenvalues --    0.07551   0.18273   0.30512   0.34835   0.58977

 Mulliken charges and spin densities:
               1          2
     1  H   -0.088707   0.820840
     2  H   -0.081492   0.245759
     3  H    0.156244  -0.188749
     4  H    0.090451   0.457476
     5  H   -0.020168  -0.495222
     6  H   -0.022058  -0.545536
     7  H   -0.098232   0.465109
     8  H    0.123523   0.207835
     9  H    0.061315  -0.392429
    10  H   -0.120875  -0.575083
 Sum of Mulliken charges =   0.00000  -0.00000

 Dipole moment (field-independent basis, Debye):
    X=              0.0005    Y=              0.0641    Z=             -0.0000  Tot=              0.0641
 Quadrupole moment (field-independent basis, Debye-Ang):
   XX=            -16.7343   YY=            -18.9312   ZZ=            -12.7342
   XY=             -4.4696   XZ=             -0.0000   YZ=             -0.0000

 Normal termination of Gaussian 09 at Tue Feb 28 18:19:06 2017.
