 Gaussian 09, Revision E.01,
 Gaussian 09:  ES64L-G09RevE.01 30-Nov-2015

 ----------------------------------------------------------------------
 #uhf/gen scf(tight,novaracc,noincfock,fulldiag) stable(cuhf) guess=rea
 d geom=nocrowd test
 ----------------------------------------------------------------------

 hf stability analysis of h10 triangular lattice, y= 0.6566033129082584
 6
 ----------------------------------------------------------------------
 Symbolic Z-matrix:
 Charge =  0 Multiplicity = 1

                         Standard orientation:
 ---------------------------------------------------------------------
 Center     Atomic      Atomic             Coordinates (Angstroms)
 Number     Number       Type             X           Y           Z
 ---------------------------------------------------------------------
      1          1           0        2.104424   -0.074657    0.000000
      2          1           0        2.104424   -1.172060    0.000000
      3          1           0        1.052212    0.237022    0.000000
      4          1           0        1.052212   -0.860381    0.000000
      5          1           0        0.000000    0.548702    0.000000
      6          1           0       -0.000000   -0.548702    0.000000
      7          1           0       -1.052212    0.860381    0.000000
      8          1           0       -1.052212   -0.237022    0.000000
      9          1           0       -2.104424    1.172060    0.000000
     10          1           0       -2.104424    0.074657    0.000000
 ---------------------------------------------------------------------

 SCF Done:  E(UHF) =  -4.83620094073     A.U. after   49 cycles
 E2 =    -0.8499355677D-01 EUMP2 =    -0.49211944975060D+01

 Unable to determine electronic state:  partially filled degenerate orbitals.
 Alpha  occ. eigenvalues --   -0.86911  -0.74205  -0.53731  -0.43938  -0.27133
 Alpha virt. eigenvalues --   -0.04059   0.20149   0.31754   0.51740   0.78913
  Beta  occ. eigenvalues --   -0.87571  -0.73563  -0.54605  -0.43640  -0.27573
  Beta virt. eigenvalues --   -0.02265   0.18860   0.30320   0.54225   0.78218

 Mulliken charges and spin densities:
               1          2
     1  H   -0.160564  -0.061848
     2  H    0.217278   0.238995
     3  H    0.157607   0.379544
     4  H   -0.185302  -0.037884
     5  H   -0.020928  -0.293031
     6  H    0.046195  -0.015253
     7  H    0.188722  -0.080250
     8  H   -0.276822   0.096487
     9  H   -0.218760  -0.000824
    10  H    0.252573  -0.225936
 Sum of Mulliken charges =  -0.00000   0.00000

 Dipole moment (field-independent basis, Debye):
    X=              0.5368    Y=             -0.4432    Z=              0.0000  Tot=              0.6961
 Quadrupole moment (field-independent basis, Debye-Ang):
   XX=            -13.3079   YY=            -15.7181   ZZ=            -12.8832
   XY=             -0.4128   XZ=             -0.0000   YZ=             -0.0000

 Normal termination of Gaussian 09 at Tue Feb 28 18:13:16 2017.
