 Gaussian 09, Revision E.01,
 Gaussian 09:  ES64L-G09RevE.01 30-Nov-2015

 ----------------------------------------------------------------------
 #uhf/gen scf(tight,novaracc,noincfock,fulldiag) stable(cuhf) guess=rea
 d geom=nocrowd test
 ----------------------------------------------------------------------

 ----------------------------------------------------------------------
 hf stability analysis of h10 triangular lattice, y= 1.0205721581109972
 ----------------------------------------------------------------------
 Symbolic Z-matrix:
 Charge =  0 Multiplicity = 1

                         Standard orientation:
 ---------------------------------------------------------------------
 Center     Atomic      Atomic             Coordinates (Angstroms)
 Number     Number       Type             X           Y           Z
 ---------------------------------------------------------------------
      1          1           0        1.979133    1.820137   -0.000000
      2          1           0        1.979133    0.653262   -0.000000
      3          1           0        0.989566    1.201787   -0.000000
      4          1           0        0.989566    0.034912   -0.000000
      5          1           0        0.000000    0.583438    0.000000
      6          1           0       -0.000000   -0.583438   -0.000000
      7          1           0       -0.989566   -0.034912   -0.000000
      8          1           0       -0.989566   -1.201787   -0.000000
      9          1           0       -1.979133   -0.653262   -0.000000
     10          1           0       -1.979133   -1.820137   -0.000000
 ---------------------------------------------------------------------

 SCF Done:  E(UHF) =  -4.84305653793     A.U. after   34 cycles
 E2 =    -0.7288791537D-01 EUMP2 =    -0.49159444533001D+01

 The electronic state is 1-BU.
 Alpha  occ. eigenvalues --   -0.83957  -0.75358  -0.52091  -0.39051  -0.28868
 Alpha virt. eigenvalues --   -0.01997   0.20300   0.25163   0.56435   0.56974
  Beta  occ. eigenvalues --   -0.84992  -0.71399  -0.57512  -0.39239  -0.33240
  Beta virt. eigenvalues --    0.04476   0.22039   0.28330   0.54371   0.55734

 Mulliken charges and spin densities:
               1          2
     1  H    0.049381  -0.467682
     2  H    0.028554   0.481691
     3  H   -0.028888   0.327075
     4  H   -0.005199  -0.197636
     5  H   -0.043847  -0.143449
     6  H   -0.043847  -0.143449
     7  H   -0.005199  -0.197636
     8  H   -0.028888   0.327075
     9  H    0.028554   0.481691
    10  H    0.049381  -0.467682
 Sum of Mulliken charges =  -0.00000  -0.00000

 Dipole moment (field-independent basis, Debye):
    X=             -0.0000    Y=              0.0000    Z=             -0.0000  Tot=              0.0000
 Quadrupole moment (field-independent basis, Debye-Ang):
   XX=            -11.7623   YY=            -14.5474   ZZ=            -12.9535
   XY=              2.5977   XZ=              0.0000   YZ=             -0.0000

 Normal termination of Gaussian 09 at Tue Feb 28 18:17:57 2017.
