 Gaussian 09, Revision E.01,
 Gaussian 09:  ES64L-G09RevE.01 30-Nov-2015

 ----------------------------------------------------------------------
 #uhf/gen scf(tight,novaracc,noincfock,fulldiag) stable(cuhf) guess=rea
 d geom=nocrowd test
 ----------------------------------------------------------------------

 hf stability analysis of h10 triangular lattice, y= 0.5335894054604231
 1
 ----------------------------------------------------------------------
 Symbolic Z-matrix:
 Charge =  0 Multiplicity = 1

                         Standard orientation:
 ---------------------------------------------------------------------
 Center     Atomic      Atomic             Coordinates (Angstroms)
 Number     Number       Type             X           Y           Z
 ---------------------------------------------------------------------
      1          1           0        1.914247   -0.865640    0.000000
      2          1           0        1.914247   -2.072067    0.000000
      3          1           0        0.957124   -0.131213    0.000000
      4          1           0        0.957124   -1.337641    0.000000
      5          1           0       -0.000000    0.603214    0.000000
      6          1           0       -0.000000   -0.603214    0.000000
      7          1           0       -0.957124    1.337641   -0.000000
      8          1           0       -0.957124    0.131213   -0.000000
      9          1           0       -1.914247    2.072067   -0.000000
     10          1           0       -1.914247    0.865640   -0.000000
 ---------------------------------------------------------------------

 SCF Done:  E(UHF) =  -4.79985022173     A.U. after   63 cycles
 E2 =    -0.8561422651D-01 EUMP2 =    -0.48854644482371D+01

 The electronic state is 1-BU.
 Alpha  occ. eigenvalues --   -0.82514  -0.75041  -0.53892  -0.35754  -0.25053
 Alpha virt. eigenvalues --   -0.03713   0.19767   0.20146   0.47972   0.56941
  Beta  occ. eigenvalues --   -0.85973  -0.72383  -0.56261  -0.34980  -0.33277
  Beta virt. eigenvalues --    0.05797   0.16855   0.28194   0.42184   0.56318

 Mulliken charges and spin densities:
               1          2
     1  H    0.051470   0.319156
     2  H   -0.044362  -0.079157
     3  H   -0.098682  -0.029652
     4  H    0.097374   0.081304
     5  H   -0.005799  -0.291652
     6  H   -0.005799  -0.291652
     7  H    0.097374   0.081304
     8  H   -0.098682  -0.029652
     9  H   -0.044362  -0.079157
    10  H    0.051470   0.319156
 Sum of Mulliken charges =   0.00000   0.00000

 Dipole moment (field-independent basis, Debye):
    X=             -0.0000    Y=              0.0000    Z=             -0.0000  Tot=              0.0000
 Quadrupole moment (field-independent basis, Debye-Ang):
   XX=            -14.1905   YY=            -15.3520   ZZ=            -13.0015
   XY=             -0.6714   XZ=             -0.0000   YZ=             -0.0000

 Normal termination of Gaussian 09 at Tue Feb 28 18:11:11 2017.
