 Gaussian 09, Revision E.01,
 Gaussian 09:  ES64L-G09RevE.01 30-Nov-2015

 ----------------------------------------------------------------------
 #uhf/gen scf(tight,novaracc,noincfock,fulldiag) stable(cuhf) guess=rea
 d geom=nocrowd test
 ----------------------------------------------------------------------

 ----------------------------------------------------------------------
 hf stability analysis of h10 triangular lattice, y= 1.0311871763068714
 ----------------------------------------------------------------------
 Symbolic Z-matrix:
 Charge =  0 Multiplicity = 1

                         Standard orientation:
 ---------------------------------------------------------------------
 Center     Atomic      Atomic             Coordinates (Angstroms)
 Number     Number       Type             X           Y           Z
 ---------------------------------------------------------------------
      1          1           0        1.968160    1.864828    0.000000
      2          1           0        1.968160    0.691448    0.000000
      3          1           0        0.984080    1.225759    0.000000
      4          1           0        0.984080    0.052379    0.000000
      5          1           0        0.000000    0.586690    0.000000
      6          1           0       -0.000000   -0.586690   -0.000000
      7          1           0       -0.984080   -0.052379    0.000000
      8          1           0       -0.984080   -1.225759   -0.000000
      9          1           0       -1.968160   -0.691448    0.000000
     10          1           0       -1.968160   -1.864828   -0.000000
 ---------------------------------------------------------------------

 SCF Done:  E(UHF) =  -4.83682806761     A.U. after   33 cycles
 E2 =    -0.7292590242D-01 EUMP2 =    -0.49097539700336D+01

 The electronic state is 1-BU.
 Alpha  occ. eigenvalues --   -0.83761  -0.75337  -0.52148  -0.38517  -0.28540
 Alpha virt. eigenvalues --   -0.02170   0.20508   0.24474   0.54854   0.57242
  Beta  occ. eigenvalues --   -0.84812  -0.71249  -0.57527  -0.39295  -0.32997
  Beta virt. eigenvalues --    0.04747   0.21544   0.28530   0.52841   0.55986

 Mulliken charges and spin densities:
               1          2
     1  H    0.052997  -0.470477
     2  H    0.025095   0.487810
     3  H   -0.027838   0.331640
     4  H   -0.005328  -0.200264
     5  H   -0.044926  -0.148710
     6  H   -0.044926  -0.148710
     7  H   -0.005328  -0.200264
     8  H   -0.027838   0.331640
     9  H    0.025095   0.487810
    10  H    0.052997  -0.470477
 Sum of Mulliken charges =   0.00000   0.00000

 Dipole moment (field-independent basis, Debye):
    X=             -0.0000    Y=              0.0000    Z=              0.0000  Tot=              0.0000
 Quadrupole moment (field-independent basis, Debye-Ang):
   XX=            -11.7766   YY=            -14.3294   ZZ=            -12.9590
   XY=              2.8014   XZ=              0.0000   YZ=             -0.0000

 Normal termination of Gaussian 09 at Tue Feb 28 18:18:03 2017.
