 Gaussian 09, Revision E.01,
 Gaussian 09:  ES64L-G09RevE.01 30-Nov-2015

 ----------------------------------------------------------------------
 #uhf/gen scf(tight,novaracc,noincfock,fulldiag) stable(cuhf) guess=rea
 d geom=nocrowd test
 ----------------------------------------------------------------------

 hf stability analysis of h10 triangular lattice, y= 0.6299221068523126
 5
 ----------------------------------------------------------------------
 Symbolic Z-matrix:
 Charge =  0 Multiplicity = 1

                         Standard orientation:
 ---------------------------------------------------------------------
 Center     Atomic      Atomic             Coordinates (Angstroms)
 Number     Number       Type             X           Y           Z
 ---------------------------------------------------------------------
      1          1           0        2.076541   -0.241040    0.000000
      2          1           0        2.076541   -1.353179    0.000000
      3          1           0        1.038271    0.157514    0.000000
      4          1           0        1.038271   -0.954624    0.000000
      5          1           0       -0.000000    0.556069    0.000000
      6          1           0       -0.000000   -0.556069    0.000000
      7          1           0       -1.038271    0.954624   -0.000000
      8          1           0       -1.038271   -0.157514   -0.000000
      9          1           0       -2.076541    1.353179   -0.000000
     10          1           0       -2.076541    0.241040   -0.000000
 ---------------------------------------------------------------------

 SCF Done:  E(UHF) =  -4.82173893983     A.U. after  104 cycles
 E2 =    -0.9797249342D-01 EUMP2 =    -0.49197114332427D+01

 The electronic state is 1-AG.
 Alpha  occ. eigenvalues --   -0.85515  -0.73647  -0.55121  -0.43512  -0.27107
 Alpha virt. eigenvalues --   -0.04315   0.20345   0.30771   0.52553   0.72670
  Beta  occ. eigenvalues --   -0.87557  -0.74306  -0.52397  -0.44555  -0.28149
  Beta virt. eigenvalues --   -0.02096   0.18715   0.28321   0.56031   0.70613

 Mulliken charges and spin densities:
               1          2
     1  H   -0.064280  -0.125650
     2  H    0.110349   0.306924
     3  H   -0.056679   0.207975
     4  H   -0.003924  -0.282370
     5  H    0.014534  -0.106879
     6  H    0.014534  -0.106879
     7  H   -0.003924  -0.282370
     8  H   -0.056679   0.207976
     9  H    0.110349   0.306924
    10  H   -0.064280  -0.125650
 Sum of Mulliken charges =   0.00000   0.00000

 Dipole moment (field-independent basis, Debye):
    X=             -0.0000    Y=              0.0000    Z=             -0.0000  Tot=              0.0000
 Quadrupole moment (field-independent basis, Debye-Ang):
   XX=            -12.4002   YY=            -14.6501   ZZ=            -12.9236
   XY=             -4.1227   XZ=              0.0000   YZ=             -0.0000

 Normal termination of Gaussian 09 at Tue Feb 28 18:12:48 2017.
