 Gaussian 09, Revision E.01,
 Gaussian 09:  ES64L-G09RevE.01 30-Nov-2015

 ----------------------------------------------------------------------
 #uhf/gen scf(tight,novaracc,noincfock,fulldiag) stable(cuhf) guess=rea
 d geom=nocrowd test
 ----------------------------------------------------------------------

 ----------------------------------------------------------------------
 hf stability analysis of h10 triangular lattice, y= 1.0050639437111659
 ----------------------------------------------------------------------
 Symbolic Z-matrix:
 Charge =  0 Multiplicity = 1

                         Standard orientation:
 ---------------------------------------------------------------------
 Center     Atomic      Atomic             Coordinates (Angstroms)
 Number     Number       Type             X           Y           Z
 ---------------------------------------------------------------------
      1          1           0        1.994917    1.753917   -0.000000
      2          1           0        1.994917    0.596275   -0.000000
      3          1           0        0.997459    1.166369   -0.000000
      4          1           0        0.997459    0.008727   -0.000000
      5          1           0       -0.000000    0.578821    0.000000
      6          1           0       -0.000000   -0.578821    0.000000
      7          1           0       -0.997459   -0.008727   -0.000000
      8          1           0       -0.997459   -1.166369    0.000000
      9          1           0       -1.994917   -0.596275   -0.000000
     10          1           0       -1.994917   -1.753917    0.000000
 ---------------------------------------------------------------------

 SCF Done:  E(UHF) =  -4.85131553040     A.U. after   34 cycles
 E2 =    -0.7289899586D-01 EUMP2 =    -0.49242145262572D+01

 The electronic state is 1-BU.
 Alpha  occ. eigenvalues --   -0.84236  -0.75382  -0.52009  -0.39810  -0.29331
 Alpha virt. eigenvalues --   -0.01752   0.19980   0.26181   0.56573   0.58822
  Beta  occ. eigenvalues --   -0.85256  -0.71617  -0.57476  -0.39208  -0.33514
  Beta virt. eigenvalues --    0.04043   0.22805   0.27961   0.55359   0.56723

 Mulliken charges and spin densities:
               1          2
     1  H    0.043748  -0.461594
     2  H    0.033689   0.471489
     3  H   -0.029984   0.319254
     4  H   -0.005428  -0.192811
     5  H   -0.042026  -0.136338
     6  H   -0.042026  -0.136338
     7  H   -0.005428  -0.192811
     8  H   -0.029984   0.319254
     9  H    0.033689   0.471489
    10  H    0.043748  -0.461594
 Sum of Mulliken charges =  -0.00000   0.00000

 Dipole moment (field-independent basis, Debye):
    X=              0.0000    Y=             -0.0000    Z=             -0.0000  Tot=              0.0000
 Quadrupole moment (field-independent basis, Debye-Ang):
   XX=            -11.7562   YY=            -14.8453   ZZ=            -12.9457
   XY=              2.2911   XZ=             -0.0000   YZ=              0.0000

 Normal termination of Gaussian 09 at Tue Feb 28 18:17:47 2017.
