 Gaussian 09, Revision E.01,
 Gaussian 09:  ES64L-G09RevE.01 30-Nov-2015

 ----------------------------------------------------------------------
 #uhf/gen scf(tight,novaracc,noincfock,fulldiag) stable(cuhf) guess=rea
 d geom=nocrowd test
 ----------------------------------------------------------------------

 ----------------------------------------------------------------------
 hf stability analysis of h10 triangular lattice, y= 1.7868378553155890
 ----------------------------------------------------------------------
 Symbolic Z-matrix:
 Charge =  0 Multiplicity = 1

                         Standard orientation:
 ---------------------------------------------------------------------
 Center     Atomic      Atomic             Coordinates (Angstroms)
 Number     Number       Type             X           Y           Z
 ---------------------------------------------------------------------
      1          1           0        1.271825    4.309559   -0.000000
      2          1           0        1.271825    2.493742   -0.000000
      3          1           0        0.635913    2.608734   -0.000000
      4          1           0        0.635913    0.792917   -0.000000
      5          1           0        0.000000    0.907909    0.000000
      6          1           0       -0.000000   -0.907909    0.000000
      7          1           0       -0.635913   -0.792917    0.000000
      8          1           0       -0.635913   -2.608734    0.000000
      9          1           0       -1.271825   -2.493742    0.000000
     10          1           0       -1.271825   -4.309559    0.000000
 ---------------------------------------------------------------------

 SCF Done:  E(UHF) =  -5.18727304022     A.U. after   13 cycles
 E2 =    -0.3844071731D-01 EUMP2 =    -0.52257137575277D+01

 Unable to determine electronic state:  partially filled degenerate orbitals.
 Alpha  occ. eigenvalues --   -0.73560  -0.69931  -0.64010  -0.57060  -0.46669
 Alpha virt. eigenvalues --    0.15601   0.34120   0.42496   0.55021   0.67300
  Beta  occ. eigenvalues --   -0.73560  -0.69931  -0.64010  -0.57060  -0.46669
  Beta virt. eigenvalues --    0.15601   0.34120   0.42496   0.55021   0.67300

 Mulliken charges and spin densities:
               1          2
     1  H    0.002293   1.002196
     2  H   -0.002842  -0.000214
     3  H   -0.000227  -0.002796
     4  H   -0.000261  -0.000860
     5  H    0.001036   0.001589
     6  H    0.001036  -0.001589
     7  H   -0.000261   0.000860
     8  H   -0.000227   0.002796
     9  H   -0.002842   0.000214
    10  H    0.002293  -1.002196
 Sum of Mulliken charges =  -0.00000   0.00000

 Dipole moment (field-independent basis, Debye):
    X=             -0.0000    Y=             -0.0000    Z=             -0.0000  Tot=              0.0000
 Quadrupole moment (field-independent basis, Debye-Ang):
   XX=            -12.1445   YY=            -16.9763   ZZ=            -13.0737
   XY=             -1.5140   XZ=             -0.0000   YZ=              0.0000

 Normal termination of Gaussian 09 at Tue Feb 28 18:21:33 2017.
