 Gaussian 09, Revision E.01,
 Gaussian 09:  ES64L-G09RevE.01 30-Nov-2015

 ----------------------------------------------------------------------
 #uhf/gen scf(tight,novaracc,noincfock,fulldiag) stable(cuhf) guess=rea
 d geom=nocrowd test
 ----------------------------------------------------------------------

 hf stability analysis of h10 triangular lattice, y= 0.4799368795303601
 3
 ----------------------------------------------------------------------
 Symbolic Z-matrix:
 Charge =  0 Multiplicity = 1

                         Standard orientation:
 ---------------------------------------------------------------------
 Center     Atomic      Atomic             Coordinates (Angstroms)
 Number     Number       Type             X           Y           Z
 ---------------------------------------------------------------------
      1          1           0        1.783080   -1.231386   -0.000000
      2          1           0        1.783080   -2.526562   -0.000000
      3          1           0        0.891540   -0.291899   -0.000000
      4          1           0        0.891540   -1.587075   -0.000000
      5          1           0        0.000000    0.647588    0.000000
      6          1           0       -0.000000   -0.647588    0.000000
      7          1           0       -0.891540    1.587075   -0.000000
      8          1           0       -0.891540    0.291899    0.000000
      9          1           0       -1.783080    2.526562   -0.000000
     10          1           0       -1.783080    1.231386   -0.000000
 ---------------------------------------------------------------------

 SCF Done:  E(UHF) =  -4.81745706719     A.U. after   24 cycles
 E2 =    -0.4948018516D-01 EUMP2 =    -0.48669372523468D+01

 Unable to determine electronic state:  partially filled degenerate orbitals.
 Alpha  occ. eigenvalues --   -0.81704  -0.73472  -0.58414  -0.42264  -0.24405
 Alpha virt. eigenvalues --    0.06400   0.18431   0.23572   0.42510   0.57019
  Beta  occ. eigenvalues --   -0.83272  -0.72883  -0.58073  -0.37727  -0.30583
  Beta virt. eigenvalues --    0.08535   0.19201   0.29276   0.35299   0.59510

 Mulliken charges and spin densities:
               1          2
     1  H   -0.098016   0.318929
     2  H   -0.088942   0.830631
     3  H    0.107630   0.425816
     4  H    0.155593  -0.228261
     5  H   -0.024792  -0.598382
     6  H   -0.051385  -0.408423
     7  H    0.122918   0.259410
     8  H   -0.031911   0.501591
     9  H   -0.106809  -0.658576
    10  H    0.015715  -0.442736
 Sum of Mulliken charges =   0.00000  -0.00000

 Dipole moment (field-independent basis, Debye):
    X=             -0.0836    Y=              0.0938    Z=              0.0000  Tot=              0.1256
 Quadrupole moment (field-independent basis, Debye-Ang):
   XX=            -16.8063   YY=            -19.6416   ZZ=            -12.6894
   XY=              5.2712   XZ=              0.0000   YZ=             -0.0000

 Normal termination of Gaussian 09 at Tue Feb 28 18:10:18 2017.
