 Gaussian 09, Revision E.01,
 Gaussian 09:  ES64L-G09RevE.01 30-Nov-2015

 ----------------------------------------------------------------------
 #uhf/gen scf(tight,novaracc,noincfock,fulldiag) stable(cuhf) guess=rea
 d geom=nocrowd test
 ----------------------------------------------------------------------

 hf stability analysis of h10 triangular lattice, y= 0.9802409242172439
 6
 ----------------------------------------------------------------------
 Symbolic Z-matrix:
 Charge =  0 Multiplicity = 1

                         Standard orientation:
 ---------------------------------------------------------------------
 Center     Atomic      Atomic             Coordinates (Angstroms)
 Number     Number       Type             X           Y           Z
 ---------------------------------------------------------------------
      1          1           0        2.019446    1.645549   -0.000000
      2          1           0        2.019446    0.501967   -0.000000
      3          1           0        1.009723    1.108670   -0.000000
      4          1           0        1.009723   -0.034912   -0.000000
      5          1           0       -0.000000    0.571791    0.000000
      6          1           0       -0.000000   -0.571791    0.000000
      7          1           0       -1.009723    0.034912   -0.000000
      8          1           0       -1.009723   -1.108670   -0.000000
      9          1           0       -2.019446   -0.501967   -0.000000
     10          1           0       -2.019446   -1.645549   -0.000000
 ---------------------------------------------------------------------

 SCF Done:  E(UHF) =  -4.86244823402     A.U. after   37 cycles
 E2 =    -0.7302733406D-01 EUMP2 =    -0.49354755680811D+01

 The electronic state is 1-BU.
 Alpha  occ. eigenvalues --   -0.84659  -0.75401  -0.51883  -0.40969  -0.30025
 Alpha virt. eigenvalues --   -0.01378   0.19449   0.27833   0.55919   0.62810
  Beta  occ. eigenvalues --   -0.85671  -0.71954  -0.57384  -0.39320  -0.33710
  Beta virt. eigenvalues --    0.03283   0.24120   0.27229   0.54749   0.60741

 Mulliken charges and spin densities:
               1          2
     1  H    0.034320  -0.447792
     2  H    0.041802   0.452469
     3  H   -0.031025   0.304520
     4  H   -0.006429  -0.183402
     5  H   -0.038668  -0.125795
     6  H   -0.038668  -0.125795
     7  H   -0.006429  -0.183402
     8  H   -0.031025   0.304520
     9  H    0.041802   0.452469
    10  H    0.034320  -0.447792
 Sum of Mulliken charges =   0.00000  -0.00000

 Dipole moment (field-independent basis, Debye):
    X=              0.0000    Y=              0.0000    Z=             -0.0000  Tot=              0.0000
 Quadrupole moment (field-independent basis, Debye-Ang):
   XX=            -11.7805   YY=            -15.2598   ZZ=            -12.9334
   XY=              1.7895   XZ=             -0.0000   YZ=             -0.0000

 Normal termination of Gaussian 09 at Tue Feb 28 18:17:32 2017.
