 Gaussian 09, Revision E.01,
 Gaussian 09:  ES64L-G09RevE.01 30-Nov-2015

 ----------------------------------------------------------------------
 #uhf/gen scf(tight,novaracc,noincfock,fulldiag) stable(cuhf) guess=rea
 d geom=nocrowd test
 ----------------------------------------------------------------------

 hf stability analysis of h10 triangular lattice, y= 0.4920397018298700
 0
 ----------------------------------------------------------------------
 Symbolic Z-matrix:
 Charge =  0 Multiplicity = 1

                         Standard orientation:
 ---------------------------------------------------------------------
 Center     Atomic      Atomic             Coordinates (Angstroms)
 Number     Number       Type             X           Y           Z
 ---------------------------------------------------------------------
      1          1           0        1.815038   -1.147447    0.000000
      2          1           0        1.815038   -2.419818    0.000000
      3          1           0        0.907519   -0.255631    0.000000
      4          1           0        0.907519   -1.528002    0.000000
      5          1           0        0.000000    0.636185   -0.000000
      6          1           0       -0.000000   -0.636185   -0.000000
      7          1           0       -0.907519    1.528002    0.000000
      8          1           0       -0.907519    0.255631    0.000000
      9          1           0       -1.815038    2.419818    0.000000
     10          1           0       -1.815038    1.147447    0.000000
 ---------------------------------------------------------------------

 SCF Done:  E(UHF) =  -4.79603331317     A.U. after   28 cycles
 E2 =    -0.5375923616D-01 EUMP2 =    -0.48497925493321D+01

 Unable to determine electronic state:  partially filled degenerate orbitals.
 Alpha  occ. eigenvalues --   -0.82240  -0.73679  -0.58249  -0.41704  -0.22824
 Alpha virt. eigenvalues --    0.04857   0.16768   0.23896   0.43042   0.56427
  Beta  occ. eigenvalues --   -0.84134  -0.73321  -0.57671  -0.36955  -0.30917
  Beta virt. eigenvalues --    0.07866   0.18420   0.30463   0.34736   0.59092

 Mulliken charges and spin densities:
               1          2
     1  H   -0.083406   0.250397
     2  H   -0.089224   0.827529
     3  H    0.092256   0.464251
     4  H    0.154287  -0.187597
     5  H   -0.021234  -0.560878
     6  H   -0.024810  -0.488599
     7  H    0.123059   0.218940
     8  H   -0.084885   0.475709
     9  H   -0.117976  -0.593077
    10  H    0.051932  -0.406676
 Sum of Mulliken charges =  -0.00000  -0.00000

 Dipole moment (field-independent basis, Debye):
    X=             -0.0209    Y=             -0.0240    Z=             -0.0000  Tot=              0.0319
 Quadrupole moment (field-independent basis, Debye-Ang):
   XX=            -16.7566   YY=            -19.0884   ZZ=            -12.7225
   XY=              4.6478   XZ=              0.0000   YZ=             -0.0000

 Normal termination of Gaussian 09 at Tue Feb 28 18:10:31 2017.
