 Gaussian 09, Revision E.01,
 Gaussian 09:  ES64L-G09RevE.01 30-Nov-2015

 ----------------------------------------------------------------------
 #uhf/gen scf(tight,novaracc,noincfock,fulldiag) stable(cuhf) guess=rea
 d geom=nocrowd test
 ----------------------------------------------------------------------

 hf stability analysis of h10 triangular lattice, y= 0.6506387228320011
 9
 ----------------------------------------------------------------------
 Symbolic Z-matrix:
 Charge =  0 Multiplicity = 1

                         Standard orientation:
 ---------------------------------------------------------------------
 Center     Atomic      Atomic             Coordinates (Angstroms)
 Number     Number       Type             X           Y           Z
 ---------------------------------------------------------------------
      1          1           0        2.098816   -0.111587    0.000000
      2          1           0        2.098816   -1.211922    0.000000
      3          1           0        1.049408    0.219290    0.000000
      4          1           0        1.049408   -0.881045    0.000000
      5          1           0       -0.000000    0.550168    0.000000
      6          1           0       -0.000000   -0.550168    0.000000
      7          1           0       -1.049408    0.881045    0.000000
      8          1           0       -1.049408   -0.219290    0.000000
      9          1           0       -2.098816    1.211922    0.000000
     10          1           0       -2.098816    0.111587    0.000000
 ---------------------------------------------------------------------

 SCF Done:  E(UHF) =  -4.83487508455     A.U. after   42 cycles
 E2 =    -0.8626595474D-01 EUMP2 =    -0.49211410392966D+01

 Unable to determine electronic state:  partially filled degenerate orbitals.
 Alpha  occ. eigenvalues --   -0.86748  -0.74185  -0.53904  -0.43953  -0.26989
 Alpha virt. eigenvalues --   -0.04121   0.20266   0.31411   0.51875   0.77504
  Beta  occ. eigenvalues --   -0.87532  -0.73648  -0.54510  -0.43678  -0.27797
  Beta virt. eigenvalues --   -0.02043   0.18761   0.29989   0.54526   0.76766

 Mulliken charges and spin densities:
               1          2
     1  H   -0.160463  -0.093750
     2  H    0.218055   0.274368
     3  H    0.146552   0.388280
     4  H   -0.172410  -0.085832
     5  H   -0.013408  -0.312598
     6  H    0.034503   0.006307
     7  H    0.173149  -0.076031
     8  H   -0.262198   0.107599
     9  H   -0.194463   0.015393
    10  H    0.230683  -0.223736
 Sum of Mulliken charges =   0.00000  -0.00000

 Dipole moment (field-independent basis, Debye):
    X=              0.5340    Y=             -0.4254    Z=              0.0000  Tot=              0.6827
 Quadrupole moment (field-independent basis, Debye-Ang):
   XX=            -13.0537   YY=            -15.7188   ZZ=            -12.8906
   XY=             -0.8685   XZ=              0.0000   YZ=              0.0000

 Normal termination of Gaussian 09 at Tue Feb 28 18:13:10 2017.
