 Gaussian 09, Revision E.01,
 Gaussian 09:  ES64L-G09RevE.01 30-Nov-2015

 ----------------------------------------------------------------------
 #uhf/gen scf(tight,novaracc,noincfock,fulldiag) stable(cuhf) guess=rea
 d geom=nocrowd test
 ----------------------------------------------------------------------

 hf stability analysis of h10 triangular lattice, y= 0.6064756379129316
 9
 ----------------------------------------------------------------------
 Symbolic Z-matrix:
 Charge =  0 Multiplicity = 1

                         Standard orientation:
 ---------------------------------------------------------------------
 Center     Atomic      Atomic             Coordinates (Angstroms)
 Number     Number       Type             X           Y           Z
 ---------------------------------------------------------------------
      1          1           0        2.045985   -0.389685   -0.000000
      2          1           0        2.045985   -1.518432   -0.000000
      3          1           0        1.022993    0.087344    0.000000
      4          1           0        1.022993   -1.041403   -0.000000
      5          1           0        0.000000    0.564374    0.000000
      6          1           0       -0.000000   -0.564374    0.000000
      7          1           0       -1.022993    1.041403   -0.000000
      8          1           0       -1.022993   -0.087344    0.000000
      9          1           0       -2.045985    1.518432   -0.000000
     10          1           0       -2.045985    0.389685   -0.000000
 ---------------------------------------------------------------------

 SCF Done:  E(UHF) =  -4.87203327857     A.U. after   52 cycles
 E2 =    -0.7329497385D-01 EUMP2 =    -0.49453282524156D+01

 The electronic state is 1-BU.
 Alpha  occ. eigenvalues --   -0.85101  -0.75389  -0.51748  -0.42193  -0.30734
 Alpha virt. eigenvalues --   -0.00982   0.18842   0.29728   0.55167   0.67539
  Beta  occ. eigenvalues --   -0.86121  -0.72311  -0.57233  -0.39689  -0.33571
  Beta virt. eigenvalues --    0.02367   0.25701   0.26249   0.54055   0.65612

 Mulliken charges and spin densities:
               1          2
     1  H    0.050388   0.426729
     2  H    0.023626  -0.426502
     3  H   -0.008145  -0.170687
     4  H   -0.031557   0.284851
     5  H   -0.034313  -0.114390
     6  H   -0.034313  -0.114390
     7  H   -0.031557   0.284851
     8  H   -0.008145  -0.170687
     9  H    0.023626  -0.426502
    10  H    0.050388   0.426729
 Sum of Mulliken charges =  -0.00000  -0.00000

 Dipole moment (field-independent basis, Debye):
    X=             -0.0000    Y=             -0.0000    Z=             -0.0000  Tot=              0.0000
 Quadrupole moment (field-independent basis, Debye-Ang):
   XX=            -11.8585   YY=            -15.6223   ZZ=            -12.9198
   XY=             -1.2217   XZ=              0.0000   YZ=              0.0000

 Normal termination of Gaussian 09 at Tue Feb 28 18:12:28 2017.
