 Gaussian 09, Revision E.01,
 Gaussian 09:  ES64L-G09RevE.01 30-Nov-2015

 ----------------------------------------------------------------------
 #uhf/gen scf(tight,novaracc,noincfock,fulldiag) stable(cuhf) guess=rea
 d geom=nocrowd test
 ----------------------------------------------------------------------

 hf stability analysis of h10 triangular lattice, y= 0.6929481720257152
 4
 ----------------------------------------------------------------------
 Symbolic Z-matrix:
 Charge =  0 Multiplicity = 1

                         Standard orientation:
 ---------------------------------------------------------------------
 Center     Atomic      Atomic             Coordinates (Angstroms)
 Number     Number       Type             X           Y           Z
 ---------------------------------------------------------------------
      1          1           0        2.131070    0.146870   -0.000000
      2          1           0        2.131070   -0.936811    0.000000
      3          1           0        1.065535    0.344355   -0.000000
      4          1           0        1.065535   -0.739326    0.000000
      5          1           0        0.000000    0.541841   -0.000000
      6          1           0       -0.000000   -0.541841   -0.000000
      7          1           0       -1.065535    0.739326    0.000000
      8          1           0       -1.065535   -0.344355   -0.000000
      9          1           0       -2.131070    0.936811    0.000000
     10          1           0       -2.131070   -0.146870   -0.000000
 ---------------------------------------------------------------------

 SCF Done:  E(UHF) =  -4.95336688884     A.U. after   26 cycles
 E2 =    -0.4981888898D-01 EUMP2 =    -0.50031857778292D+01

 Unable to determine electronic state:  partially filled degenerate orbitals.
 Alpha  occ. eigenvalues --   -0.87023  -0.74851  -0.55922  -0.44620  -0.38438
 Alpha virt. eigenvalues --    0.06466   0.20714   0.35815   0.53480   0.86511
  Beta  occ. eigenvalues --   -0.87023  -0.74851  -0.55922  -0.44620  -0.38438
  Beta virt. eigenvalues --    0.06466   0.20714   0.35815   0.53480   0.86511

 Mulliken charges and spin densities:
               1          2
     1  H    0.005689  -0.572901
     2  H    0.046954   0.603258
     3  H   -0.036809   0.544260
     4  H   -0.011305  -0.542019
     5  H   -0.004529  -0.385353
     6  H   -0.004529   0.385353
     7  H   -0.011305   0.542019
     8  H   -0.036809  -0.544260
     9  H    0.046954  -0.603258
    10  H    0.005689   0.572901
 Sum of Mulliken charges =   0.00000  -0.00000

 Dipole moment (field-independent basis, Debye):
    X=             -0.0000    Y=              0.0000    Z=              0.0000  Tot=              0.0000
 Quadrupole moment (field-independent basis, Debye-Ang):
   XX=            -13.2076   YY=            -15.1456   ZZ=            -12.8017
   XY=             -1.2435   XZ=             -0.0000   YZ=             -0.0000

 Normal termination of Gaussian 09 at Tue Feb 28 18:13:51 2017.
