 Gaussian 09, Revision E.01,
 Gaussian 09:  ES64L-G09RevE.01 30-Nov-2015

 ----------------------------------------------------------------------
 #uhf/gen scf(tight,novaracc,noincfock,fulldiag) stable(cuhf) guess=rea
 d geom=nocrowd test
 ----------------------------------------------------------------------

 ----------------------------------------------------------------------
 hf stability analysis of h10 triangular lattice, y= 1.0587704668665670
 ----------------------------------------------------------------------
 Symbolic Z-matrix:
 Charge =  0 Multiplicity = 1

                         Standard orientation:
 ---------------------------------------------------------------------
 Center     Atomic      Atomic             Coordinates (Angstroms)
 Number     Number       Type             X           Y           Z
 ---------------------------------------------------------------------
      1          1           0        1.939133    1.978643    0.000000
      2          1           0        1.939133    0.787698    0.000000
      3          1           0        0.969567    1.287058    0.000000
      4          1           0        0.969567    0.096113    0.000000
      5          1           0        0.000000    0.595472    0.000000
      6          1           0       -0.000000   -0.595472    0.000000
      7          1           0       -0.969567   -0.096113    0.000000
      8          1           0       -0.969567   -1.287058    0.000000
      9          1           0       -1.939133   -0.787698    0.000000
     10          1           0       -1.939133   -1.978643    0.000000
 ---------------------------------------------------------------------

 SCF Done:  E(UHF) =  -4.81850325573     A.U. after   38 cycles
 E2 =    -0.7336338978D-01 EUMP2 =    -0.48918666455111D+01

 The electronic state is 1-BU.
 Alpha  occ. eigenvalues --   -0.83233  -0.75261  -0.52301  -0.37072  -0.27648
 Alpha virt. eigenvalues --   -0.02657   0.20967   0.22701   0.50978   0.57904
  Beta  occ. eigenvalues --   -0.84365  -0.70868  -0.57510  -0.39472  -0.32222
  Beta virt. eigenvalues --    0.05319   0.20376   0.28788   0.49184   0.56616

 Mulliken charges and spin densities:
               1          2
     1  H    0.060439  -0.469456
     2  H    0.016992   0.498569
     3  H   -0.022963   0.338437
     4  H   -0.007896  -0.202082
     5  H   -0.046573  -0.165468
     6  H   -0.046572  -0.165468
     7  H   -0.007896  -0.202082
     8  H   -0.022963   0.338437
     9  H    0.016992   0.498569
    10  H    0.060439  -0.469456
 Sum of Mulliken charges =   0.00000  -0.00000

 Dipole moment (field-independent basis, Debye):
    X=             -0.0000    Y=             -0.0000    Z=              0.0000  Tot=              0.0000
 Quadrupole moment (field-independent basis, Debye-Ang):
   XX=            -11.8601   YY=            -13.7351   ZZ=            -12.9742
   XY=              3.2844   XZ=              0.0000   YZ=             -0.0000

 Normal termination of Gaussian 09 at Tue Feb 28 18:18:17 2017.
