 Gaussian 09, Revision E.01,
 Gaussian 09:  ES64L-G09RevE.01 30-Nov-2015

 ----------------------------------------------------------------------
 #uhf/gen scf(tight,novaracc,noincfock,fulldiag) stable(cuhf) guess=rea
 d geom=nocrowd test
 ----------------------------------------------------------------------

 hf stability analysis of h10 triangular lattice, y= 0.6123199016056329
 9
 ----------------------------------------------------------------------
 Symbolic Z-matrix:
 Charge =  0 Multiplicity = 1

                         Standard orientation:
 ---------------------------------------------------------------------
 Center     Atomic      Atomic             Coordinates (Angstroms)
 Number     Number       Type             X           Y           Z
 ---------------------------------------------------------------------
      1          1           0        2.054139   -0.352428   -0.000000
      2          1           0        2.054139   -1.476695   -0.000000
      3          1           0        1.027069    0.104853   -0.000000
      4          1           0        1.027069   -1.019414   -0.000000
      5          1           0        0.000000    0.562134    0.000000
      6          1           0       -0.000000   -0.562134    0.000000
      7          1           0       -1.027069    1.019414   -0.000000
      8          1           0       -1.027069   -0.104853   -0.000000
      9          1           0       -2.054139    1.476695   -0.000000
     10          1           0       -2.054139    0.352428   -0.000000
 ---------------------------------------------------------------------

 SCF Done:  E(UHF) =  -4.87443473015     A.U. after   68 cycles
 E2 =    -0.7340610378D-01 EUMP2 =    -0.49478408339275D+01

 The electronic state is 1-BU.
 Alpha  occ. eigenvalues --   -0.85232  -0.75377  -0.51706  -0.42563  -0.30941
 Alpha virt. eigenvalues --   -0.00863   0.18652   0.30336   0.54925   0.69087
  Beta  occ. eigenvalues --   -0.86258  -0.72418  -0.57175  -0.39846  -0.33458
  Beta virt. eigenvalues --    0.02069   0.25911   0.26216   0.53834   0.67226

 Mulliken charges and spin densities:
               1          2
     1  H    0.052905   0.417407
     2  H    0.020320  -0.418349
     3  H   -0.008789  -0.166152
     4  H   -0.031634   0.277867
     5  H   -0.032802  -0.110773
     6  H   -0.032802  -0.110773
     7  H   -0.031634   0.277867
     8  H   -0.008789  -0.166152
     9  H    0.020320  -0.418349
    10  H    0.052905   0.417407
 Sum of Mulliken charges =   0.00000   0.00000

 Dipole moment (field-independent basis, Debye):
    X=             -0.0000    Y=             -0.0000    Z=             -0.0000  Tot=              0.0000
 Quadrupole moment (field-independent basis, Debye-Ang):
   XX=            -11.8949   YY=            -15.7119   ZZ=            -12.9155
   XY=             -1.0439   XZ=             -0.0000   YZ=             -0.0000

 Normal termination of Gaussian 09 at Tue Feb 28 18:12:36 2017.
