 Gaussian 09, Revision E.01,
 Gaussian 09:  ES64L-G09RevE.01 30-Nov-2015

 ----------------------------------------------------------------------
 #uhf/gen scf(tight,novaracc,noincfock,fulldiag) stable(cuhf) guess=rea
 d geom=nocrowd test
 ----------------------------------------------------------------------

 hf stability analysis of h10 triangular lattice, y= 0.9949868959062069
 3
 ----------------------------------------------------------------------
 Symbolic Z-matrix:
 Charge =  0 Multiplicity = 1

                         Standard orientation:
 ---------------------------------------------------------------------
 Center     Atomic      Atomic             Coordinates (Angstroms)
 Number     Number       Type             X           Y           Z
 ---------------------------------------------------------------------
      1          1           0        2.004994    1.710283    0.000000
      2          1           0        2.004994    0.558459    0.000000
      3          1           0        1.002497    1.143098   -0.000000
      4          1           0        1.002497   -0.008727    0.000000
      5          1           0       -0.000000    0.575912   -0.000000
      6          1           0       -0.000000   -0.575912    0.000000
      7          1           0       -1.002497    0.008727    0.000000
      8          1           0       -1.002497   -1.143098    0.000000
      9          1           0       -2.004994   -0.558459    0.000000
     10          1           0       -2.004994   -1.710283    0.000000
 ---------------------------------------------------------------------

 SCF Done:  E(UHF) =  -4.85614444591     A.U. after   37 cycles
 E2 =    -0.7293723538D-01 EUMP2 =    -0.49290816812888D+01

 The electronic state is 1-BU.
 Alpha  occ. eigenvalues --   -0.84411  -0.75393  -0.51957  -0.40289  -0.29620
 Alpha virt. eigenvalues --   -0.01597   0.19766   0.26849   0.56309   0.60418
  Beta  occ. eigenvalues --   -0.85426  -0.71756  -0.57444  -0.39228  -0.33631
  Beta virt. eigenvalues --    0.03742   0.23327   0.27682   0.55112   0.58320

 Mulliken charges and spin densities:
               1          2
     1  H    0.039955  -0.456555
     2  H    0.037018   0.464155
     3  H   -0.030493   0.313573
     4  H   -0.005759  -0.189208
     5  H   -0.040721  -0.131965
     6  H   -0.040721  -0.131965
     7  H   -0.005759  -0.189208
     8  H   -0.030493   0.313573
     9  H    0.037018   0.464155
    10  H    0.039955  -0.456555
 Sum of Mulliken charges =  -0.00000   0.00000

 Dipole moment (field-independent basis, Debye):
    X=             -0.0000    Y=             -0.0000    Z=              0.0000  Tot=              0.0000
 Quadrupole moment (field-independent basis, Debye-Ang):
   XX=            -11.7610   YY=            -15.0236   ZZ=            -12.9407
   XY=              2.0883   XZ=             -0.0000   YZ=              0.0000

 Normal termination of Gaussian 09 at Tue Feb 28 18:17:41 2017.
