 Gaussian 09, Revision E.01,
 Gaussian 09:  ES64L-G09RevE.01 30-Nov-2015

 ----------------------------------------------------------------------
 #uhf/gen scf(tight,novaracc,noincfock,fulldiag) stable(cuhf) guess=rea
 d geom=nocrowd test
 ----------------------------------------------------------------------

 ----------------------------------------------------------------------
 hf stability analysis of h10 triangular lattice, y= 1.3961024673370386
 ----------------------------------------------------------------------
 Symbolic Z-matrix:
 Charge =  0 Multiplicity = 1

                         Standard orientation:
 ---------------------------------------------------------------------
 Center     Atomic      Atomic             Coordinates (Angstroms)
 Number     Number       Type             X           Y           Z
 ---------------------------------------------------------------------
      1          1           0        1.586058    3.170347    0.000000
      2          1           0        1.586058    1.714283    0.000000
      3          1           0        0.793029    1.949189    0.000000
      4          1           0        0.793029    0.493126    0.000000
      5          1           0       -0.000000    0.728032    0.000000
      6          1           0       -0.000000   -0.728032    0.000000
      7          1           0       -0.793029   -0.493126    0.000000
      8          1           0       -0.793029   -1.949189    0.000000
      9          1           0       -1.586058   -1.714283    0.000000
     10          1           0       -1.586058   -3.170347    0.000000
 ---------------------------------------------------------------------

 SCF Done:  E(UHF) =  -5.04168183014     A.U. after   19 cycles
 E2 =    -0.5606876236D-01 EUMP2 =    -0.50977505925072D+01

 Unable to determine electronic state:  partially filled degenerate orbitals.
 Alpha  occ. eigenvalues --   -0.77064  -0.70358  -0.59381  -0.45550  -0.33676
 Alpha virt. eigenvalues --    0.15765   0.21760   0.27667   0.45060   0.62506
  Beta  occ. eigenvalues --   -0.77064  -0.70358  -0.59381  -0.45550  -0.33676
  Beta virt. eigenvalues --    0.15765   0.21760   0.27667   0.45060   0.62506

 Mulliken charges and spin densities:
               1          2
     1  H   -0.053192   0.941557
     2  H   -0.014490   0.090477
     3  H    0.051328  -0.049109
     4  H    0.013586  -0.050839
     5  H    0.002769   0.063668
     6  H    0.002769  -0.063668
     7  H    0.013586   0.050839
     8  H    0.051328   0.049109
     9  H   -0.014490  -0.090477
    10  H   -0.053192  -0.941557
 Sum of Mulliken charges =  -0.00000  -0.00000

 Dipole moment (field-independent basis, Debye):
    X=              0.0000    Y=              0.0000    Z=             -0.0000  Tot=              0.0000
 Quadrupole moment (field-independent basis, Debye-Ang):
   XX=            -13.7094   YY=            -21.3818   ZZ=            -12.6468
   XY=             -5.5165   XZ=              0.0000   YZ=             -0.0000

 Normal termination of Gaussian 09 at Tue Feb 28 18:20:23 2017.
