 Gaussian 09, Revision E.01,
 Gaussian 09:  ES64L-G09RevE.01 30-Nov-2015

 ----------------------------------------------------------------------
 #uhf/gen scf(tight,novaracc,noincfock,fulldiag) stable(cuhf) guess=rea
 d geom=nocrowd test
 ----------------------------------------------------------------------

 ----------------------------------------------------------------------
 hf stability analysis of h10 triangular lattice, y= 1.0531284965820111
 ----------------------------------------------------------------------
 Symbolic Z-matrix:
 Charge =  0 Multiplicity = 1

                         Standard orientation:
 ---------------------------------------------------------------------
 Center     Atomic      Atomic             Coordinates (Angstroms)
 Number     Number       Type             X           Y           Z
 ---------------------------------------------------------------------
      1          1           0        1.945122    1.955628   -0.000000
      2          1           0        1.945122    0.768350   -0.000000
      3          1           0        0.972561    1.274634   -0.000000
      4          1           0        0.972561    0.087356   -0.000000
      5          1           0       -0.000000    0.593639   -0.000000
      6          1           0       -0.000000   -0.593639    0.000000
      7          1           0       -0.972561   -0.087356   -0.000000
      8          1           0       -0.972561   -1.274634   -0.000000
      9          1           0       -1.945122   -0.768350   -0.000000
     10          1           0       -1.945122   -1.955628   -0.000000
 ---------------------------------------------------------------------

 SCF Done:  E(UHF) =  -4.82249744994     A.U. after   37 cycles
 E2 =    -0.7321141037D-01 EUMP2 =    -0.48957088603123D+01

 The electronic state is 1-BU.
 Alpha  occ. eigenvalues --   -0.83343  -0.75280  -0.52269  -0.37374  -0.27835
 Alpha virt. eigenvalues --   -0.02552   0.20887   0.23063   0.51741   0.57775
  Beta  occ. eigenvalues --   -0.84452  -0.70942  -0.57522  -0.39442  -0.32391
  Beta virt. eigenvalues --    0.05220   0.20603   0.28772   0.49896   0.56491

 Mulliken charges and spin densities:
               1          2
     1  H    0.059281  -0.471070
     2  H    0.018461   0.497246
     3  H   -0.024347   0.337932
     4  H   -0.006950  -0.202641
     5  H   -0.046444  -0.161466
     6  H   -0.046444  -0.161466
     7  H   -0.006950  -0.202641
     8  H   -0.024347   0.337932
     9  H    0.018461   0.497246
    10  H    0.059281  -0.471070
 Sum of Mulliken charges =   0.00000  -0.00000

 Dipole moment (field-independent basis, Debye):
    X=             -0.0000    Y=             -0.0000    Z=             -0.0000  Tot=              0.0000
 Quadrupole moment (field-independent basis, Debye-Ang):
   XX=            -11.8362   YY=            -13.8568   ZZ=            -12.9709
   XY=              3.1938   XZ=             -0.0000   YZ=              0.0000

 Normal termination of Gaussian 09 at Tue Feb 28 18:18:14 2017.
