 Gaussian 09, Revision E.01,
 Gaussian 09:  ES64L-G09RevE.01 30-Nov-2015

 ----------------------------------------------------------------------
 #uhf/gen scf(tight,novaracc,noincfock,fulldiag) stable(cuhf) guess=rea
 d geom=nocrowd test
 ----------------------------------------------------------------------

 hf stability analysis of h10 triangular lattice, y= 0.6006400760937612
 4
 ----------------------------------------------------------------------
 Symbolic Z-matrix:
 Charge =  0 Multiplicity = 1

                         Standard orientation:
 ---------------------------------------------------------------------
 Center     Atomic      Atomic             Coordinates (Angstroms)
 Number     Number       Type             X           Y           Z
 ---------------------------------------------------------------------
      1          1           0        2.037487   -0.427021   -0.000000
      2          1           0        2.037487   -1.560477   -0.000000
      3          1           0        1.018743    0.069854   -0.000000
      4          1           0        1.018743   -1.063602   -0.000000
      5          1           0        0.000000    0.566728    0.000000
      6          1           0       -0.000000   -0.566728    0.000000
      7          1           0       -1.018743    1.063602    0.000000
      8          1           0       -1.018743   -0.069854    0.000000
      9          1           0       -2.037487    1.560477    0.000000
     10          1           0       -2.037487    0.427021    0.000000
 ---------------------------------------------------------------------

 SCF Done:  E(UHF) =  -4.86925313606     A.U. after   73 cycles
 E2 =    -0.7319440902D-01 EUMP2 =    -0.49424475450795D+01

 The electronic state is 1-BU.
 Alpha  occ. eigenvalues --   -0.84962  -0.75397  -0.51791  -0.41805  -0.30512
 Alpha virt. eigenvalues --   -0.01108   0.19039   0.29108   0.55414   0.65974
  Beta  occ. eigenvalues --   -0.85977  -0.72198  -0.57288  -0.39545  -0.33655
  Beta virt. eigenvalues --    0.02670   0.25178   0.26583   0.54281   0.63990

 Mulliken charges and spin densities:
               1          2
     1  H    0.047690   0.435668
     2  H    0.027076  -0.434130
     3  H   -0.007532  -0.175074
     4  H   -0.031438   0.291622
     5  H   -0.035796  -0.118086
     6  H   -0.035796  -0.118086
     7  H   -0.031438   0.291622
     8  H   -0.007532  -0.175074
     9  H    0.027076  -0.434130
    10  H    0.047690   0.435668
 Sum of Mulliken charges =   0.00000  -0.00000

 Dipole moment (field-independent basis, Debye):
    X=             -0.0000    Y=             -0.0000    Z=              0.0000  Tot=              0.0000
 Quadrupole moment (field-independent basis, Debye-Ang):
   XX=            -11.8271   YY=            -15.5174   ZZ=            -12.9242
   XY=             -1.4056   XZ=             -0.0000   YZ=              0.0000

 Normal termination of Gaussian 09 at Tue Feb 28 18:12:22 2017.
