 Gaussian 09, Revision E.01,
 Gaussian 09:  ES64L-G09RevE.01 30-Nov-2015

 ----------------------------------------------------------------------
 #uhf/gen scf(tight,novaracc,noincfock,fulldiag) stable(cuhf) guess=rea
 d geom=nocrowd test
 ----------------------------------------------------------------------

 hf stability analysis of h10 triangular lattice, y= 0.6446958471815459
 3
 ----------------------------------------------------------------------
 Symbolic Z-matrix:
 Charge =  0 Multiplicity = 1

                         Standard orientation:
 ---------------------------------------------------------------------
 Center     Atomic      Atomic             Coordinates (Angstroms)
 Number     Number       Type             X           Y           Z
 ---------------------------------------------------------------------
      1          1           0        2.092873   -0.148536    0.000000
      2          1           0        2.092873   -1.251995    0.000000
      3          1           0        1.046437    0.201597    0.000000
      4          1           0        1.046437   -0.901863    0.000000
      5          1           0        0.000000    0.551730    0.000000
      6          1           0       -0.000000   -0.551730    0.000000
      7          1           0       -1.046437    0.901863    0.000000
      8          1           0       -1.046437   -0.201597    0.000000
      9          1           0       -2.092873    1.251995    0.000000
     10          1           0       -2.092873    0.148536    0.000000
 ---------------------------------------------------------------------

 SCF Done:  E(UHF) =  -4.83281938444     A.U. after   50 cycles
 E2 =    -0.8789030560D-01 EUMP2 =    -0.49207096900338D+01

 Unable to determine electronic state:  partially filled degenerate orbitals.
 Alpha  occ. eigenvalues --   -0.86500  -0.74071  -0.54237  -0.43949  -0.26810
 Alpha virt. eigenvalues --   -0.04221   0.20412   0.31125   0.52058   0.76069
  Beta  occ. eigenvalues --   -0.87519  -0.73811  -0.54247  -0.43791  -0.28095
  Beta virt. eigenvalues --   -0.01786   0.18670   0.29649   0.54871   0.75239

 Mulliken charges and spin densities:
               1          2
     1  H   -0.158038  -0.145193
     2  H    0.216374   0.318491
     3  H    0.127561   0.394669
     4  H   -0.154447  -0.160096
     5  H   -0.002915  -0.325803
     6  H    0.022165   0.045841
     7  H    0.152509  -0.093812
     8  H   -0.242013   0.106554
     9  H   -0.158434   0.062134
    10  H    0.197237  -0.202784
 Sum of Mulliken charges =   0.00000  -0.00000

 Dipole moment (field-independent basis, Debye):
    X=              0.5111    Y=             -0.3794    Z=             -0.0000  Tot=              0.6365
 Quadrupole moment (field-independent basis, Debye-Ang):
   XX=            -12.7994   YY=            -15.6366   ZZ=            -12.8975
   XY=             -1.4785   XZ=              0.0000   YZ=             -0.0000

 Normal termination of Gaussian 09 at Tue Feb 28 18:13:04 2017.
