 Gaussian 09, Revision E.01,
 Gaussian 09:  ES64L-G09RevE.01 30-Nov-2015

 ----------------------------------------------------------------------
 #uhf/gen scf(tight,novaracc,noincfock,fulldiag) stable(cuhf) guess=rea
 d geom=nocrowd test
 ----------------------------------------------------------------------

 hf stability analysis of h10 triangular lattice, y= 0.4615146431802063
 0
 ----------------------------------------------------------------------
 Symbolic Z-matrix:
 Charge =  0 Multiplicity = 1

                         Standard orientation:
 ---------------------------------------------------------------------
 Center     Atomic      Atomic             Coordinates (Angstroms)
 Number     Number       Type             X           Y           Z
 ---------------------------------------------------------------------
      1          1           0        1.731956   -1.361157    0.000000
      2          1           0        1.731956   -2.694563    0.000000
      3          1           0        0.865978   -0.347227    0.000000
      4          1           0        0.865978   -1.680633    0.000000
      5          1           0        0.000000    0.666703    0.000000
      6          1           0       -0.000000   -0.666703   -0.000000
      7          1           0       -0.865978    1.680633    0.000000
      8          1           0       -0.865978    0.347227   -0.000000
      9          1           0       -1.731956    2.694563    0.000000
     10          1           0       -1.731956    1.361157    0.000000
 ---------------------------------------------------------------------

 SCF Done:  E(UHF) =  -4.85996158965     A.U. after   64 cycles
 E2 =    -0.5154077437D-01 EUMP2 =    -0.49115023640226D+01

 Unable to determine electronic state:  partially filled degenerate orbitals.
 Alpha  occ. eigenvalues --   -0.81074  -0.72588  -0.58604  -0.41050  -0.27638
 Alpha virt. eigenvalues --    0.08181   0.21165   0.24864   0.39876   0.58797
  Beta  occ. eigenvalues --   -0.81244  -0.72456  -0.58697  -0.40432  -0.28245
  Beta virt. eigenvalues --    0.08312   0.21287   0.25351   0.39167   0.59124

 Mulliken charges and spin densities:
               1          2
     1  H   -0.073970   0.467860
     2  H   -0.097237   0.777603
     3  H    0.084997  -0.195023
     4  H    0.142594  -0.318738
     5  H   -0.045276  -0.413680
     6  H   -0.054872   0.270120
     7  H    0.134923   0.323834
     8  H    0.066109   0.334396
     9  H   -0.097194  -0.765754
    10  H   -0.060075  -0.480619
 Sum of Mulliken charges =   0.00000   0.00000

 Dipole moment (field-independent basis, Debye):
    X=             -0.0055    Y=              0.0287    Z=              0.0000  Tot=              0.0292
 Quadrupole moment (field-independent basis, Debye-Ang):
   XX=            -16.6832   YY=            -21.0834   ZZ=            -12.6467
   XY=              6.5310   XZ=              0.0000   YZ=             -0.0000

 Normal termination of Gaussian 09 at Tue Feb 28 18:09:57 2017.
