 Gaussian 09, Revision E.01,
 Gaussian 09:  ES64L-G09RevE.01 30-Nov-2015

 ----------------------------------------------------------------------
 #uhf/gen scf(tight,novaracc,noincfock,fulldiag) stable(cuhf) guess=rea
 d geom=nocrowd test
 ----------------------------------------------------------------------

 ----------------------------------------------------------------------
 hf stability analysis of h10 triangular lattice, y= 1.0702532558662603
 ----------------------------------------------------------------------
 Symbolic Z-matrix:
 Charge =  0 Multiplicity = 1

                         Standard orientation:
 ---------------------------------------------------------------------
 Center     Atomic      Atomic             Coordinates (Angstroms)
 Number     Number       Type             X           Y           Z
 ---------------------------------------------------------------------
      1          1           0        1.926877    2.025074    0.000000
      2          1           0        1.926877    0.826554    0.000000
      3          1           0        0.963439    1.312167    0.000000
      4          1           0        0.963439    0.113647    0.000000
      5          1           0       -0.000000    0.599260    0.000000
      6          1           0       -0.000000   -0.599260    0.000000
      7          1           0       -0.963439   -0.113647   -0.000000
      8          1           0       -0.963439   -1.312167   -0.000000
      9          1           0       -1.926877   -0.826554   -0.000000
     10          1           0       -1.926877   -2.025074   -0.000000
 ---------------------------------------------------------------------

 SCF Done:  E(UHF) =  -4.81000206913     A.U. after   45 cycles
 E2 =    -0.7388037794D-01 EUMP2 =    -0.48838824470656D+01

 The electronic state is 1-BU.
 Alpha  occ. eigenvalues --   -0.83006  -0.75219  -0.52368  -0.36440  -0.27256
 Alpha virt. eigenvalues --   -0.02889   0.21092   0.21958   0.49481   0.58145
  Beta  occ. eigenvalues --   -0.84204  -0.70731  -0.57467  -0.39485  -0.31884
  Beta virt. eigenvalues --    0.05483   0.19918   0.28751   0.47768   0.56860

 Mulliken charges and spin densities:
               1          2
     1  H    0.061589  -0.461807
     2  H    0.014683   0.498506
     3  H   -0.018880   0.336628
     4  H   -0.011241  -0.197810
     5  H   -0.046151  -0.175517
     6  H   -0.046151  -0.175517
     7  H   -0.011241  -0.197810
     8  H   -0.018880   0.336628
     9  H    0.014683   0.498506
    10  H    0.061589  -0.461807
 Sum of Mulliken charges =   0.00000  -0.00000

 Dipole moment (field-independent basis, Debye):
    X=              0.0000    Y=              0.0000    Z=              0.0000  Tot=              0.0000
 Quadrupole moment (field-independent basis, Debye-Ang):
   XX=            -11.9269   YY=            -13.5008   ZZ=            -12.9818
   XY=              3.4426   XZ=              0.0000   YZ=              0.0000

 Normal termination of Gaussian 09 at Tue Feb 28 18:18:23 2017.
