 Gaussian 09, Revision E.01,
 Gaussian 09:  ES64L-G09RevE.01 30-Nov-2015

 ----------------------------------------------------------------------
 #uhf/gen scf(tight,novaracc,noincfock,fulldiag) stable(cuhf) guess=rea
 d geom=nocrowd test
 ----------------------------------------------------------------------

 ----------------------------------------------------------------------
 hf stability analysis of h10 triangular lattice, y= 1.1879529318790409
 ----------------------------------------------------------------------
 Symbolic Z-matrix:
 Charge =  0 Multiplicity = 1

                         Standard orientation:
 ---------------------------------------------------------------------
 Center     Atomic      Atomic             Coordinates (Angstroms)
 Number     Number       Type             X           Y           Z
 ---------------------------------------------------------------------
      1          1           0        1.799267    2.472709   -0.000000
      2          1           0        1.799267    1.189186   -0.000000
      3          1           0        0.899633    1.557235   -0.000000
      4          1           0        0.899633    0.273712   -0.000000
      5          1           0        0.000000    0.641762    0.000000
      6          1           0       -0.000000   -0.641762    0.000000
      7          1           0       -0.899633   -0.273712   -0.000000
      8          1           0       -0.899633   -1.557235   -0.000000
      9          1           0       -1.799267   -1.189186   -0.000000
     10          1           0       -1.799267   -2.472709   -0.000000
 ---------------------------------------------------------------------

 SCF Done:  E(UHF) =  -4.80604812594     A.U. after   35 cycles
 E2 =    -0.5108513294D-01 EUMP2 =    -0.48571332588746D+01

 Unable to determine electronic state:  partially filled degenerate orbitals.
 Alpha  occ. eigenvalues --   -0.81983  -0.73583  -0.58360  -0.42045  -0.23590
 Alpha virt. eigenvalues --    0.05672   0.17533   0.23759   0.42784   0.56724
  Beta  occ. eigenvalues --   -0.83719  -0.73091  -0.57864  -0.37352  -0.30838
  Beta virt. eigenvalues --    0.08328   0.18766   0.30081   0.34822   0.59315

 Mulliken charges and spin densities:
               1          2
     1  H   -0.089537   0.834521
     2  H   -0.088775   0.271327
     3  H    0.152839  -0.196858
     4  H    0.097840   0.460715
     5  H   -0.035937  -0.463193
     6  H   -0.021797  -0.584437
     7  H   -0.058777   0.492982
     8  H    0.122452   0.240504
     9  H    0.033835  -0.427901
    10  H   -0.112143  -0.627659
 Sum of Mulliken charges =  -0.00000   0.00000

 Dipole moment (field-independent basis, Debye):
    X=             -0.0562    Y=             -0.0422    Z=              0.0000  Tot=              0.0703
 Quadrupole moment (field-independent basis, Debye-Ang):
   XX=            -16.7789   YY=            -19.3752   ZZ=            -12.7033
   XY=             -4.9669   XZ=              0.0000   YZ=              0.0000

 Normal termination of Gaussian 09 at Tue Feb 28 18:19:15 2017.
