 Gaussian 09, Revision E.01,
 Gaussian 09:  ES64L-G09RevE.01 30-Nov-2015

 ----------------------------------------------------------------------
 #uhf/gen scf(tight,novaracc,noincfock,fulldiag) stable(cuhf) guess=rea
 d geom=nocrowd test
 ----------------------------------------------------------------------

 hf stability analysis of h10 triangular lattice, y= 0.4829747999860826
 7
 ----------------------------------------------------------------------
 Symbolic Z-matrix:
 Charge =  0 Multiplicity = 1

                         Standard orientation:
 ---------------------------------------------------------------------
 Center     Atomic      Atomic             Coordinates (Angstroms)
 Number     Number       Type             X           Y           Z
 ---------------------------------------------------------------------
      1          1           0        1.791226   -1.210226   -0.000000
      2          1           0        1.791226   -2.499511   -0.000000
      3          1           0        0.895613   -0.282792   -0.000000
      4          1           0        0.895613   -1.572077   -0.000000
      5          1           0        0.000000    0.644643    0.000000
      6          1           0       -0.000000   -0.644643    0.000000
      7          1           0       -0.895613    1.572077   -0.000000
      8          1           0       -0.895613    0.282792   -0.000000
      9          1           0       -1.791226    2.499511   -0.000000
     10          1           0       -1.791226    1.210226   -0.000000
 ---------------------------------------------------------------------

 SCF Done:  E(UHF) =  -4.81158610386     A.U. after   28 cycles
 E2 =    -0.5012441378D-01 EUMP2 =    -0.48617105176464D+01

 Unable to determine electronic state:  partially filled degenerate orbitals.
 Alpha  occ. eigenvalues --   -0.81846  -0.73530  -0.58396  -0.42177  -0.23990
 Alpha virt. eigenvalues --    0.06049   0.17960   0.23673   0.42660   0.56873
  Beta  occ. eigenvalues --   -0.83500  -0.72983  -0.57966  -0.37547  -0.30737
  Beta virt. eigenvalues --    0.08470   0.18973   0.29736   0.35011   0.59419

 Mulliken charges and spin densities:
               1          2
     1  H   -0.092710   0.290445
     2  H   -0.089378   0.834420
     3  H    0.102017   0.448761
     4  H    0.153574  -0.208974
     5  H   -0.022989  -0.592824
     6  H   -0.042848  -0.441426
     7  H    0.122449   0.250513
     8  H   -0.045622   0.498968
     9  H   -0.109369  -0.643892
    10  H    0.024875  -0.435991
 Sum of Mulliken charges =   0.00000   0.00000

 Dipole moment (field-independent basis, Debye):
    X=             -0.0707    Y=              0.0694    Z=              0.0000  Tot=              0.0991
 Quadrupole moment (field-independent basis, Debye-Ang):
   XX=            -16.7891   YY=            -19.5109   ZZ=            -12.6955
   XY=              5.1190   XZ=              0.0000   YZ=              0.0000

 Normal termination of Gaussian 09 at Tue Feb 28 18:10:21 2017.
