 Gaussian 09, Revision E.01,
 Gaussian 09:  ES64L-G09RevE.01 30-Nov-2015

 ----------------------------------------------------------------------
 #uhf/gen scf(tight,novaracc,noincfock,fulldiag) stable(cuhf) guess=rea
 d geom=nocrowd test
 ----------------------------------------------------------------------

 ----------------------------------------------------------------------
 hf stability analysis of h10 triangular lattice, y= 1.0475506882612993
 ----------------------------------------------------------------------
 Symbolic Z-matrix:
 Charge =  0 Multiplicity = 1

                         Standard orientation:
 ---------------------------------------------------------------------
 Center     Atomic      Atomic             Coordinates (Angstroms)
 Number     Number       Type             X           Y           Z
 ---------------------------------------------------------------------
      1          1           0        1.951019    1.932743    0.000000
      2          1           0        1.951019    0.749054    0.000000
      3          1           0        0.975510    1.262294    0.000000
      4          1           0        0.975510    0.078604    0.000000
      5          1           0        0.000000    0.591845    0.000000
      6          1           0       -0.000000   -0.591845   -0.000000
      7          1           0       -0.975510   -0.078604   -0.000000
      8          1           0       -0.975510   -1.262294   -0.000000
      9          1           0       -1.951019   -0.749054   -0.000000
     10          1           0       -1.951019   -1.932743   -0.000000
 ---------------------------------------------------------------------

 SCF Done:  E(UHF) =  -4.82632367743     A.U. after   34 cycles
 E2 =    -0.7310123639D-01 EUMP2 =    -0.48994249138217D+01

 The electronic state is 1-BU.
 Alpha  occ. eigenvalues --   -0.83451  -0.75296  -0.52238  -0.37670  -0.28017
 Alpha virt. eigenvalues --   -0.02451   0.20799   0.23420   0.52511   0.57644
  Beta  occ. eigenvalues --   -0.84541  -0.71019  -0.57528  -0.39406  -0.32554
  Beta virt. eigenvalues --    0.05113   0.20833   0.28736   0.50617   0.56365

 Mulliken charges and spin densities:
               1          2
     1  H    0.057902  -0.471792
     2  H    0.020039   0.495390
     3  H   -0.025469   0.336875
     4  H   -0.006287  -0.202594
     5  H   -0.046185  -0.157878
     6  H   -0.046185  -0.157878
     7  H   -0.006287  -0.202594
     8  H   -0.025469   0.336875
     9  H    0.020039   0.495390
    10  H    0.057902  -0.471792
 Sum of Mulliken charges =  -0.00000  -0.00000

 Dipole moment (field-independent basis, Debye):
    X=              0.0000    Y=              0.0000    Z=             -0.0000  Tot=              0.0000
 Quadrupole moment (field-independent basis, Debye-Ang):
   XX=            -11.8166   YY=            -13.9782   ZZ=            -12.9677
   XY=              3.0991   XZ=              0.0000   YZ=              0.0000

 Normal termination of Gaussian 09 at Tue Feb 28 18:18:12 2017.
