 Gaussian 09, Revision E.01,
 Gaussian 09:  ES64L-G09RevE.01 30-Nov-2015

 ----------------------------------------------------------------------
 #uhf/gen scf(tight,novaracc,noincfock,fulldiag) stable(cuhf) guess=rea
 d geom=nocrowd test
 ----------------------------------------------------------------------

 hf stability analysis of h10 triangular lattice, y= 0.5010379721798762
 2
 ----------------------------------------------------------------------
 Symbolic Z-matrix:
 Charge =  0 Multiplicity = 1

                         Standard orientation:
 ---------------------------------------------------------------------
 Center     Atomic      Atomic             Coordinates (Angstroms)
 Number     Number       Type             X           Y           Z
 ---------------------------------------------------------------------
      1          1           0        1.837928   -1.085633    0.000000
      2          1           0        1.837928   -2.342157    0.000000
      3          1           0        0.918964   -0.228685    0.000000
      4          1           0        0.918964   -1.485210    0.000000
      5          1           0        0.000000    0.628262    0.000000
      6          1           0       -0.000000   -0.628262    0.000000
      7          1           0       -0.918964    1.485210   -0.000000
      8          1           0       -0.918964    0.228685   -0.000000
      9          1           0       -1.837928    2.342157   -0.000000
     10          1           0       -1.837928    1.085633   -0.000000
 ---------------------------------------------------------------------

 SCF Done:  E(UHF) =  -4.78398430682     A.U. after   32 cycles
 E2 =    -0.6055947751D-01 EUMP2 =    -0.48445437843311D+01

 Unable to determine electronic state:  partially filled degenerate orbitals.
 Alpha  occ. eigenvalues --   -0.82514  -0.73830  -0.57954  -0.41009  -0.21715
 Alpha virt. eigenvalues --    0.03460   0.15798   0.23875   0.43567   0.56045
  Beta  occ. eigenvalues --   -0.84700  -0.73659  -0.57372  -0.36332  -0.30659
  Beta virt. eigenvalues --    0.06709   0.17961   0.30365   0.35260   0.58725

 Mulliken charges and spin densities:
               1          2
     1  H   -0.077973   0.243948
     2  H   -0.086666   0.799182
     3  H    0.087354   0.420687
     4  H    0.162431  -0.200974
     5  H   -0.026555  -0.503640
     6  H   -0.012376  -0.497706
     7  H    0.125242   0.183273
     8  H   -0.127452   0.436019
     9  H   -0.126590  -0.533448
    10  H    0.082584  -0.347341
 Sum of Mulliken charges =  -0.00000   0.00000

 Dipole moment (field-independent basis, Debye):
    X=              0.0474    Y=             -0.1560    Z=              0.0000  Tot=              0.1630
 Quadrupole moment (field-independent basis, Debye-Ang):
   XX=            -16.6292   YY=            -18.5571   ZZ=            -12.7654
   XY=              4.0263   XZ=             -0.0000   YZ=              0.0000

 Normal termination of Gaussian 09 at Tue Feb 28 18:10:41 2017.
