 Gaussian 09, Revision E.01,
 Gaussian 09:  ES64L-G09RevE.01 30-Nov-2015

 ----------------------------------------------------------------------
 #uhf/gen scf(tight,novaracc,noincfock,fulldiag) stable(cuhf) guess=rea
 d geom=nocrowd test
 ----------------------------------------------------------------------

 hf stability analysis of h10 triangular lattice, y= 0.9659128830031019
 6
 ----------------------------------------------------------------------
 Symbolic Z-matrix:
 Charge =  0 Multiplicity = 1

                         Standard orientation:
 ---------------------------------------------------------------------
 Center     Atomic      Atomic             Coordinates (Angstroms)
 Number     Number       Type             X           Y           Z
 ---------------------------------------------------------------------
      1          1           0        2.033107    1.581619   -0.000000
      2          1           0        2.033107    0.445721   -0.000000
      3          1           0        1.016554    1.074784   -0.000000
      4          1           0        1.016554   -0.061114   -0.000000
      5          1           0        0.000000    0.567949    0.000000
      6          1           0       -0.000000   -0.567949    0.000000
      7          1           0       -1.016554    0.061114   -0.000000
      8          1           0       -1.016554   -1.074784   -0.000000
      9          1           0       -2.033107   -0.445721   -0.000000
     10          1           0       -2.033107   -1.581619   -0.000000
 ---------------------------------------------------------------------

 SCF Done:  E(UHF) =  -4.86771268163     A.U. after   61 cycles
 E2 =    -0.7314821892D-01 EUMP2 =    -0.49408609005464D+01

 The electronic state is 1-BU.
 Alpha  occ. eigenvalues --   -0.84889  -0.75400  -0.51813  -0.41603  -0.30396
 Alpha virt. eigenvalues --   -0.01173   0.19140   0.28793   0.55538   0.65187
  Beta  occ. eigenvalues --   -0.85903  -0.72139  -0.57313  -0.39480  -0.33684
  Beta virt. eigenvalues --    0.02823   0.24914   0.26747   0.54396   0.63178

 Mulliken charges and spin densities:
               1          2
     1  H    0.028849  -0.437747
     2  H    0.046276   0.440000
     3  H   -0.031359   0.294929
     4  H   -0.007240  -0.177212
     5  H   -0.036526  -0.119970
     6  H   -0.036526  -0.119970
     7  H   -0.007240  -0.177212
     8  H   -0.031359   0.294929
     9  H    0.046276   0.440000
    10  H    0.028849  -0.437747
 Sum of Mulliken charges =   0.00000   0.00000

 Dipole moment (field-independent basis, Debye):
    X=             -0.0000    Y=             -0.0000    Z=             -0.0000  Tot=              0.0000
 Quadrupole moment (field-independent basis, Debye-Ang):
   XX=            -11.8133   YY=            -15.4590   ZZ=            -12.9264
   XY=              1.4997   XZ=             -0.0000   YZ=             -0.0000

 Normal termination of Gaussian 09 at Tue Feb 28 18:17:22 2017.
