 Gaussian 09, Revision E.01,
 Gaussian 09:  ES64L-G09RevE.01 30-Nov-2015

 ----------------------------------------------------------------------
 #uhf/gen scf(tight,novaracc,noincfock,fulldiag) stable(cuhf) guess=rea
 d geom=nocrowd test
 ----------------------------------------------------------------------

 hf stability analysis of h10 triangular lattice, y= 0.8914339662136427
 9
 ----------------------------------------------------------------------
 Symbolic Z-matrix:
 Charge =  0 Multiplicity = 1

                         Standard orientation:
 ---------------------------------------------------------------------
 Center     Atomic      Atomic             Coordinates (Angstroms)
 Number     Number       Type             X           Y           Z
 ---------------------------------------------------------------------
      1          1           0        2.095887    1.231931    0.000000
      2          1           0        2.095887    0.130058    0.000000
      3          1           0        1.047943    0.891434    0.000000
      4          1           0        1.047943   -0.210439    0.000000
      5          1           0        0.000000    0.550936    0.000000
      6          1           0       -0.000000   -0.550936    0.000000
      7          1           0       -1.047943    0.210439    0.000000
      8          1           0       -1.047943   -0.891434    0.000000
      9          1           0       -2.095887   -0.130058    0.000000
     10          1           0       -2.095887   -1.231931    0.000000
 ---------------------------------------------------------------------

 SCF Done:  E(UHF) =  -4.83895673131     A.U. after   91 cycles
 E2 =    -0.1079222319D+00 EUMP2 =    -0.49468789631591D+01

 The electronic state is 1-AG.
 Alpha  occ. eigenvalues --   -0.86758  -0.73896  -0.52891  -0.44319  -0.28689
 Alpha virt. eigenvalues --   -0.03638   0.18310   0.30755   0.54076   0.76111
  Beta  occ. eigenvalues --   -0.86504  -0.73817  -0.53241  -0.44162  -0.28579
  Beta virt. eigenvalues --   -0.03956   0.18537   0.31184   0.53535   0.76388

 Mulliken charges and spin densities:
               1          2
     1  H    0.128221  -0.042870
     2  H   -0.056972   0.020746
     3  H   -0.022993   0.041502
     4  H   -0.044100  -0.033642
     5  H   -0.004156   0.014264
     6  H   -0.004156   0.014264
     7  H   -0.044100  -0.033642
     8  H   -0.022993   0.041502
     9  H   -0.056972   0.020746
    10  H    0.128221  -0.042870
 Sum of Mulliken charges =   0.00000  -0.00000

 Dipole moment (field-independent basis, Debye):
    X=             -0.0000    Y=             -0.0000    Z=              0.0000  Tot=              0.0000
 Quadrupole moment (field-independent basis, Debye-Ang):
   XX=            -10.9144   YY=            -15.3364   ZZ=            -12.9684
   XY=              4.4012   XZ=              0.0000   YZ=              0.0000

 Normal termination of Gaussian 09 at Tue Feb 28 18:16:33 2017.
