 Gaussian 09, Revision E.01,
 Gaussian 09:  ES64L-G09RevE.01 30-Nov-2015

 ----------------------------------------------------------------------
 #uhf/gen scf(tight,novaracc,noincfock,fulldiag) stable(cuhf) guess=rea
 d geom=nocrowd test
 ----------------------------------------------------------------------

 ----------------------------------------------------------------------
 hf stability analysis of h10 triangular lattice, y= 1.2263967642726714
 ----------------------------------------------------------------------
 Symbolic Z-matrix:
 Charge =  0 Multiplicity = 1

                         Standard orientation:
 ---------------------------------------------------------------------
 Center     Atomic      Atomic             Coordinates (Angstroms)
 Number     Number       Type             X           Y           Z
 ---------------------------------------------------------------------
      1          1           0        1.758005    2.609287    0.000000
      2          1           0        1.758005    1.295638    0.000000
      3          1           0        0.879003    1.633056    0.000000
      4          1           0        0.879003    0.319407    0.000000
      5          1           0       -0.000000    0.656824    0.000000
      6          1           0       -0.000000   -0.656824   -0.000000
      7          1           0       -0.879003   -0.319407    0.000000
      8          1           0       -0.879003   -1.633056    0.000000
      9          1           0       -1.758005   -1.295638    0.000000
     10          1           0       -1.758005   -2.609287    0.000000
 ---------------------------------------------------------------------

 SCF Done:  E(UHF) =  -4.83668852005     A.U. after   35 cycles
 E2 =    -0.5143033380D-01 EUMP2 =    -0.48881188538516D+01

 Unable to determine electronic state:  partially filled degenerate orbitals.
 Alpha  occ. eigenvalues --   -0.81348  -0.73165  -0.58306  -0.41669  -0.25863
 Alpha virt. eigenvalues --    0.07149   0.19954   0.23595   0.41110   0.57632
  Beta  occ. eigenvalues --   -0.82402  -0.72629  -0.58413  -0.38350  -0.29333
  Beta virt. eigenvalues --    0.07984   0.20022   0.26919   0.36948   0.59422

 Mulliken charges and spin densities:
               1          2
     1  H   -0.088133   0.773783
     2  H   -0.111000   0.456623
     3  H    0.163882  -0.310190
     4  H    0.126687   0.169552
     5  H   -0.084853  -0.105404
     6  H   -0.038588  -0.567359
     7  H    0.023884   0.455659
     8  H    0.131463   0.284734
     9  H   -0.023541  -0.469210
    10  H   -0.099801  -0.688189
 Sum of Mulliken charges =   0.00000   0.00000

 Dipole moment (field-independent basis, Debye):
    X=             -0.0691    Y=             -0.1320    Z=             -0.0000  Tot=              0.1490
 Quadrupole moment (field-independent basis, Debye-Ang):
   XX=            -16.8934   YY=            -20.0638   ZZ=            -12.6899
   XY=             -5.7666   XZ=              0.0000   YZ=              0.0000

 Normal termination of Gaussian 09 at Tue Feb 28 18:19:30 2017.
