 Gaussian 09, Revision E.01,
 Gaussian 09:  ES64L-G09RevE.01 30-Nov-2015

 ----------------------------------------------------------------------
 #uhf/gen scf(tight,novaracc,noincfock,fulldiag) stable(cuhf) guess=rea
 d geom=nocrowd test
 ----------------------------------------------------------------------

 ----------------------------------------------------------------------
 hf stability analysis of h10 triangular lattice, y= 1.1806129676413906
 ----------------------------------------------------------------------
 Symbolic Z-matrix:
 Charge =  0 Multiplicity = 1

                         Standard orientation:
 ---------------------------------------------------------------------
 Center     Atomic      Atomic             Coordinates (Angstroms)
 Number     Number       Type             X           Y           Z
 ---------------------------------------------------------------------
      1          1           0        1.807204    2.446147   -0.000000
      2          1           0        1.807204    1.168261   -0.000000
      3          1           0        0.903602    1.542545   -0.000000
      4          1           0        0.903602    0.264659   -0.000000
      5          1           0        0.000000    0.638943   -0.000000
      6          1           0       -0.000000   -0.638943   -0.000000
      7          1           0       -0.903602   -0.264659    0.000000
      8          1           0       -0.903602   -1.542545   -0.000000
      9          1           0       -1.807204   -1.168261   -0.000000
     10          1           0       -1.807204   -2.446147   -0.000000
 ---------------------------------------------------------------------

 SCF Done:  E(UHF) =  -4.80085912920     A.U. after   39 cycles
 E2 =    -0.5229863385D-01 EUMP2 =    -0.48531577630470D+01

 Unable to determine electronic state:  partially filled degenerate orbitals.
 Alpha  occ. eigenvalues --   -0.82115  -0.73632  -0.58311  -0.41885  -0.23202
 Alpha virt. eigenvalues --    0.05274   0.17137   0.23834   0.42907   0.56575
  Beta  occ. eigenvalues --   -0.83931  -0.73205  -0.57766  -0.37152  -0.30898
  Beta virt. eigenvalues --    0.08124   0.18582   0.30322   0.34730   0.59205

 Mulliken charges and spin densities:
               1          2
     1  H   -0.089487   0.832092
     2  H   -0.085766   0.258558
     3  H    0.153126  -0.190093
     4  H    0.094663   0.465402
     5  H   -0.030021  -0.478238
     6  H   -0.021186  -0.573764
     7  H   -0.071795   0.485029
     8  H    0.122691   0.229875
     9  H    0.042816  -0.418253
    10  H   -0.115041  -0.610607
 Sum of Mulliken charges =   0.00000  -0.00000

 Dipole moment (field-independent basis, Debye):
    X=             -0.0398    Y=             -0.0113    Z=              0.0000  Tot=              0.0413
 Quadrupole moment (field-independent basis, Debye-Ang):
   XX=            -16.7697   YY=            -19.2350   ZZ=            -12.7123
   XY=             -4.8114   XZ=              0.0000   YZ=             -0.0000

 Normal termination of Gaussian 09 at Tue Feb 28 18:19:12 2017.
