 Gaussian 09, Revision E.01,
 Gaussian 09:  ES64L-G09RevE.01 30-Nov-2015

 ----------------------------------------------------------------------
 #uhf/gen scf(tight,novaracc,noincfock,fulldiag) stable(cuhf) guess=rea
 d geom=nocrowd test
 ----------------------------------------------------------------------

 ----------------------------------------------------------------------
 hf stability analysis of h10 triangular lattice, y= 1.0258511839050852
 ----------------------------------------------------------------------
 Symbolic Z-matrix:
 Charge =  0 Multiplicity = 1

                         Standard orientation:
 ---------------------------------------------------------------------
 Center     Atomic      Atomic             Coordinates (Angstroms)
 Number     Number       Type             X           Y           Z
 ---------------------------------------------------------------------
      1          1           0        1.973692    1.842426    0.000000
      2          1           0        1.973692    0.672334    0.000000
      3          1           0        0.986846    1.213736    0.000000
      4          1           0        0.986846    0.043644    0.000000
      5          1           0        0.000000    0.585046    0.000000
      6          1           0       -0.000000   -0.585046   -0.000000
      7          1           0       -0.986846   -0.043644    0.000000
      8          1           0       -0.986846   -1.213736   -0.000000
      9          1           0       -1.973692   -0.672334    0.000000
     10          1           0       -1.973692   -1.842426   -0.000000
 ---------------------------------------------------------------------

 SCF Done:  E(UHF) =  -4.84001716417     A.U. after   33 cycles
 E2 =    -0.7290117552D-01 EUMP2 =    -0.49129183396883D+01

 The electronic state is 1-BU.
 Alpha  occ. eigenvalues --   -0.83860  -0.75348  -0.52119  -0.38787  -0.28706
 Alpha virt. eigenvalues --   -0.02082   0.20405   0.24820   0.55643   0.57108
  Beta  occ. eigenvalues --   -0.84902  -0.71324  -0.57521  -0.39264  -0.33124
  Beta virt. eigenvalues --    0.04614   0.21790   0.28435   0.53602   0.55860

 Mulliken charges and spin densities:
               1          2
     1  H    0.051211  -0.469229
     2  H    0.026823   0.484832
     3  H   -0.028402   0.329438
     4  H   -0.005227  -0.199025
     5  H   -0.044404  -0.146015
     6  H   -0.044404  -0.146015
     7  H   -0.005227  -0.199025
     8  H   -0.028402   0.329438
     9  H    0.026823   0.484832
    10  H    0.051211  -0.469229
 Sum of Mulliken charges =   0.00000   0.00000

 Dipole moment (field-independent basis, Debye):
    X=             -0.0000    Y=              0.0000    Z=              0.0000  Tot=              0.0000
 Quadrupole moment (field-independent basis, Debye-Ang):
   XX=            -11.7684   YY=            -14.4402   ZZ=            -12.9562
   XY=              2.6998   XZ=              0.0000   YZ=             -0.0000

 Normal termination of Gaussian 09 at Tue Feb 28 18:18:00 2017.
