 Gaussian 09, Revision E.01,
 Gaussian 09:  ES64L-G09RevE.01 30-Nov-2015

 ----------------------------------------------------------------------
 #uhf/gen scf(tight,novaracc,noincfock,fulldiag) stable(cuhf) guess=rea
 d geom=nocrowd test
 ----------------------------------------------------------------------

 ----------------------------------------------------------------------
 hf stability analysis of h10 triangular lattice, y= 1.0879998015825072
 ----------------------------------------------------------------------
 Symbolic Z-matrix:
 Charge =  0 Multiplicity = 1

                         Standard orientation:
 ---------------------------------------------------------------------
 Center     Atomic      Atomic             Coordinates (Angstroms)
 Number     Number       Type             X           Y           Z
 ---------------------------------------------------------------------
      1          1           0        1.907791    2.095785    0.000000
      2          1           0        1.907791    0.885274    0.000000
      3          1           0        0.953895    1.350520    0.000000
      4          1           0        0.953895    0.140009    0.000000
      5          1           0        0.000000    0.605255    0.000000
      6          1           0       -0.000000   -0.605255    0.000000
      7          1           0       -0.953895   -0.140009    0.000000
      8          1           0       -0.953895   -1.350520    0.000000
      9          1           0       -1.907791   -0.885274    0.000000
     10          1           0       -1.907791   -2.095785    0.000000
 ---------------------------------------------------------------------

 SCF Done:  E(UHF) =  -4.79900447025     A.U. after   43 cycles
 E2 =    -0.8299714167D-01 EUMP2 =    -0.48820016119172D+01

 The electronic state is 1-BU.
 Alpha  occ. eigenvalues --   -0.81882  -0.74828  -0.55900  -0.36976  -0.23472
 Alpha virt. eigenvalues --   -0.02711   0.18722   0.20343   0.46858   0.56838
  Beta  occ. eigenvalues --   -0.87828  -0.74186  -0.55832  -0.35429  -0.31355
  Beta virt. eigenvalues --    0.05630   0.17671   0.27937   0.39512   0.54601

 Mulliken charges and spin densities:
               1          2
     1  H   -0.127768   0.281242
     2  H    0.055014   0.216850
     3  H    0.175705  -0.124869
     4  H   -0.099383  -0.069539
     5  H   -0.003568  -0.303684
     6  H   -0.003568  -0.303684
     7  H   -0.099383  -0.069539
     8  H    0.175705  -0.124869
     9  H    0.055014   0.216850
    10  H   -0.127768   0.281242
 Sum of Mulliken charges =   0.00000   0.00000

 Dipole moment (field-independent basis, Debye):
    X=             -0.0000    Y=              0.0000    Z=             -0.0000  Tot=              0.0000
 Quadrupole moment (field-independent basis, Debye-Ang):
   XX=            -16.5549   YY=            -17.3689   ZZ=            -12.9363
   XY=             -2.6076   XZ=             -0.0000   YZ=             -0.0000

 Normal termination of Gaussian 09 at Tue Feb 28 18:18:33 2017.
