 Gaussian 09, Revision E.01,
 Gaussian 09:  ES64L-G09RevE.01 30-Nov-2015

 ----------------------------------------------------------------------
 #uhf/gen scf(tight,novaracc,noincfock,fulldiag) stable(cuhf) guess=rea
 d geom=nocrowd test
 ----------------------------------------------------------------------

 ----------------------------------------------------------------------
 hf stability analysis of h10 triangular lattice, y= 1.0420355127918348
 ----------------------------------------------------------------------
 Symbolic Z-matrix:
 Charge =  0 Multiplicity = 1

                         Standard orientation:
 ---------------------------------------------------------------------
 Center     Atomic      Atomic             Coordinates (Angstroms)
 Number     Number       Type             X           Y           Z
 ---------------------------------------------------------------------
      1          1           0        1.956824    1.909984    0.000000
      2          1           0        1.956824    0.729805    0.000000
      3          1           0        0.978412    1.250036    0.000000
      4          1           0        0.978412    0.069858   -0.000000
      5          1           0       -0.000000    0.590089    0.000000
      6          1           0       -0.000000   -0.590089    0.000000
      7          1           0       -0.978412   -0.069858   -0.000000
      8          1           0       -0.978412   -1.250036    0.000000
      9          1           0       -1.956824   -0.729805    0.000000
     10          1           0       -1.956824   -1.909984    0.000000
 ---------------------------------------------------------------------

 SCF Done:  E(UHF) =  -4.82998512540     A.U. after   33 cycles
 E2 =    -0.7302152115D-01 EUMP2 =    -0.49030066465468D+01

 The electronic state is 1-BU.
 Alpha  occ. eigenvalues --   -0.83556  -0.75311  -0.52207  -0.37959  -0.28196
 Alpha virt. eigenvalues --   -0.02354   0.20706   0.23774   0.53287   0.57511
  Beta  occ. eigenvalues --   -0.84631  -0.71095  -0.57531  -0.39367  -0.32710
  Beta virt. eigenvalues --    0.04997   0.21066   0.28682   0.51349   0.56239

 Mulliken charges and spin densities:
               1          2
     1  H    0.056369  -0.471844
     2  H    0.021687   0.493142
     3  H   -0.026398   0.335415
     4  H   -0.005828  -0.202113
     5  H   -0.045831  -0.154600
     6  H   -0.045831  -0.154600
     7  H   -0.005828  -0.202113
     8  H   -0.026398   0.335415
     9  H    0.021687   0.493142
    10  H    0.056369  -0.471844
 Sum of Mulliken charges =  -0.00000   0.00000

 Dipole moment (field-independent basis, Debye):
    X=             -0.0000    Y=              0.0000    Z=              0.0000  Tot=              0.0000
 Quadrupole moment (field-independent basis, Debye-Ang):
   XX=            -11.8004   YY=            -14.0979   ZZ=            -12.9647
   XY=              3.0016   XZ=             -0.0000   YZ=              0.0000

 Normal termination of Gaussian 09 at Tue Feb 28 18:18:09 2017.
