 Gaussian 09, Revision E.01,
 Gaussian 09:  ES64L-G09RevE.01 30-Nov-2015

 ----------------------------------------------------------------------
 #uhf/gen scf(tight,novaracc,noincfock,fulldiag) stable(cuhf) guess=rea
 d geom=nocrowd test
 ----------------------------------------------------------------------

 hf stability analysis of h10 triangular lattice, y= 0.7972534768479298
 0
 ----------------------------------------------------------------------
 Symbolic Z-matrix:
 Charge =  0 Multiplicity = 1

                         Standard orientation:
 ---------------------------------------------------------------------
 Center     Atomic      Atomic             Coordinates (Angstroms)
 Number     Number       Type             X           Y           Z
 ---------------------------------------------------------------------
      1          1           0        2.144187    0.744988    0.000000
      2          1           0        2.144187   -0.332064    0.000000
      3          1           0        1.072094    0.641757    0.000000
      4          1           0        1.072094   -0.435295    0.000000
      5          1           0        0.000000    0.538526    0.000000
      6          1           0       -0.000000   -0.538526    0.000000
      7          1           0       -1.072094    0.435295    0.000000
      8          1           0       -1.072094   -0.641757    0.000000
      9          1           0       -2.144187    0.332064    0.000000
     10          1           0       -2.144187   -0.744988    0.000000
 ---------------------------------------------------------------------

 SCF Done:  E(UHF) =  -4.95974551403     A.U. after   28 cycles
 E2 =    -0.4912515502D-01 EUMP2 =    -0.50088706690549D+01

 Unable to determine electronic state:  partially filled degenerate orbitals.
 Alpha  occ. eigenvalues --   -0.87275  -0.74955  -0.55813  -0.45383  -0.38888
 Alpha virt. eigenvalues --    0.06964   0.20097   0.37232   0.52938   0.90230
  Beta  occ. eigenvalues --   -0.87275  -0.74955  -0.55813  -0.45383  -0.38888
  Beta virt. eigenvalues --    0.06964   0.20097   0.37232   0.52938   0.90230

 Mulliken charges and spin densities:
               1          2
     1  H    0.039858  -0.602125
     2  H    0.016018   0.586596
     3  H   -0.020745   0.552678
     4  H   -0.032882  -0.554274
     5  H   -0.002249  -0.402356
     6  H   -0.002249   0.402356
     7  H   -0.032882   0.554274
     8  H   -0.020745  -0.552678
     9  H    0.016018  -0.586596
    10  H    0.039858   0.602125
 Sum of Mulliken charges =  -0.00000  -0.00000

 Dipole moment (field-independent basis, Debye):
    X=             -0.0000    Y=             -0.0000    Z=              0.0000  Tot=              0.0000
 Quadrupole moment (field-independent basis, Debye-Ang):
   XX=            -13.0213   YY=            -15.4544   ZZ=            -12.7931
   XY=              0.6919   XZ=              0.0000   YZ=             -0.0000

 Normal termination of Gaussian 09 at Tue Feb 28 18:15:24 2017.
