 Gaussian 09, Revision E.01,
 Gaussian 09:  ES64L-G09RevE.01 30-Nov-2015

 ----------------------------------------------------------------------
 #uhf/gen scf(tight,novaracc,noincfock,fulldiag) stable(cuhf) guess=rea
 d geom=nocrowd test
 ----------------------------------------------------------------------

 hf stability analysis of h10 triangular lattice, y= 0.4676948326587840
 9
 ----------------------------------------------------------------------
 Symbolic Z-matrix:
 Charge =  0 Multiplicity = 1

                         Standard orientation:
 ---------------------------------------------------------------------
 Center     Atomic      Atomic             Coordinates (Angstroms)
 Number     Number       Type             X           Y           Z
 ---------------------------------------------------------------------
      1          1           0        1.749432   -1.317329   -0.000000
      2          1           0        1.749432   -2.637416   -0.000000
      3          1           0        0.874716   -0.328643   -0.000000
      4          1           0        0.874716   -1.648730   -0.000000
      5          1           0        0.000000    0.660043   -0.000000
      6          1           0       -0.000000   -0.660043    0.000000
      7          1           0       -0.874716    1.648730   -0.000000
      8          1           0       -0.874716    0.328643   -0.000000
      9          1           0       -1.749432    2.637416   -0.000000
     10          1           0       -1.749432    1.317329   -0.000000
 ---------------------------------------------------------------------

 SCF Done:  E(UHF) =  -4.84376951556     A.U. after   30 cycles
 E2 =    -0.5184688691D-01 EUMP2 =    -0.48956164024640D+01

 Unable to determine electronic state:  partially filled degenerate orbitals.
 Alpha  occ. eigenvalues --   -0.81277  -0.72999  -0.58352  -0.41395  -0.26424
 Alpha virt. eigenvalues --    0.07419   0.20314   0.24035   0.40548   0.57992
  Beta  occ. eigenvalues --   -0.82020  -0.72562  -0.58541  -0.38951  -0.28881
  Beta virt. eigenvalues --    0.07966   0.20457   0.26275   0.37642   0.59305

 Mulliken charges and spin densities:
               1          2
     1  H   -0.100971   0.468246
     2  H   -0.091689   0.765651
     3  H    0.117720   0.046177
     4  H    0.159488  -0.314851
     5  H   -0.042268  -0.535583
     6  H   -0.080011   0.028236
     7  H    0.133092   0.302756
     8  H    0.040992   0.432249
     9  H   -0.097998  -0.710231
    10  H   -0.038354  -0.482648
 Sum of Mulliken charges =   0.00000  -0.00000

 Dipole moment (field-independent basis, Debye):
    X=             -0.0399    Y=              0.1058    Z=              0.0000  Tot=              0.1130
 Quadrupole moment (field-independent basis, Debye-Ang):
   XX=            -16.8574   YY=            -20.3793   ZZ=            -12.6801
   XY=              6.0204   XZ=             -0.0000   YZ=              0.0000

 Normal termination of Gaussian 09 at Tue Feb 28 18:10:04 2017.
