 Gaussian 09, Revision E.01,
 Gaussian 09:  ES64L-G09RevE.01 30-Nov-2015

 ----------------------------------------------------------------------
 #uhf/gen scf(tight,novaracc,noincfock,fulldiag) stable(cuhf) guess=rea
 d geom=nocrowd test
 ----------------------------------------------------------------------

 hf stability analysis of h10 triangular lattice, y= 0.5247684832164858
 4
 ----------------------------------------------------------------------
 Symbolic Z-matrix:
 Charge =  0 Multiplicity = 1

                         Standard orientation:
 ---------------------------------------------------------------------
 Center     Atomic      Atomic             Coordinates (Angstroms)
 Number     Number       Type             X           Y           Z
 ---------------------------------------------------------------------
      1          1           0        1.894593   -0.924740    0.000000
      2          1           0        1.894593   -2.143683    0.000000
      3          1           0        0.947297   -0.157634    0.000000
      4          1           0        0.947297   -1.376577    0.000000
      5          1           0        0.000000    0.609471   -0.000000
      6          1           0       -0.000000   -0.609471   -0.000000
      7          1           0       -0.947297    1.376577    0.000000
      8          1           0       -0.947297    0.157634   -0.000000
      9          1           0       -1.894593    2.143683    0.000000
     10          1           0       -1.894593    0.924740    0.000000
 ---------------------------------------------------------------------

 SCF Done:  E(UHF) =  -4.79911813460     A.U. after   89 cycles
 E2 =    -0.7924013483D-01 EUMP2 =    -0.48783582694271D+01

 The electronic state is 1-BU.
 Alpha  occ. eigenvalues --   -0.81305  -0.74510  -0.56618  -0.37734  -0.23012
 Alpha virt. eigenvalues --   -0.01646   0.18242   0.20481   0.45608   0.57584
  Beta  occ. eigenvalues --   -0.88113  -0.74645  -0.55853  -0.35264  -0.31065
  Beta virt. eigenvalues --    0.05558   0.18785   0.27958   0.38120   0.53863

 Mulliken charges and spin densities:
               1          2
     1  H    0.049061   0.179111
     2  H   -0.144571   0.415249
     3  H   -0.080207  -0.128806
     4  H    0.188302  -0.173884
     5  H   -0.012586  -0.291670
     6  H   -0.012586  -0.291670
     7  H    0.188302  -0.173884
     8  H   -0.080207  -0.128806
     9  H   -0.144571   0.415249
    10  H    0.049061   0.179111
 Sum of Mulliken charges =   0.00000   0.00000

 Dipole moment (field-independent basis, Debye):
    X=             -0.0000    Y=              0.0000    Z=             -0.0000  Tot=              0.0000
 Quadrupole moment (field-independent basis, Debye-Ang):
   XX=            -17.0701   YY=            -18.0714   ZZ=            -12.9020
   XY=              3.6516   XZ=             -0.0000   YZ=              0.0000

 Normal termination of Gaussian 09 at Tue Feb 28 18:11:02 2017.
