 Gaussian 09, Revision E.01,
 Gaussian 09:  ES64L-G09RevE.01 30-Nov-2015

 ----------------------------------------------------------------------
 #uhf/gen scf(tight,novaracc,noincfock,fulldiag) stable(cuhf) guess=rea
 d geom=nocrowd test
 ----------------------------------------------------------------------

 hf stability analysis of h10 triangular lattice, y= 0.4521619835073459
 3
 ----------------------------------------------------------------------
 Symbolic Z-matrix:
 Charge =  0 Multiplicity = 1

                         Standard orientation:
 ---------------------------------------------------------------------
 Center     Atomic      Atomic             Coordinates (Angstroms)
 Number     Number       Type             X           Y           Z
 ---------------------------------------------------------------------
      1          1           0        1.704907   -1.428103    0.000000
      2          1           0        1.704907   -2.782665    0.000000
      3          1           0        0.852453   -0.375411    0.000000
      4          1           0        0.852453   -1.729973    0.000000
      5          1           0       -0.000000    0.677281   -0.000000
      6          1           0       -0.000000   -0.677281   -0.000000
      7          1           0       -0.852453    1.729973    0.000000
      8          1           0       -0.852453    0.375411    0.000000
      9          1           0       -1.704907    2.782665    0.000000
     10          1           0       -1.704907    1.428103    0.000000
 ---------------------------------------------------------------------

 SCF Done:  E(UHF) =  -4.89331145202     A.U. after   31 cycles
 E2 =    -0.4468922632D-01 EUMP2 =    -0.49380006783377D+01

 Unable to determine electronic state:  partially filled degenerate orbitals.
 Alpha  occ. eigenvalues --   -0.80063  -0.72365  -0.58780  -0.43877  -0.28054
 Alpha virt. eigenvalues --    0.10713   0.20709   0.23971   0.43544   0.59755
  Beta  occ. eigenvalues --   -0.80319  -0.71353  -0.58910  -0.42134  -0.30798
  Beta virt. eigenvalues --    0.11570   0.22408   0.27475   0.38892   0.60598

 Mulliken charges and spin densities:
               1          2
     1  H   -0.000040  -0.141875
     2  H   -0.078472   0.915550
     3  H    0.033035   0.483658
     4  H    0.054411   0.176931
     5  H   -0.026673  -0.561309
     6  H    0.010173  -0.459522
     7  H    0.099410   0.317781
     8  H    0.016194   0.539415
     9  H   -0.080574  -0.839335
    10  H   -0.027463  -0.431295
 Sum of Mulliken charges =  -0.00000  -0.00000

 Dipole moment (field-independent basis, Debye):
    X=              0.1265    Y=              0.0075    Z=             -0.0000  Tot=              0.1267
 Quadrupole moment (field-independent basis, Debye-Ang):
   XX=            -15.2274   YY=            -20.8831   ZZ=            -12.6083
   XY=              5.6968   XZ=              0.0000   YZ=             -0.0000

 Normal termination of Gaussian 09 at Tue Feb 28 18:09:47 2017.
