 Gaussian 09, Revision E.01,
 Gaussian 09:  ES64L-G09RevE.01 30-Nov-2015

 ----------------------------------------------------------------------
 #uhf/gen scf(tight,novaracc,noincfock,fulldiag) stable(cuhf) guess=rea
 d geom=nocrowd test
 ----------------------------------------------------------------------

 ----------------------------------------------------------------------
 hf stability analysis of h10 triangular lattice, y= 1.0365814879045478
 ----------------------------------------------------------------------
 Symbolic Z-matrix:
 Charge =  0 Multiplicity = 1

                         Standard orientation:
 ---------------------------------------------------------------------
 Center     Atomic      Atomic             Coordinates (Angstroms)
 Number     Number       Type             X           Y           Z
 ---------------------------------------------------------------------
      1          1           0        1.962538    1.887346    0.000000
      2          1           0        1.962538    0.710604    0.000000
      3          1           0        0.981269    1.237859    0.000000
      4          1           0        0.981269    0.061116    0.000000
      5          1           0       -0.000000    0.588371    0.000000
      6          1           0       -0.000000   -0.588371    0.000000
      7          1           0       -0.981269   -0.061116    0.000000
      8          1           0       -0.981269   -1.237859    0.000000
      9          1           0       -1.962538   -0.710604    0.000000
     10          1           0       -1.962538   -1.887346    0.000000
 ---------------------------------------------------------------------

 SCF Done:  E(UHF) =  -4.83348533989     A.U. after   37 cycles
 E2 =    -0.7296479223D-01 EUMP2 =    -0.49064501321195D+01

 The electronic state is 1-BU.
 Alpha  occ. eigenvalues --   -0.83659  -0.75324  -0.52177  -0.38241  -0.28370
 Alpha virt. eigenvalues --   -0.02261   0.20609   0.24125   0.54068   0.57377
  Beta  occ. eigenvalues --   -0.84722  -0.71172  -0.57530  -0.39330  -0.32858
  Beta virt. eigenvalues --    0.04875   0.21303   0.28613   0.52090   0.56112

 Mulliken charges and spin densities:
               1          2
     1  H    0.054724  -0.471372
     2  H    0.023378   0.490595
     3  H   -0.027177   0.333648
     4  H   -0.005520  -0.201311
     5  H   -0.045406  -0.151560
     6  H   -0.045406  -0.151560
     7  H   -0.005520  -0.201311
     8  H   -0.027177   0.333648
     9  H    0.023378   0.490595
    10  H    0.054724  -0.471372
 Sum of Mulliken charges =   0.00000   0.00000

 Dipole moment (field-independent basis, Debye):
    X=              0.0000    Y=              0.0000    Z=              0.0000  Tot=              0.0000
 Quadrupole moment (field-independent basis, Debye-Ang):
   XX=            -11.7872   YY=            -14.2152   ZZ=            -12.9618
   XY=              2.9021   XZ=             -0.0000   YZ=              0.0000

 Normal termination of Gaussian 09 at Tue Feb 28 18:18:06 2017.
