 Gaussian 09, Revision E.01,
 Gaussian 09:  ES64L-G09RevE.01 30-Nov-2015

 ----------------------------------------------------------------------
 #uhf/gen scf(tight,novaracc,noincfock,fulldiag) stable(cuhf) guess=rea
 d geom=nocrowd test
 ----------------------------------------------------------------------

 ----------------------------------------------------------------------
 hf stability analysis of h10 triangular lattice, y= 1.1592321887657087
 ----------------------------------------------------------------------
 Symbolic Z-matrix:
 Charge =  0 Multiplicity = 1

                         Standard orientation:
 ---------------------------------------------------------------------
 Center     Atomic      Atomic             Coordinates (Angstroms)
 Number     Number       Type             X           Y           Z
 ---------------------------------------------------------------------
      1          1           0        1.830399    2.367830    0.000000
      2          1           0        1.830399    1.106138    0.000000
      3          1           0        0.915200    1.499338    0.000000
      4          1           0        0.915200    0.237646    0.000000
      5          1           0        0.000000    0.630846    0.000000
      6          1           0       -0.000000   -0.630846    0.000000
      7          1           0       -0.915200   -0.237646    0.000000
      8          1           0       -0.915200   -1.499338    0.000000
      9          1           0       -1.830399   -1.106138    0.000000
     10          1           0       -1.830399   -2.367830    0.000000
 ---------------------------------------------------------------------

 SCF Done:  E(UHF) =  -4.78755653791     A.U. after   37 cycles
 E2 =    -0.5766659171D-01 EUMP2 =    -0.48452231296228D+01

 Unable to determine electronic state:  partially filled degenerate orbitals.
 Alpha  occ. eigenvalues --   -0.82455  -0.73774  -0.58077  -0.41278  -0.22091
 Alpha virt. eigenvalues --    0.03959   0.16099   0.23949   0.43369   0.56154
  Beta  occ. eigenvalues --   -0.84516  -0.73552  -0.57482  -0.36559  -0.30817
  Beta virt. eigenvalues --    0.07173   0.18129   0.30478   0.35016   0.58858

 Mulliken charges and spin densities:
               1          2
     1  H   -0.087872   0.811693
     2  H   -0.079817   0.243869
     3  H    0.158963  -0.193228
     4  H    0.089014   0.444105
     5  H   -0.016041  -0.498397
     6  H   -0.023791  -0.527057
     7  H   -0.112147   0.452646
     8  H    0.124142   0.196360
     9  H    0.071254  -0.373953
    10  H   -0.123704  -0.556037
 Sum of Mulliken charges =   0.00000   0.00000

 Dipole moment (field-independent basis, Debye):
    X=              0.0242    Y=              0.1088    Z=             -0.0000  Tot=              0.1114
 Quadrupole moment (field-independent basis, Debye-Ang):
   XX=            -16.6961   YY=            -18.7574   ZZ=            -12.7479
   XY=             -4.2676   XZ=             -0.0000   YZ=              0.0000

 Normal termination of Gaussian 09 at Tue Feb 28 18:19:03 2017.
