 Gaussian 09, Revision E.01,
 Gaussian 09:  ES64L-G09RevE.01 30-Nov-2015

 ----------------------------------------------------------------------
 #uhf/gen scf(tight,novaracc,noincfock,fulldiag) stable(cuhf) guess=rea
 d geom=nocrowd test
 ----------------------------------------------------------------------

 hf stability analysis of h10 triangular lattice, y= 0.6328681913590388
 2
 ----------------------------------------------------------------------
 Symbolic Z-matrix:
 Charge =  0 Multiplicity = 1

                         Standard orientation:
 ---------------------------------------------------------------------
 Center     Atomic      Atomic             Coordinates (Angstroms)
 Number     Number       Type             X           Y           Z
 ---------------------------------------------------------------------
      1          1           0        2.079977   -0.222521   -0.000000
      2          1           0        2.079977   -1.332822   -0.000000
      3          1           0        1.039988    0.166315   -0.000000
      4          1           0        1.039988   -0.943986   -0.000000
      5          1           0        0.000000    0.555151    0.000000
      6          1           0       -0.000000   -0.555151   -0.000000
      7          1           0       -1.039988    0.943986   -0.000000
      8          1           0       -1.039988   -0.166315   -0.000000
      9          1           0       -2.079977    1.332822   -0.000000
     10          1           0       -2.079977    0.222521   -0.000000
 ---------------------------------------------------------------------

 SCF Done:  E(UHF) =  -4.82465242634     A.U. after  128 cycles
 E2 =    -0.9955317302D-01 EUMP2 =    -0.49242055993611D+01

 The electronic state is 1-AG.
 Alpha  occ. eigenvalues --   -0.85643  -0.73666  -0.54870  -0.43588  -0.27339
 Alpha virt. eigenvalues --   -0.04326   0.20093   0.30936   0.52609   0.73360
  Beta  occ. eigenvalues --   -0.87467  -0.74250  -0.52426  -0.44554  -0.28247
  Beta virt. eigenvalues --   -0.02293   0.18610   0.28613   0.55833   0.71499

 Mulliken charges and spin densities:
               1          2
     1  H   -0.063190  -0.117266
     2  H    0.113560   0.278508
     3  H   -0.054876   0.193745
     4  H   -0.007126  -0.258392
     5  H    0.011633  -0.096595
     6  H    0.011633  -0.096595
     7  H   -0.007126  -0.258392
     8  H   -0.054876   0.193745
     9  H    0.113560   0.278508
    10  H   -0.063190  -0.117266
 Sum of Mulliken charges =  -0.00000   0.00000

 Dipole moment (field-independent basis, Debye):
    X=              0.0000    Y=             -0.0000    Z=             -0.0000  Tot=              0.0000
 Quadrupole moment (field-independent basis, Debye-Ang):
   XX=            -12.1553   YY=            -14.7551   ZZ=            -12.9311
   XY=             -4.1894   XZ=              0.0000   YZ=             -0.0000

 Normal termination of Gaussian 09 at Tue Feb 28 18:12:51 2017.
