 Gaussian 09, Revision E.01,
 Gaussian 09:  ES64L-G09RevE.01 30-Nov-2015

 ----------------------------------------------------------------------
 #uhf/gen scf(tight,novaracc,noincfock,fulldiag) stable(cuhf) guess=rea
 d geom=nocrowd test
 ----------------------------------------------------------------------

 hf stability analysis of h10 triangular lattice, y= 0.6387729204659229
 3
 ----------------------------------------------------------------------
 Symbolic Z-matrix:
 Charge =  0 Multiplicity = 1

                         Standard orientation:
 ---------------------------------------------------------------------
 Center     Atomic      Atomic             Coordinates (Angstroms)
 Number     Number       Type             X           Y           Z
 ---------------------------------------------------------------------
      1          1           0        2.086594   -0.185512    0.000000
      2          1           0        2.086594   -1.292292    0.000000
      3          1           0        1.043297    0.183939    0.000000
      4          1           0        1.043297   -0.922841    0.000000
      5          1           0        0.000000    0.553390   -0.000000
      6          1           0       -0.000000   -0.553390   -0.000000
      7          1           0       -1.043297    0.922841    0.000000
      8          1           0       -1.043297   -0.183939    0.000000
      9          1           0       -2.086594    1.292292    0.000000
     10          1           0       -2.086594    0.185512    0.000000
 ---------------------------------------------------------------------

 SCF Done:  E(UHF) =  -4.82977687246     A.U. after   70 cycles
 E2 =    -0.9031662680D-01 EUMP2 =    -0.49200934992655D+01

 Unable to determine electronic state:  partially filled degenerate orbitals.
 Alpha  occ. eigenvalues --   -0.86082  -0.73822  -0.54799  -0.43898  -0.26862
 Alpha virt. eigenvalues --   -0.04296   0.20543   0.31085   0.52288   0.74702
  Beta  occ. eigenvalues --   -0.87589  -0.74133  -0.53504  -0.44186  -0.28502
  Beta virt. eigenvalues --   -0.01568   0.18608   0.29306   0.55344   0.73514

 Mulliken charges and spin densities:
               1          2
     1  H   -0.146600  -0.209603
     2  H    0.205185   0.356791
     3  H    0.085782   0.381751
     4  H   -0.120583  -0.264032
     5  H    0.012426  -0.311627
     6  H    0.008303   0.088283
     7  H    0.113909  -0.170304
     8  H   -0.199738   0.092942
     9  H   -0.086681   0.176910
    10  H    0.127997  -0.141110
 Sum of Mulliken charges =   0.00000  -0.00000

 Dipole moment (field-independent basis, Debye):
    X=              0.4288    Y=             -0.2644    Z=              0.0000  Tot=              0.5037
 Quadrupole moment (field-independent basis, Debye-Ang):
   XX=            -12.5087   YY=            -15.3796   ZZ=            -12.9039
   XY=             -2.4810   XZ=              0.0000   YZ=             -0.0000

 Normal termination of Gaussian 09 at Tue Feb 28 18:12:58 2017.
