 Gaussian 09, Revision E.01,
 Gaussian 09:  ES64L-G09RevE.01 30-Nov-2015

 ----------------------------------------------------------------------
 #uhf/gen scf(tight,novaracc,noincfock,fulldiag) stable(cuhf) guess=rea
 d geom=nocrowd test
 ----------------------------------------------------------------------

 hf stability analysis of h10 triangular lattice, y= 0.5040240137193442
 4
 ----------------------------------------------------------------------
 Symbolic Z-matrix:
 Charge =  0 Multiplicity = 1

                         Standard orientation:
 ---------------------------------------------------------------------
 Center     Atomic      Atomic             Coordinates (Angstroms)
 Number     Number       Type             X           Y           Z
 ---------------------------------------------------------------------
      1          1           0        1.845356   -1.065224   -0.000000
      2          1           0        1.845356   -2.316690   -0.000000
      3          1           0        0.922678   -0.219745   -0.000000
      4          1           0        0.922678   -1.471212   -0.000000
      5          1           0        0.000000    0.625733    0.000000
      6          1           0       -0.000000   -0.625733    0.000000
      7          1           0       -0.922678    1.471212   -0.000000
      8          1           0       -0.922678    0.219745   -0.000000
      9          1           0       -1.845356    2.316690   -0.000000
     10          1           0       -1.845356    1.065224   -0.000000
 ---------------------------------------------------------------------

 SCF Done:  E(UHF) =  -4.78098545124     A.U. after   35 cycles
 E2 =    -0.6601060205D-01 EUMP2 =    -0.48469960532913D+01

 Unable to determine electronic state:  partially filled degenerate orbitals.
 Alpha  occ. eigenvalues --   -0.82412  -0.73908  -0.57764  -0.40584  -0.21209
 Alpha virt. eigenvalues --    0.02856   0.15504   0.23434   0.43773   0.56034
  Beta  occ. eigenvalues --   -0.84914  -0.73757  -0.57185  -0.35966  -0.30264
  Beta virt. eigenvalues --    0.06047   0.17652   0.30104   0.35530   0.58490

 Mulliken charges and spin densities:
               1          2
     1  H   -0.073528   0.242526
     2  H   -0.085518   0.779580
     3  H    0.081984   0.367253
     4  H    0.166589  -0.212085
     5  H   -0.030542  -0.465179
     6  H   -0.008551  -0.489646
     7  H    0.129420   0.158610
     8  H   -0.149004   0.400124
     9  H   -0.131084  -0.488953
    10  H    0.100234  -0.292231
 Sum of Mulliken charges =   0.00000   0.00000

 Dipole moment (field-independent basis, Debye):
    X=              0.0521    Y=             -0.1905    Z=              0.0000  Tot=              0.1975
 Quadrupole moment (field-independent basis, Debye-Ang):
   XX=            -16.4806   YY=            -18.3000   ZZ=            -12.7952
   XY=              3.6924   XZ=              0.0000   YZ=             -0.0000

 Normal termination of Gaussian 09 at Tue Feb 28 18:10:44 2017.
