 Gaussian 09, Revision E.01,
 Gaussian 09:  ES64L-G09RevE.01 30-Nov-2015

 ----------------------------------------------------------------------
 #uhf/gen scf(tight,novaracc,noincfock,fulldiag) stable(cuhf) guess=rea
 d geom=nocrowd test
 ----------------------------------------------------------------------

 hf stability analysis of h10 triangular lattice, y= 0.4646099728787273
 0
 ----------------------------------------------------------------------
 Symbolic Z-matrix:
 Charge =  0 Multiplicity = 1

                         Standard orientation:
 ---------------------------------------------------------------------
 Center     Atomic      Atomic             Coordinates (Angstroms)
 Number     Number       Type             X           Y           Z
 ---------------------------------------------------------------------
      1          1           0        1.740749   -1.339167    0.000000
      2          1           0        1.740749   -2.665838    0.000000
      3          1           0        0.870374   -0.337916    0.000000
      4          1           0        0.870374   -1.664587    0.000000
      5          1           0       -0.000000    0.663335    0.000000
      6          1           0       -0.000000   -0.663335   -0.000000
      7          1           0       -0.870374    1.664587    0.000000
      8          1           0       -0.870374    0.337916    0.000000
      9          1           0       -1.740749    2.665838    0.000000
     10          1           0       -1.740749    1.339167    0.000000
 ---------------------------------------------------------------------

 SCF Done:  E(UHF) =  -4.85150031230     A.U. after   37 cycles
 E2 =    -0.5171403548D-01 EUMP2 =    -0.49032143477808D+01

 Unable to determine electronic state:  partially filled degenerate orbitals.
 Alpha  occ. eigenvalues --   -0.81181  -0.72812  -0.58460  -0.41234  -0.26992
 Alpha virt. eigenvalues --    0.07765   0.20708   0.24465   0.40187   0.58371
  Beta  occ. eigenvalues --   -0.81641  -0.72501  -0.58646  -0.39645  -0.28562
  Beta virt. eigenvalues --    0.08107   0.20902   0.25808   0.38348   0.59221

 Mulliken charges and spin densities:
               1          2
     1  H   -0.088340   0.468702
     2  H   -0.095164   0.769742
     3  H    0.103398  -0.067812
     4  H    0.152333  -0.316461
     5  H   -0.043698  -0.491707
     6  H   -0.068901   0.144649
     7  H    0.133651   0.317674
     8  H    0.053762   0.400318
     9  H   -0.097222  -0.737120
    10  H   -0.049820  -0.487986
 Sum of Mulliken charges =  -0.00000  -0.00000

 Dipole moment (field-independent basis, Debye):
    X=             -0.0193    Y=              0.0718    Z=             -0.0000  Tot=              0.0743
 Quadrupole moment (field-independent basis, Debye-Ang):
   XX=            -16.7861   YY=            -20.7392   ZZ=            -12.6639
   XY=              6.2892   XZ=              0.0000   YZ=             -0.0000

 Normal termination of Gaussian 09 at Tue Feb 28 18:10:01 2017.
