 Gaussian 09, Revision E.01,
 Gaussian 09:  ES64L-G09RevE.01 30-Nov-2015

 ----------------------------------------------------------------------
 #uhf/gen scf(tight,novaracc,noincfock,fulldiag) stable(cuhf) guess=rea
 d geom=nocrowd test
 ----------------------------------------------------------------------

 ----------------------------------------------------------------------
 hf stability analysis of h10 triangular lattice, y= 1.0760973851886237
 ----------------------------------------------------------------------
 Symbolic Z-matrix:
 Charge =  0 Multiplicity = 1

                         Standard orientation:
 ---------------------------------------------------------------------
 Center     Atomic      Atomic             Coordinates (Angstroms)
 Number     Number       Type             X           Y           Z
 ---------------------------------------------------------------------
      1          1           0        1.920609    2.048499    0.000000
      2          1           0        1.920609    0.846067    0.000000
      3          1           0        0.960305    1.324857    0.000000
      4          1           0        0.960305    0.122426    0.000000
      5          1           0       -0.000000    0.601216    0.000000
      6          1           0       -0.000000   -0.601216    0.000000
      7          1           0       -0.960305   -0.122426    0.000000
      8          1           0       -0.960305   -1.324857    0.000000
      9          1           0       -1.920609   -0.846067    0.000000
     10          1           0       -1.920609   -2.048499    0.000000
 ---------------------------------------------------------------------

 SCF Done:  E(UHF) =  -4.80549515032     A.U. after   65 cycles
 E2 =    -0.7434415277D-01 EUMP2 =    -0.48798393030825D+01

 The electronic state is 1-BU.
 Alpha  occ. eigenvalues --   -0.82888  -0.75192  -0.52406  -0.36108  -0.27045
 Alpha virt. eigenvalues --   -0.03023   0.21122   0.21568   0.48752   0.58248
  Beta  occ. eigenvalues --   -0.84139  -0.70678  -0.57427  -0.39436  -0.31727
  Beta virt. eigenvalues --    0.05544   0.19670   0.28691   0.47040   0.56976

 Mulliken charges and spin densities:
               1          2
     1  H    0.060996  -0.453767
     2  H    0.014182   0.495850
     3  H   -0.015567   0.332964
     4  H   -0.014330  -0.192593
     5  H   -0.045281  -0.182455
     6  H   -0.045281  -0.182455
     7  H   -0.014330  -0.192593
     8  H   -0.015567   0.332964
     9  H    0.014182   0.495850
    10  H    0.060996  -0.453767
 Sum of Mulliken charges =   0.00000  -0.00000

 Dipole moment (field-independent basis, Debye):
    X=              0.0000    Y=              0.0000    Z=              0.0000  Tot=              0.0000
 Quadrupole moment (field-independent basis, Debye-Ang):
   XX=            -11.9776   YY=            -13.4002   ZZ=            -12.9864
   XY=              3.4979   XZ=              0.0000   YZ=              0.0000

 Normal termination of Gaussian 09 at Tue Feb 28 18:18:27 2017.
