 Gaussian 09, Revision E.01,
 Gaussian 09:  ES64L-G09RevE.01 30-Nov-2015

 ----------------------------------------------------------------------
 #rhf/gen scf(symm,tight,novaracc,noincfock,fulldiag) stable(crhf) gues
 s=read geom=nocrowd test
 ----------------------------------------------------------------------

 ----------------------------------------------------------------------
 hf stability analysis of h10 triangular lattice, y= 1.5813852119866876
 ----------------------------------------------------------------------
 Symbolic Z-matrix:
 Charge =  0 Multiplicity = 1

                         Standard orientation:
 ---------------------------------------------------------------------
 Center     Atomic      Atomic             Coordinates (Angstroms)
 Number     Number       Type             X           Y           Z
 ---------------------------------------------------------------------
      1          1           0        1.422937    3.728944    0.000000
      2          1           0        1.422937    2.105962    0.000000
      3          1           0        0.711469    2.270218    0.000000
      4          1           0        0.711469    0.647236    0.000000
      5          1           0       -0.000000    0.811491    0.000000
      6          1           0       -0.000000   -0.811491    0.000000
      7          1           0       -0.711469   -0.647236   -0.000000
      8          1           0       -0.711469   -2.270218   -0.000000
      9          1           0       -1.422937   -2.105962   -0.000000
     10          1           0       -1.422937   -3.728944   -0.000000
 ---------------------------------------------------------------------

 SCF Done:  E(RHF) =  -4.91188076413     A.U. after    8 cycles
 E2 =    -0.5022869234D+00 EUMP2 =    -0.54141676875163D+01

 The electronic state is 1-AG.
 Alpha  occ. eigenvalues --   -0.76340  -0.70767  -0.61837  -0.50867  -0.16243
 Alpha virt. eigenvalues --   -0.08529   0.23555   0.33652   0.48755   0.63586

 Mulliken charges:
               1
     1  H   -0.076457
     2  H    0.022400
     3  H    0.033202
     4  H    0.007436
     5  H    0.013418
     6  H    0.013418
     7  H    0.007436
     8  H    0.033202
     9  H    0.022400
    10  H   -0.076457
 Sum of Mulliken charges =   0.00000

 Dipole moment (field-independent basis, Debye):
    X=              0.0000    Y=             -0.0000    Z=              0.0000  Tot=              0.0000
 Quadrupole moment (field-independent basis, Debye-Ang):
   XX=            -13.0630   YY=            -24.9248   ZZ=            -12.9661
   XY=             -4.9834   XZ=             -0.0000   YZ=             -0.0000

 Normal termination of Gaussian 09 at Thu Feb  9 17:33:46 2017.
