 Gaussian 09, Revision E.01,
 Gaussian 09:  ES64L-G09RevE.01 30-Nov-2015

 ----------------------------------------------------------------------
 #rhf/gen scf(symm,tight,novaracc,noincfock,fulldiag) stable(crhf) gues
 s=read geom=nocrowd test
 ----------------------------------------------------------------------

 hf stability analysis of h10 triangular lattice, y= 0.5773502789032680
 7
 ----------------------------------------------------------------------
 Symbolic Z-matrix:
 Charge =  0 Multiplicity = 1

                         Standard orientation:
 ---------------------------------------------------------------------
 Center     Atomic      Atomic             Coordinates (Angstroms)
 Number     Number       Type             X           Y           Z
 ---------------------------------------------------------------------
      1          1           0        2.000000   -0.577350    0.000000
      2          1           0        2.000000   -1.732051    0.000000
      3          1           0        1.000000    0.000000    0.000000
      4          1           0        1.000000   -1.154701    0.000000
      5          1           0        0.000000    0.577350    0.000000
      6          1           0       -0.000000   -0.577350    0.000000
      7          1           0       -1.000000    1.154701    0.000000
      8          1           0       -1.000000    0.000000    0.000000
      9          1           0       -2.000000    1.732051    0.000000
     10          1           0       -2.000000    0.577350    0.000000
 ---------------------------------------------------------------------

 SCF Done:  E(RHF) =  -4.74237851660     A.U. after   10 cycles
 E2 =    -0.1164142187D+00 EUMP2 =    -0.48587927353035D+01

 The electronic state is 1-AG.
 Alpha  occ. eigenvalues --   -0.84935  -0.72811  -0.53717  -0.39543  -0.24350
 Alpha virt. eigenvalues --   -0.06714   0.22308   0.23361   0.56002   0.57014

 Mulliken charges:
               1
     1  H   -0.099953
     2  H    0.140582
     3  H   -0.092391
     4  H    0.012688
     5  H    0.039074
     6  H    0.039074
     7  H    0.012688
     8  H   -0.092391
     9  H    0.140582
    10  H   -0.099953
 Sum of Mulliken charges =  -0.00000

 Dipole moment (field-independent basis, Debye):
    X=             -0.0000    Y=             -0.0000    Z=              0.0000  Tot=              0.0000
 Quadrupole moment (field-independent basis, Debye-Ang):
   XX=            -12.9579   YY=            -12.2497   ZZ=            -12.9814
   XY=             -5.8093   XZ=             -0.0000   YZ=              0.0000

 Normal termination of Gaussian 09 at Thu Feb  9 17:32:09 2017.
