 Gaussian 09, Revision E.01,
 Gaussian 09:  ES64L-G09RevE.01 30-Nov-2015

 ----------------------------------------------------------------------
 #rhf/gen scf(symm,tight,novaracc,noincfock,fulldiag) stable(crhf) gues
 s=read geom=nocrowd test
 ----------------------------------------------------------------------

 hf stability analysis of h10 triangular lattice, y= 0.7732164846609803
 6
 ----------------------------------------------------------------------
 Symbolic Z-matrix:
 Charge =  0 Multiplicity = 1

                         Standard orientation:
 ---------------------------------------------------------------------
 Center     Atomic      Atomic             Coordinates (Angstroms)
 Number     Number       Type             X           Y           Z
 ---------------------------------------------------------------------
      1          1           0        2.148485    0.612475    0.000000
      2          1           0        2.148485   -0.462422   -0.000000
      3          1           0        1.074243    0.574962    0.000000
      4          1           0        1.074243   -0.499935   -0.000000
      5          1           0       -0.000000    0.537449    0.000000
      6          1           0       -0.000000   -0.537449    0.000000
      7          1           0       -1.074243    0.499935   -0.000000
      8          1           0       -1.074243   -0.574962    0.000000
      9          1           0       -2.148485    0.462422   -0.000000
     10          1           0       -2.148485   -0.612475    0.000000
 ---------------------------------------------------------------------

 SCF Done:  E(RHF) =  -4.88611194801     A.U. after    8 cycles
 E2 =    -0.1050044967D+00 EUMP2 =    -0.49911164446574D+01

 The electronic state is 1-AG.
 Alpha  occ. eigenvalues --   -0.87756  -0.74523  -0.52644  -0.46844  -0.31191
 Alpha virt. eigenvalues --   -0.01330   0.15368   0.36747   0.51324   0.90178

 Mulliken charges:
               1
     1  H    0.051347
     2  H    0.029526
     3  H   -0.033089
     4  H   -0.033687
     5  H   -0.014097
     6  H   -0.014097
     7  H   -0.033687
     8  H   -0.033089
     9  H    0.029526
    10  H    0.051347
 Sum of Mulliken charges =   0.00000

 Dipole moment (field-independent basis, Debye):
    X=             -0.0000    Y=              0.0000    Z=              0.0000  Tot=              0.0000
 Quadrupole moment (field-independent basis, Debye-Ang):
   XX=            -10.0734   YY=            -17.3833   ZZ=            -12.9545
   XY=              0.5152   XZ=              0.0000   YZ=             -0.0000

 Normal termination of Gaussian 09 at Thu Feb  9 17:32:42 2017.
