 Gaussian 09, Revision E.01,
 Gaussian 09:  ES64L-G09RevE.01 30-Nov-2015

 ---------------------------------------
 # RHF/GEN SCF(Tight,NoVarAcc,NoIncFock)
 ---------------------------------------

 ----
 junk
 ----
 Symbolic Z-matrix:
 Charge =  0 Multiplicity = 1

                         Standard orientation:
 ---------------------------------------------------------------------
 Center     Atomic      Atomic             Coordinates (Angstroms)
 Number     Number       Type             X           Y           Z
 ---------------------------------------------------------------------
      1          1           0       -0.000000    1.000000    0.000000
      2          1           0       -0.000000    0.000000    1.732000
      3          1           0       -0.000000   -1.000000   -0.000000
      4          1           0        0.000000    0.000000   -1.732000
 ---------------------------------------------------------------------

 SCF Done:  E(RHF) =  -1.78081985279     A.U. after    5 cycles

 The electronic state is 1-AG.
 Alpha  occ. eigenvalues --   -0.47797  -0.25654
 Alpha virt. eigenvalues --   -0.06708   0.02423

 Mulliken charges:
               1
     1  H    0.288937
     2  H   -0.288937
     3  H    0.288937
     4  H   -0.288937
 Sum of Mulliken charges =  -0.00000

 Dipole moment (field-independent basis, Debye):
    X=             -0.0000    Y=              0.0000    Z=              0.0000  Tot=              0.0000
 Quadrupole moment (field-independent basis, Debye-Ang):
   XX=             -5.7761   YY=             -1.7132   ZZ=            -13.3315
   XY=              0.0000   XZ=              0.0000   YZ=              0.0000

 Normal termination of Gaussian 09 at Wed Dec 14 15:11:31 2016.
