 Gaussian 09, Revision E.01,
 Gaussian 09:  ES64L-G09RevE.01 30-Nov-2015

 -------------------------------
 #T RHF/6-31G(d) Stable=Opt Test
 -------------------------------

 SPE calculation with stability test for singlet state of diatomic oxyg
 en, usign RHF with 6-31G(d) basis
 ----------------------------------------------------------------------
 Symbolic Z-matrix:
 Charge =  0 Multiplicity = 1

                         Standard orientation:
 ---------------------------------------------------------------------
 Center     Atomic      Atomic             Coordinates (Angstroms)
 Number     Number       Type             X           Y           Z
 ---------------------------------------------------------------------
      1          8           0        0.000000    0.000000    0.610000
      2          8           0        0.000000    0.000000   -0.610000
 ---------------------------------------------------------------------

 SCF Done:  E(RHF) =  -149.527352714     A.U. after    9 cycles
 SCF Done:  E(UHF) =  -149.550638608     a.u. after    6 cycles
 SCF Done:  E(UHF) =  -149.586691785     a.u. after   11 cycles

 Unable to determine electronic state:  an orbital has unidentified symmetry.
 Alpha  occ. eigenvalues --  -20.74568 -20.72395  -1.64217  -1.09683  -0.81315
 Alpha  occ. eigenvalues --   -0.72392  -0.61638  -0.51721
 Alpha virt. eigenvalues --    0.10184   0.45157   0.87432   0.97054   1.03014
 Alpha virt. eigenvalues --    1.11160   1.11403   1.15030   1.25202   1.51465
 Alpha virt. eigenvalues --    1.74981   1.80807   1.81552   1.81576   2.22805

  Beta  occ. eigenvalues --  -20.74568 -20.72395  -1.64217  -1.09683  -0.81315
  Beta  occ. eigenvalues --   -0.72392  -0.61638  -0.51721
  Beta virt. eigenvalues --    0.10184   0.45157   0.87432   0.97054   1.03014
  Beta virt. eigenvalues --    1.11160   1.11403   1.15030   1.25202   1.51465
  Beta virt. eigenvalues --    1.74981   1.80807   1.81552   1.81576   2.22805

 Mulliken charges and spin densities:
               1          2
     1  O    0.000000  -0.560397
     2  O    0.000000   0.560397
 Sum of Mulliken charges =   0.00000   0.00000

 Dipole moment (field-independent basis, Debye):
    X=              0.0000    Y=             -0.0000    Z=             -0.0000  Tot=              0.0000
                          Isotropic Fermi Contact Couplings
        Atom                 a.u.       MegaHertz       Gauss      10(-4) cm-1
     1  O(17)             -0.09239      28.00419       9.99259       9.34119
     2  O(17)              0.09239     -28.00419      -9.99259      -9.34119
 --------------------------------------------------------
       Center         ----  Spin Dipole Couplings  ----
                      3XX-RR        3YY-RR        3ZZ-RR
 --------------------------------------------------------
     1   Atom       -0.447661     -0.447662      0.895323
     2   Atom        0.447661      0.447662     -0.895323

 Normal termination of Gaussian 09 at Tue Nov 29 13:04:35 2016.
