 Gaussian 09, Revision E.01,
 Gaussian 09:  ES64L-G09RevE.01 30-Nov-2015

 -----------------------------------------------
 #T UHF/6-31G(d) Opt=AddRedundant Guess=Mix Test
 -----------------------------------------------

 SPE calculation with stability test for singlet state of ozone, usign
 RHF with 6-31G(d) basis
 ----------------------------------------------------------------------
 Symbolic Z-matrix:
 Charge =  0 Multiplicity = 1

 SCF Done:  E(UHF) =  -224.249961890     A.U. after   19 cycles
 SCF Done:  E(UHF) =  -224.260316326     A.U. after   19 cycles
 SCF Done:  E(UHF) =  -224.259959190     A.U. after   17 cycles
 SCF Done:  E(UHF) =  -224.261435582     A.U. after   19 cycles
 SCF Done:  E(UHF) =  -224.261436431     A.U. after    9 cycles
 Optimization completed.
    -- Stationary point found.

                         Standard orientation:
 ---------------------------------------------------------------------
 Center     Atomic      Atomic             Coordinates (Angstroms)
 Number     Number       Type             X           Y           Z
 ---------------------------------------------------------------------
      1          8           0        0.000000    1.037624   -0.203773
      2          8           0        0.000000    0.000000    0.407546
      3          8           0       -0.000000   -1.037624   -0.203773
 ---------------------------------------------------------------------

 The electronic state is 1-A1.
 Alpha  occ. eigenvalues --  -20.93422 -20.70328 -20.70320  -1.82840  -1.48151
 Alpha  occ. eigenvalues --   -1.06679  -0.86129  -0.82577  -0.81435  -0.55848
 Alpha  occ. eigenvalues --   -0.53523  -0.49046
 Alpha virt. eigenvalues --   -0.00345   0.39309   0.49301   0.80252   0.93876
 Alpha virt. eigenvalues --    0.95136   1.02530   1.05409   1.09987   1.15203
 Alpha virt. eigenvalues --    1.17237   1.19975   1.24419   1.47251   1.48857

  Beta  occ. eigenvalues --  -20.93422 -20.70328 -20.70320  -1.82840  -1.48151
  Beta  occ. eigenvalues --   -1.06679  -0.86129  -0.82577  -0.81435  -0.55848
  Beta  occ. eigenvalues --   -0.53523  -0.49046
  Beta virt. eigenvalues --   -0.00345   0.39309   0.49301   0.80252   0.93876
  Beta virt. eigenvalues --    0.95136   1.02530   1.05409   1.09987   1.15203
  Beta virt. eigenvalues --    1.17237   1.19975   1.24419   1.47251   1.48857

 Mulliken charges and spin densities:
               1          2
     1  O   -0.163029  -0.000000
     2  O    0.326059   0.000000
     3  O   -0.163029  -0.000000
 Sum of Mulliken charges =  -0.00000  -0.00000

 Dipole moment (field-independent basis, Debye):
    X=              0.0000    Y=              0.0000    Z=              0.8265  Tot=              0.8265
                          Isotropic Fermi Contact Couplings
        Atom                 a.u.       MegaHertz       Gauss      10(-4) cm-1
     1  O(17)             -0.00000       0.00000       0.00000       0.00000
     2  O(17)             -0.00000       0.00000       0.00000       0.00000
     3  O(17)             -0.00000       0.00000       0.00000       0.00000
 --------------------------------------------------------
       Center         ----  Spin Dipole Couplings  ----
                      3XX-RR        3YY-RR        3ZZ-RR
 --------------------------------------------------------
     1   Atom        0.000000      0.000000      0.000000

 Normal termination of Gaussian 09 at Tue Nov 29 13:27:31 2016.
