 Gaussian 09, Revision E.01,
 Gaussian 09:  ES64L-G09RevE.01 30-Nov-2015

 ----------------------------------------------------------------------
 #uhf/gen scf(tight,novaracc,noincfock,fulldiag) stable(crhf) guess=rea
 d geom=nocrowd test
 ----------------------------------------------------------------------

 hf stability analysis of h10 triangular lattice, y= 0.4769024705228824
 8 alpha= 21.501000000000001
 ----------------------------------------------------------------------
 Symbolic Z-matrix:
 Charge =  0 Multiplicity = 1

                         Standard orientation:
 ---------------------------------------------------------------------
 Center     Atomic      Atomic             Coordinates (Angstroms)
 Number     Number       Type             X           Y           Z
 ---------------------------------------------------------------------
      1          1           0        1.774861   -1.252586    0.000000
      2          1           0        1.774861   -2.553759    0.000000
      3          1           0        0.887431   -0.301000    0.000000
      4          1           0        0.887431   -1.602173    0.000000
      5          1           0        0.000000    0.650586   -0.000000
      6          1           0       -0.000000   -0.650586    0.000000
      7          1           0       -0.887431    1.602173    0.000000
      8          1           0       -0.887431    0.301000    0.000000
      9          1           0       -1.774861    2.553759    0.000000
     10          1           0       -1.774861    1.252586    0.000000
 ---------------------------------------------------------------------

 SCF Done:  E(UHF) =  -4.82653794712     A.U. after   10 cycles
 E2 =    -0.7263306696D-01 EUMP2 =    -0.48991710140831D+01

 Unable to determine electronic state:  partially filled degenerate orbitals.
 Alpha  occ. eigenvalues --   -0.82260  -0.70333  -0.56999  -0.36973  -0.27103
 Alpha virt. eigenvalues --    0.08295   0.16802   0.21693   0.38519   0.61670
  Beta  occ. eigenvalues --   -0.82260  -0.70333  -0.56999  -0.36973  -0.27103
  Beta virt. eigenvalues --    0.08295   0.16802   0.21693   0.38519   0.61670

 Mulliken charges and spin densities:
               1          2
     1  H    0.055510  -0.475447
     2  H    0.009610   0.527438
     3  H   -0.095629  -0.223166
     4  H    0.038632  -0.247539
     5  H   -0.008123   0.331659
     6  H   -0.008123  -0.331659
     7  H    0.038632   0.247539
     8  H   -0.095629   0.223166
     9  H    0.009610  -0.527438
    10  H    0.055510   0.475447
 Sum of Mulliken charges =  -0.00000  -0.00000

 Dipole moment (field-independent basis, Debye):
    X=              0.0000    Y=             -0.0000    Z=              0.0000  Tot=              0.0000
 Quadrupole moment (field-independent basis, Debye-Ang):
   XX=            -13.0171   YY=            -12.9499   ZZ=            -13.0180
   XY=             -1.7255   XZ=              0.0000   YZ=              0.0000

 Normal termination of Gaussian 09 at Fri Feb 24 11:53:30 2017.
