 Gaussian 09, Revision E.01,
 Gaussian 09:  ES64L-G09RevE.01 30-Nov-2015

 ----------------------------------------------------------------------
 #uhf/gen scf(tight,novaracc,noincfock,fulldiag, ) stable(crhf) guess=(
 read,mix) geom=nocrowd test
 ----------------------------------------------------------------------

 hf stability analysis of h10 triangular lattice, y= 1.3135898396745678
  alpha= 71.500000000000000
 ----------------------------------------------------------------------
 Symbolic Z-matrix:
 Charge =  0 Multiplicity = 1

                         Standard orientation:
 ---------------------------------------------------------------------
 Center     Atomic      Atomic             Coordinates (Angstroms)
 Number     Number       Type             X           Y           Z
 ---------------------------------------------------------------------
      1          1           0        1.667233    2.905078    0.000000
      2          1           0        1.667233    1.519907    0.000000
      3          1           0        0.833616    1.798831    0.000000
      4          1           0        0.833616    0.413661    0.000000
      5          1           0        0.000000    0.692585    0.000000
      6          1           0       -0.000000   -0.692585    0.000000
      7          1           0       -0.833616   -0.413661    0.000000
      8          1           0       -0.833616   -1.798831    0.000000
      9          1           0       -1.667233   -1.519907    0.000000
     10          1           0       -1.667233   -2.905078    0.000000
 ---------------------------------------------------------------------

 SCF Done:  E(UHF) =  -4.93780911618     A.U. after   26 cycles
 E2 =    -0.5454211757D-01 EUMP2 =    -0.49923512337511D+01

 Unable to determine electronic state:  partially filled degenerate orbitals.
 Alpha  occ. eigenvalues --   -0.79169  -0.71092  -0.58940  -0.42750  -0.30418
 Alpha virt. eigenvalues --    0.11689   0.23733   0.25147   0.41174   0.60804
  Beta  occ. eigenvalues --   -0.79014  -0.71563  -0.58785  -0.43712  -0.29326
  Beta virt. eigenvalues --    0.11463   0.23255   0.23563   0.43247   0.60277

 Mulliken charges and spin densities:
               1          2
     1  H   -0.081517   0.878068
     2  H   -0.033446   0.333456
     3  H    0.092694  -0.244563
     4  H    0.031528  -0.373958
     5  H   -0.015046   0.398310
     6  H   -0.008481   0.114292
     7  H    0.043068  -0.141792
     8  H    0.086037   0.063481
     9  H   -0.030698  -0.123946
    10  H   -0.084139  -0.903349
 Sum of Mulliken charges =  -0.00000  -0.00000

 Dipole moment (field-independent basis, Debye):
    X=             -0.0205    Y=              0.0293    Z=             -0.0000  Tot=              0.0358
 Quadrupole moment (field-independent basis, Debye-Ang):
   XX=            -15.1599   YY=            -21.9939   ZZ=            -12.5947
   XY=             -6.6585   XZ=              0.0000   YZ=              0.0000

 Normal termination of Gaussian 09 at Tue Feb 28 16:10:17 2017.
