 Gaussian 09, Revision E.01,
 Gaussian 09:  ES64L-G09RevE.01 30-Nov-2015

 ----------------------------------------------------------------------
 #uhf/gen scf(tight,novaracc,noincfock,fulldiag, ) stable(crhf) guess=(
 read,mix) geom=nocrowd test
 ----------------------------------------------------------------------

 hf stability analysis of h10 triangular lattice, y= 0.9428899751596989
 7 alpha= 57.000000000000000
 ----------------------------------------------------------------------
 Symbolic Z-matrix:
 Charge =  0 Multiplicity = 1

                         Standard orientation:
 ---------------------------------------------------------------------
 Center     Atomic      Atomic             Coordinates (Angstroms)
 Number     Number       Type             X           Y           Z
 ---------------------------------------------------------------------
      1          1           0        2.054139    1.476695    0.000000
      2          1           0        2.054139    0.352428    0.000000
      3          1           0        1.027069    1.019414    0.000000
      4          1           0        1.027069   -0.104853    0.000000
      5          1           0        0.000000    0.562134    0.000000
      6          1           0       -0.000000   -0.562134    0.000000
      7          1           0       -1.027069    0.104853    0.000000
      8          1           0       -1.027069   -1.019414    0.000000
      9          1           0       -2.054139   -0.352428    0.000000
     10          1           0       -2.054139   -1.476695    0.000000
 ---------------------------------------------------------------------

 SCF Done:  E(UHF) =  -4.91655421373     A.U. after   24 cycles
 E2 =    -0.5826815467D-01 EUMP2 =    -0.49748223684065D+01

 Unable to determine electronic state:  partially filled degenerate orbitals.
 Alpha  occ. eigenvalues --   -0.85622  -0.74289  -0.56234  -0.39808  -0.36130
 Alpha virt. eigenvalues --    0.04615   0.22025   0.29823   0.55207   0.68498
  Beta  occ. eigenvalues --   -0.85622  -0.74289  -0.56234  -0.39808  -0.36130
  Beta virt. eigenvalues --    0.04615   0.22025   0.29823   0.55207   0.68498

 Mulliken charges and spin densities:
               1          2
     1  H    0.031479   0.572550
     2  H    0.004283  -0.490926
     3  H    0.039070  -0.455398
     4  H   -0.056584   0.434523
     5  H   -0.018248   0.243317
     6  H   -0.018248  -0.243317
     7  H   -0.056584  -0.434523
     8  H    0.039070   0.455398
     9  H    0.004283   0.490926
    10  H    0.031479  -0.572550
 Sum of Mulliken charges =   0.00000  -0.00000

 Dipole moment (field-independent basis, Debye):
    X=             -0.0000    Y=             -0.0000    Z=              0.0000  Tot=              0.0000
 Quadrupole moment (field-independent basis, Debye-Ang):
   XX=            -14.0385   YY=            -13.9593   ZZ=            -12.8691
   XY=              1.7203   XZ=             -0.0000   YZ=              0.0000

 Normal termination of Gaussian 09 at Tue Feb 28 16:07:05 2017.
