 Gaussian 09, Revision E.01,
 Gaussian 09:  ES64L-G09RevE.01 30-Nov-2015

 ----------------------------------------------------------------------
 #uhf/gen scf(tight,novaracc,noincfock,fulldiag, ) stable(crhf) guess=(
 read,mix) geom=nocrowd test
 ----------------------------------------------------------------------

 hf stability analysis of h10 triangular lattice, y= 0.6716215332591580
 8 alpha= 38.000000000000000
 ----------------------------------------------------------------------
 Symbolic Z-matrix:
 Charge =  0 Multiplicity = 1

                         Standard orientation:
 ---------------------------------------------------------------------
 Center     Atomic      Atomic             Coordinates (Angstroms)
 Number     Number       Type             X           Y           Z
 ---------------------------------------------------------------------
      1          1           0        2.116980    0.017625    0.000000
      2          1           0        2.116980   -1.073269    0.000000
      3          1           0        1.058490    0.281536    0.000000
      4          1           0        1.058490   -0.809358    0.000000
      5          1           0       -0.000000    0.545447   -0.000000
      6          1           0       -0.000000   -0.545447   -0.000000
      7          1           0       -1.058490    0.809358    0.000000
      8          1           0       -1.058490   -0.281536    0.000000
      9          1           0       -2.116980    1.073269    0.000000
     10          1           0       -2.116980   -0.017625    0.000000
 ---------------------------------------------------------------------

 SCF Done:  E(UHF) =  -4.83740723388     A.U. after   33 cycles
 E2 =    -0.8349363986D-01 EUMP2 =    -0.49209008737479D+01

 Unable to determine electronic state:  partially filled degenerate orbitals.
 Alpha  occ. eigenvalues --   -0.87649  -0.73492  -0.54583  -0.43649  -0.27194
 Alpha virt. eigenvalues --   -0.02725   0.18986   0.31169   0.53589   0.81619
  Beta  occ. eigenvalues --   -0.87149  -0.74098  -0.53611  -0.43901  -0.27275
  Beta virt. eigenvalues --   -0.04012   0.19914   0.32572   0.51549   0.82189

 Mulliken charges and spin densities:
               1          2
     1  H    0.280941   0.212066
     2  H   -0.250795  -0.001359
     3  H   -0.299346  -0.058353
     4  H    0.213086   0.112956
     5  H    0.071419   0.029566
     6  H   -0.033062   0.235900
     7  H   -0.207975  -0.021174
     8  H    0.171287  -0.351522
     9  H    0.215477  -0.185973
    10  H   -0.161032   0.027894
 Sum of Mulliken charges =   0.00000   0.00000

 Dipole moment (field-independent basis, Debye):
    X=             -0.4991    Y=              0.4415    Z=              0.0000  Tot=              0.6664
 Quadrupole moment (field-independent basis, Debye-Ang):
   XX=            -13.8566   YY=            -15.5382   ZZ=            -12.8660
   XY=              0.2601   XZ=             -0.0000   YZ=              0.0000

 Normal termination of Gaussian 09 at Tue Feb 28 16:02:58 2017.
