 Gaussian 09, Revision E.01,
 Gaussian 09:  ES64L-G09RevE.01 30-Nov-2015

 ----------------------------------------------------------------------
 #uhf/gen scf(tight,novaracc,noincfock,fulldiag, ) stable(crhf) guess=(
 read,mix) geom=nocrowd test
 ----------------------------------------------------------------------

 hf stability analysis of h10 triangular lattice, y= 1.0311871763068714
  alpha= 61.500000000000000
 ----------------------------------------------------------------------
 Symbolic Z-matrix:
 Charge =  0 Multiplicity = 1

                         Standard orientation:
 ---------------------------------------------------------------------
 Center     Atomic      Atomic             Coordinates (Angstroms)
 Number     Number       Type             X           Y           Z
 ---------------------------------------------------------------------
      1          1           0        1.968160    1.864828    0.000000
      2          1           0        1.968160    0.691448    0.000000
      3          1           0        0.984080    1.225759    0.000000
      4          1           0        0.984080    0.052379    0.000000
      5          1           0        0.000000    0.586690    0.000000
      6          1           0       -0.000000   -0.586690   -0.000000
      7          1           0       -0.984080   -0.052379    0.000000
      8          1           0       -0.984080   -1.225759   -0.000000
      9          1           0       -1.968160   -0.691448    0.000000
     10          1           0       -1.968160   -1.864828   -0.000000
 ---------------------------------------------------------------------

 SCF Done:  E(UHF) =  -4.87534985156     A.U. after   30 cycles
 E2 =    -0.8622599257D-01 EUMP2 =    -0.49615758441287D+01

 Unable to determine electronic state:  partially filled degenerate orbitals.
 Alpha  occ. eigenvalues --   -0.84090  -0.73515  -0.55687  -0.35773  -0.31195
 Alpha virt. eigenvalues --    0.03667   0.19138   0.25711   0.52642   0.57759
  Beta  occ. eigenvalues --   -0.84090  -0.73515  -0.55687  -0.35773  -0.31195
  Beta virt. eigenvalues --    0.03667   0.19138   0.25711   0.52642   0.57759

 Mulliken charges and spin densities:
               1          2
     1  H   -0.039519   0.399588
     2  H    0.061091  -0.144179
     3  H    0.107118  -0.004563
     4  H   -0.016833   0.334285
     5  H   -0.111856   0.073847
     6  H   -0.111856  -0.073847
     7  H   -0.016833  -0.334285
     8  H    0.107118   0.004563
     9  H    0.061091   0.144179
    10  H   -0.039519  -0.399588
 Sum of Mulliken charges =   0.00000  -0.00000

 Dipole moment (field-independent basis, Debye):
    X=              0.0000    Y=              0.0000    Z=              0.0000  Tot=              0.0000
 Quadrupole moment (field-independent basis, Debye-Ang):
   XX=            -13.7931   YY=            -14.5474   ZZ=            -12.9743
   XY=              0.1945   XZ=              0.0000   YZ=             -0.0000

 Normal termination of Gaussian 09 at Tue Feb 28 16:08:07 2017.
