 Gaussian 09, Revision E.01,
 Gaussian 09:  ES64L-G09RevE.01 30-Nov-2015

 ----------------------------------------------------------------------
 #uhf/gen scf(tight,novaracc,noincfock,fulldiag, ) stable(crhf) guess=(
 read,mix) geom=nocrowd test
 ----------------------------------------------------------------------

 hf stability analysis of h10 triangular lattice, y= 0.7401925230820305
 4 alpha= 43.500000000000000
 ----------------------------------------------------------------------
 Symbolic Z-matrix:
 Charge =  0 Multiplicity = 1

                         Standard orientation:
 ---------------------------------------------------------------------
 Center     Atomic      Atomic             Coordinates (Angstroms)
 Number     Number       Type             X           Y           Z
 ---------------------------------------------------------------------
      1          1           0        2.147667    0.425099    0.000000
      2          1           0        2.147667   -0.650208    0.000000
      3          1           0        1.073833    0.481376    0.000000
      4          1           0        1.073833   -0.593931    0.000000
      5          1           0       -0.000000    0.537654    0.000000
      6          1           0       -0.000000   -0.537654    0.000000
      7          1           0       -1.073833    0.593931    0.000000
      8          1           0       -1.073833   -0.481376    0.000000
      9          1           0       -2.147667    0.650208    0.000000
     10          1           0       -2.147667   -0.425099    0.000000
 ---------------------------------------------------------------------

 SCF Done:  E(UHF) =  -4.83319655742     A.U. after   36 cycles
 E2 =    -0.8420117684D-01 EUMP2 =    -0.49173977342643D+01

 Unable to determine electronic state:  partially filled degenerate orbitals.
 Alpha  occ. eigenvalues --   -0.87621  -0.73500  -0.54104  -0.43927  -0.26783
 Alpha virt. eigenvalues --   -0.03724   0.19075   0.34073   0.51931   0.90953
  Beta  occ. eigenvalues --   -0.87519  -0.73575  -0.53909  -0.43995  -0.26930
  Beta virt. eigenvalues --   -0.03919   0.19288   0.34399   0.51601   0.91000

 Mulliken charges and spin densities:
               1          2
     1  H    0.269572   0.190145
     2  H   -0.234389  -0.061006
     3  H   -0.295972   0.033610
     4  H    0.214914   0.213118
     5  H    0.119794   0.004074
     6  H   -0.044907   0.040267
     7  H   -0.268699  -0.049440
     8  H    0.197553  -0.250545
     9  H    0.243130  -0.180119
    10  H   -0.200995   0.059897
 Sum of Mulliken charges =  -0.00000   0.00000

 Dipole moment (field-independent basis, Debye):
    X=             -0.1228    Y=              0.3567    Z=              0.0000  Tot=              0.3773
 Quadrupole moment (field-independent basis, Debye-Ang):
   XX=            -15.0261   YY=            -14.5772   ZZ=            -12.8195
   XY=              0.2593   XZ=              0.0000   YZ=              0.0000

 Normal termination of Gaussian 09 at Tue Feb 28 16:04:11 2017.
