 Gaussian 09, Revision E.01,
 Gaussian 09:  ES64L-G09RevE.01 30-Nov-2015

 ----------------------------------------------------------------------
 #uhf/gen scf(tight,novaracc,noincfock,fulldiag, ) stable(crhf) guess=(
 read,mix) geom=nocrowd test
 ----------------------------------------------------------------------

 hf stability analysis of h10 triangular lattice, y= 0.6595943070875844
 9 alpha= 37.000000000000000
 ----------------------------------------------------------------------
 Symbolic Z-matrix:
 Charge =  0 Multiplicity = 1

                         Standard orientation:
 ---------------------------------------------------------------------
 Center     Atomic      Atomic             Coordinates (Angstroms)
 Number     Number       Type             X           Y           Z
 ---------------------------------------------------------------------
      1          1           0        2.107102   -0.056198    0.000000
      2          1           0        2.107102   -1.152206    0.000000
      3          1           0        1.053551    0.245903    0.000000
      4          1           0        1.053551   -0.850105    0.000000
      5          1           0        0.000000    0.548004    0.000000
      6          1           0       -0.000000   -0.548004    0.000000
      7          1           0       -1.053551    0.850105    0.000000
      8          1           0       -1.053551   -0.245903    0.000000
      9          1           0       -2.107102    1.152206    0.000000
     10          1           0       -2.107102    0.056198    0.000000
 ---------------------------------------------------------------------

 SCF Done:  E(UHF) =  -4.83664781626     A.U. after   37 cycles
 E2 =    -0.8452588107D-01 EUMP2 =    -0.49211736973300D+01

 Unable to determine electronic state:  partially filled degenerate orbitals.
 Alpha  occ. eigenvalues --   -0.87591  -0.73538  -0.54620  -0.43634  -0.27479
 Alpha virt. eigenvalues --   -0.02367   0.18899   0.30487   0.54086   0.78924
  Beta  occ. eigenvalues --   -0.86973  -0.74195  -0.53682  -0.43929  -0.27183
  Beta virt. eigenvalues --   -0.04041   0.20096   0.31927   0.51688   0.79599

 Mulliken charges and spin densities:
               1          2
     1  H    0.260674   0.224124
     2  H   -0.227861   0.003275
     3  H   -0.282726  -0.089133
     4  H    0.195070   0.085748
     5  H    0.051746   0.021342
     6  H   -0.023970   0.282034
     7  H   -0.190666   0.020768
     8  H    0.161463  -0.374429
     9  H    0.216720  -0.224714
    10  H   -0.160452   0.050985
 Sum of Mulliken charges =  -0.00000   0.00000

 Dipole moment (field-independent basis, Debye):
    X=             -0.5332    Y=              0.4464    Z=              0.0000  Tot=              0.6954
 Quadrupole moment (field-independent basis, Debye-Ang):
   XX=            -13.4286   YY=            -15.6974   ZZ=            -12.8795
   XY=             -0.2321   XZ=              0.0000   YZ=              0.0000

 Normal termination of Gaussian 09 at Tue Feb 28 16:02:44 2017.
