 Gaussian 09, Revision E.01,
 Gaussian 09:  ES64L-G09RevE.01 30-Nov-2015

 ----------------------------------------------------------------------
 #uhf/gen scf(tight,novaracc,noincfock,fulldiag, ) stable(crhf) guess=(
 read,mix) geom=nocrowd test
 ----------------------------------------------------------------------

 hf stability analysis of h10 triangular lattice, y= 0.6476646814092581
 5 alpha= 36.000000000000000
 ----------------------------------------------------------------------
 Symbolic Z-matrix:
 Charge =  0 Multiplicity = 1

                         Standard orientation:
 ---------------------------------------------------------------------
 Center     Atomic      Atomic             Coordinates (Angstroms)
 Number     Number       Type             X           Y           Z
 ---------------------------------------------------------------------
      1          1           0        2.095887   -0.130058    0.000000
      2          1           0        2.095887   -1.231931    0.000000
      3          1           0        1.047943    0.210439    0.000000
      4          1           0        1.047943   -0.891434    0.000000
      5          1           0       -0.000000    0.550936    0.000000
      6          1           0       -0.000000   -0.550936    0.000000
      7          1           0       -1.047943    0.891434    0.000000
      8          1           0       -1.047943   -0.210439    0.000000
      9          1           0       -2.095887    1.231931    0.000000
     10          1           0       -2.095887    0.130058    0.000000
 ---------------------------------------------------------------------

 SCF Done:  E(UHF) =  -4.83395106115     A.U. after   64 cycles
 E2 =    -0.8705570861D-01 EUMP2 =    -0.49210067697531D+01

 Unable to determine electronic state:  partially filled degenerate orbitals.
 Alpha  occ. eigenvalues --   -0.87519  -0.73716  -0.54408  -0.43719  -0.27934
 Alpha virt. eigenvalues --   -0.01920   0.18710   0.29821   0.54691   0.76015
  Beta  occ. eigenvalues --   -0.86638  -0.74144  -0.54045  -0.43954  -0.26899
  Beta virt. eigenvalues --   -0.04166   0.20334   0.31255   0.51960   0.76786

 Mulliken charges and spin densities:
               1          2
     1  H    0.215873   0.216754
     2  H   -0.178330  -0.033353
     3  H   -0.253069  -0.109269
     4  H    0.163636   0.080752
     5  H    0.028424  -0.023589
     6  H   -0.008639   0.320328
     7  H   -0.164320   0.119093
     8  H    0.138428  -0.391811
     9  H    0.217756  -0.295514
    10  H   -0.159759   0.116609
 Sum of Mulliken charges =   0.00000   0.00000

 Dipole moment (field-independent basis, Debye):
    X=             -0.5257    Y=              0.4072    Z=              0.0000  Tot=              0.6650
 Quadrupole moment (field-independent basis, Debye-Ang):
   XX=            -12.9248   YY=            -15.6907   ZZ=            -12.8943
   XY=             -1.1514   XZ=              0.0000   YZ=              0.0000

 Normal termination of Gaussian 09 at Tue Feb 28 16:02:31 2017.
