 Gaussian 09, Revision E.01,
 Gaussian 09:  ES64L-G09RevE.01 30-Nov-2015

 ----------------------------------------------------------------------
 #uhf/gen scf(tight,novaracc,noincfock,fulldiag, ) stable(crhf) guess=(
 read,mix) geom=nocrowd test
 ----------------------------------------------------------------------

 hf stability analysis of h10 triangular lattice, y= 0.7273541585154700
 3 alpha= 42.500000000000000
 ----------------------------------------------------------------------
 Symbolic Z-matrix:
 Charge =  0 Multiplicity = 1

                         Standard orientation:
 ---------------------------------------------------------------------
 Center     Atomic      Atomic             Coordinates (Angstroms)
 Number     Number       Type             X           Y           Z
 ---------------------------------------------------------------------
      1          1           0        2.145047    0.350643    0.000000
      2          1           0        2.145047   -0.725977    0.000000
      3          1           0        1.072523    0.444477    0.000000
      4          1           0        1.072523   -0.632144    0.000000
      5          1           0       -0.000000    0.538310   -0.000000
      6          1           0       -0.000000   -0.538310    0.000000
      7          1           0       -1.072523    0.632144    0.000000
      8          1           0       -1.072523   -0.444477    0.000000
      9          1           0       -2.145047    0.725977    0.000000
     10          1           0       -2.145047   -0.350643    0.000000
 ---------------------------------------------------------------------

 SCF Done:  E(UHF) =  -4.83385786590     A.U. after   33 cycles
 E2 =    -0.8404044119D-01 EUMP2 =    -0.49178983070936D+01

 Unable to determine electronic state:  partially filled degenerate orbitals.
 Alpha  occ. eigenvalues --   -0.87645  -0.73492  -0.54173  -0.43878  -0.26776
 Alpha virt. eigenvalues --   -0.03625   0.19034   0.33741   0.52117   0.90098
  Beta  occ. eigenvalues --   -0.87477  -0.73631  -0.53843  -0.43983  -0.27004
  Beta virt. eigenvalues --   -0.03961   0.19376   0.34290   0.51540   0.90196

 Mulliken charges and spin densities:
               1          2
     1  H    0.277745   0.189498
     2  H   -0.244693  -0.052796
     3  H   -0.302996   0.025090
     4  H    0.220244   0.199787
     5  H    0.116499   0.007718
     6  H   -0.044971   0.068633
     7  H   -0.258786  -0.052249
     8  H    0.192464  -0.264231
     9  H    0.235064  -0.172594
    10  H   -0.190570   0.051145
 Sum of Mulliken charges =  -0.00000  -0.00000

 Dipole moment (field-independent basis, Debye):
    X=             -0.2025    Y=              0.3669    Z=              0.0000  Tot=              0.4191
 Quadrupole moment (field-independent basis, Debye-Ang):
   XX=            -14.9346   YY=            -14.6752   ZZ=            -12.8240
   XY=              0.4110   XZ=             -0.0000   YZ=              0.0000

 Normal termination of Gaussian 09 at Tue Feb 28 16:03:57 2017.
