 Gaussian 09, Revision E.01,
 Gaussian 09:  ES64L-G09RevE.01 30-Nov-2015

 ----------------------------------------------------------------------
 #uhf/gen scf(tight,novaracc,noincfock,fulldiag, ) stable(crhf) guess=(
 read,mix) geom=nocrowd test
 ----------------------------------------------------------------------

 hf stability analysis of h10 triangular lattice, y= 1.2106565115415191
  alpha= 68.500000000000000
 ----------------------------------------------------------------------
 Symbolic Z-matrix:
 Charge =  0 Multiplicity = 1

                         Standard orientation:
 ---------------------------------------------------------------------
 Center     Atomic      Atomic             Coordinates (Angstroms)
 Number     Number       Type             X           Y           Z
 ---------------------------------------------------------------------
      1          1           0        1.774828    2.553869   -0.000000
      2          1           0        1.774828    1.252672   -0.000000
      3          1           0        0.887414    1.602234   -0.000000
      4          1           0        0.887414    0.301037   -0.000000
      5          1           0        0.000000    0.650598   -0.000000
      6          1           0       -0.000000   -0.650598   -0.000000
      7          1           0       -0.887414   -0.301037    0.000000
      8          1           0       -0.887414   -1.602234   -0.000000
      9          1           0       -1.774828   -1.252672    0.000000
     10          1           0       -1.774828   -2.553869   -0.000000
 ---------------------------------------------------------------------

 SCF Done:  E(UHF) =  -4.83794697145     A.U. after   23 cycles
 E2 =    -0.3851832758D-01 EUMP2 =    -0.48764652990275D+01

 Unable to determine electronic state:  partially filled degenerate orbitals.
 Alpha  occ. eigenvalues --   -0.81348  -0.71918  -0.59239  -0.40835  -0.30586
 Alpha virt. eigenvalues --    0.10465   0.20335   0.28342   0.39339   0.59850
  Beta  occ. eigenvalues --   -0.81742  -0.72957  -0.58140  -0.41980  -0.27104
  Beta virt. eigenvalues --    0.10119   0.15662   0.26204   0.42682   0.59702

 Mulliken charges and spin densities:
               1          2
     1  H   -0.070671   0.757951
     2  H   -0.020462   0.486079
     3  H    0.110439  -0.321884
     4  H   -0.005146  -0.513028
     5  H   -0.062411   0.526582
     6  H    0.041261   0.594115
     7  H   -0.012937  -0.647424
     8  H   -0.042256  -0.536611
     9  H    0.090509   0.524306
    10  H   -0.028327  -0.870085
 Sum of Mulliken charges =   0.00000   0.00000

 Dipole moment (field-independent basis, Debye):
    X=             -0.6229    Y=             -0.3247    Z=              0.0000  Tot=              0.7025
 Quadrupole moment (field-independent basis, Debye-Ang):
   XX=            -14.3341   YY=            -17.8130   ZZ=            -12.7117
   XY=             -2.6322   XZ=             -0.0000   YZ=             -0.0000

 Normal termination of Gaussian 09 at Tue Feb 28 16:09:38 2017.
