 Gaussian 09, Revision E.01,
 Gaussian 09:  ES64L-G09RevE.01 30-Nov-2015

 ----------------------------------------------------------------------
 #uhf/gen scf(tight,novaracc,noincfock,fulldiag, ) stable(crhf) guess=(
 read,mix) geom=nocrowd test
 ----------------------------------------------------------------------

 hf stability analysis of h10 triangular lattice, y= 0.6898774187181774
 3 alpha= 39.500000000000000
 ----------------------------------------------------------------------
 Symbolic Z-matrix:
 Charge =  0 Multiplicity = 1

                         Standard orientation:
 ---------------------------------------------------------------------
 Center     Atomic      Atomic             Coordinates (Angstroms)
 Number     Number       Type             X           Y           Z
 ---------------------------------------------------------------------
      1          1           0        2.129305    0.128395   -0.000000
      2          1           0        2.129305   -0.956185   -0.000000
      3          1           0        1.064653    0.335342   -0.000000
      4          1           0        1.064653   -0.749237   -0.000000
      5          1           0       -0.000000    0.542290   -0.000000
      6          1           0       -0.000000   -0.542290   -0.000000
      7          1           0       -1.064653    0.749237   -0.000000
      8          1           0       -1.064653   -0.335342   -0.000000
      9          1           0       -2.129305    0.956185   -0.000000
     10          1           0       -2.129305   -0.128395   -0.000000
 ---------------------------------------------------------------------

 SCF Done:  E(UHF) =  -4.83673851533     A.U. after   31 cycles
 E2 =    -0.8330139452D-01 EUMP2 =    -0.49200399098471D+01

 Unable to determine electronic state:  partially filled degenerate orbitals.
 Alpha  occ. eigenvalues --   -0.87678  -0.73482  -0.54438  -0.43716  -0.26943
 Alpha virt. eigenvalues --   -0.03132   0.19008   0.32171   0.52975   0.85192
  Beta  occ. eigenvalues --   -0.87305  -0.73915  -0.53656  -0.43903  -0.27237
  Beta virt. eigenvalues --   -0.04013   0.19699   0.33363   0.51473   0.85575

 Mulliken charges and spin densities:
               1          2
     1  H    0.290435   0.196796
     2  H   -0.261282  -0.018748
     3  H   -0.309898  -0.019970
     4  H    0.224837   0.149277
     5  H    0.093322   0.024076
     6  H   -0.040784   0.171064
     7  H   -0.227388  -0.045971
     8  H    0.179357  -0.317373
     9  H    0.217937  -0.163514
    10  H   -0.166535   0.024363
 Sum of Mulliken charges =  -0.00000   0.00000

 Dipole moment (field-independent basis, Debye):
    X=             -0.4169    Y=              0.4166    Z=              0.0000  Tot=              0.5894
 Quadrupole moment (field-independent basis, Debye-Ang):
   XX=            -14.3520   YY=            -15.2136   ZZ=            -12.8485
   XY=              0.5590   XZ=              0.0000   YZ=             -0.0000

 Normal termination of Gaussian 09 at Tue Feb 28 16:03:18 2017.
