 Gaussian 09, Revision E.01,
 Gaussian 09:  ES64L-G09RevE.01 30-Nov-2015

 ----------------------------------------------------------------------
 #uhf/gen scf(tight,novaracc,noincfock,fulldiag, ) stable(crhf) guess=(
 read,mix) geom=nocrowd test
 ----------------------------------------------------------------------

 hf stability analysis of h10 triangular lattice, y= 0.6536181925990977
 0 alpha= 36.500000000000000
 ----------------------------------------------------------------------
 Symbolic Z-matrix:
 Charge =  0 Multiplicity = 1

                         Standard orientation:
 ---------------------------------------------------------------------
 Center     Atomic      Atomic             Coordinates (Angstroms)
 Number     Number       Type             X           Y           Z
 ---------------------------------------------------------------------
      1          1           0        2.101662   -0.093120    0.000000
      2          1           0        2.101662   -1.191965    0.000000
      3          1           0        1.050831    0.228151    0.000000
      4          1           0        1.050831   -0.870694    0.000000
      5          1           0        0.000000    0.549423    0.000000
      6          1           0       -0.000000   -0.549423    0.000000
      7          1           0       -1.050831    0.870694    0.000000
      8          1           0       -1.050831   -0.228151    0.000000
      9          1           0       -2.101662    1.191965    0.000000
     10          1           0       -2.101662    0.093120    0.000000
 ---------------------------------------------------------------------

 SCF Done:  E(UHF) =  -4.83561715254     A.U. after   51 cycles
 E2 =    -0.8557223999D-01 EUMP2 =    -0.49211893925272D+01

 Unable to determine electronic state:  partially filled degenerate orbitals.
 Alpha  occ. eigenvalues --   -0.87551  -0.73598  -0.54571  -0.43654  -0.27678
 Alpha virt. eigenvalues --   -0.02157   0.18813   0.30154   0.54371   0.77499
  Beta  occ. eigenvalues --   -0.86837  -0.74204  -0.53803  -0.43946  -0.27068
  Beta virt. eigenvalues --   -0.04085   0.20205   0.31581   0.51802   0.78214

 Mulliken charges and spin densities:
               1          2
     1  H    0.242717   0.226197
     2  H   -0.207762  -0.004829
     3  H   -0.270029  -0.102925
     4  H    0.181454   0.076559
     5  H    0.040435   0.006337
     6  H   -0.017447   0.303343
     7  H   -0.179289   0.059191
     8  H    0.152763  -0.384188
     9  H    0.217787  -0.255509
    10  H   -0.160629   0.075825
 Sum of Mulliken charges =   0.00000   0.00000

 Dipole moment (field-independent basis, Debye):
    X=             -0.5373    Y=              0.4367    Z=              0.0000  Tot=              0.6924
 Quadrupole moment (field-independent basis, Debye-Ang):
   XX=            -13.1824   YY=            -15.7264   ZZ=            -12.8869
   XY=             -0.6236   XZ=             -0.0000   YZ=              0.0000

 Normal termination of Gaussian 09 at Tue Feb 28 16:02:38 2017.
