 Gaussian 09, Revision E.01,
 Gaussian 09:  ES64L-G09RevE.01 30-Nov-2015

 ----------------------------------------------------------------------
 #uhf/gen scf(tight,novaracc,noincfock,fulldiag, ) stable(crhf) guess=(
 read,mix) geom=nocrowd test
 ----------------------------------------------------------------------

 hf stability analysis of h10 triangular lattice, y= 0.6064756379129316
 9 alpha= 32.500000000000000
 ----------------------------------------------------------------------
 Symbolic Z-matrix:
 Charge =  0 Multiplicity = 1

                         Standard orientation:
 ---------------------------------------------------------------------
 Center     Atomic      Atomic             Coordinates (Angstroms)
 Number     Number       Type             X           Y           Z
 ---------------------------------------------------------------------
      1          1           0        2.045985   -0.389685   -0.000000
      2          1           0        2.045985   -1.518432   -0.000000
      3          1           0        1.022993    0.087344    0.000000
      4          1           0        1.022993   -1.041403   -0.000000
      5          1           0        0.000000    0.564374    0.000000
      6          1           0       -0.000000   -0.564374    0.000000
      7          1           0       -1.022993    1.041403   -0.000000
      8          1           0       -1.022993   -0.087344    0.000000
      9          1           0       -2.045985    1.518432   -0.000000
     10          1           0       -2.045985    0.389685   -0.000000
 ---------------------------------------------------------------------

 SCF Done:  E(UHF) =  -4.87556595825     A.U. after   30 cycles
 E2 =    -0.8837254430D-01 EUMP2 =    -0.49639385025443D+01

 Unable to determine electronic state:  partially filled degenerate orbitals.
 Alpha  occ. eigenvalues --   -0.86544  -0.73035  -0.54981  -0.39507  -0.30134
 Alpha virt. eigenvalues --    0.01396   0.22912   0.25366   0.54167   0.66034
  Beta  occ. eigenvalues --   -0.86544  -0.73035  -0.54981  -0.39507  -0.30134
  Beta virt. eigenvalues --    0.01396   0.22912   0.25366   0.54167   0.66034

 Mulliken charges and spin densities:
               1          2
     1  H    0.118403   0.144272
     2  H   -0.099877   0.024005
     3  H   -0.103779   0.269125
     4  H    0.074576   0.203187
     5  H    0.010676  -0.087954
     6  H    0.010676   0.087954
     7  H    0.074576  -0.203187
     8  H   -0.103779  -0.269125
     9  H   -0.099877  -0.024005
    10  H    0.118403  -0.144272
 Sum of Mulliken charges =  -0.00000   0.00000

 Dipole moment (field-independent basis, Debye):
    X=             -0.0000    Y=              0.0000    Z=              0.0000  Tot=              0.0000
 Quadrupole moment (field-independent basis, Debye-Ang):
   XX=            -15.6051   YY=            -15.5046   ZZ=            -12.8859
   XY=              2.2664   XZ=             -0.0000   YZ=              0.0000

 Normal termination of Gaussian 09 at Tue Feb 28 16:01:45 2017.
