 Gaussian 09, Revision E.01,
 Gaussian 09:  ES64L-G09RevE.01 30-Nov-2015

 ----------------------------------------------------------------------
 #uhf/gen scf(tight,novaracc,noincfock,fulldiag, ) stable(crhf) guess=(
 read,mix) geom=nocrowd test
 ----------------------------------------------------------------------

 hf stability analysis of h10 triangular lattice, y= 0.6655948165158517
 3 alpha= 37.500000000000000
 ----------------------------------------------------------------------
 Symbolic Z-matrix:
 Charge =  0 Multiplicity = 1

                         Standard orientation:
 ---------------------------------------------------------------------
 Center     Atomic      Atomic             Coordinates (Angstroms)
 Number     Number       Type             X           Y           Z
 ---------------------------------------------------------------------
      1          1           0        2.112207   -0.019285    0.000000
      2          1           0        2.112207   -1.112644    0.000000
      3          1           0        1.056104    0.263697    0.000000
      4          1           0        1.056104   -0.829662    0.000000
      5          1           0        0.000000    0.546680    0.000000
      6          1           0       -0.000000   -0.546680    0.000000
      7          1           0       -1.056104    0.829662    0.000000
      8          1           0       -1.056104   -0.263697    0.000000
      9          1           0       -2.112207    1.112644    0.000000
     10          1           0       -2.112207    0.019285    0.000000
 ---------------------------------------------------------------------

 SCF Done:  E(UHF) =  -4.83720358620     A.U. after   36 cycles
 E2 =    -0.8386958083D-01 EUMP2 =    -0.49210731670336D+01

 Unable to determine electronic state:  partially filled degenerate orbitals.
 Alpha  occ. eigenvalues --   -0.87624  -0.73507  -0.54615  -0.43636  -0.27321
 Alpha virt. eigenvalues --   -0.02556   0.18955   0.30826   0.53827   0.80299
  Beta  occ. eigenvalues --   -0.87073  -0.74154  -0.53628  -0.43912  -0.27247
  Beta virt. eigenvalues --   -0.04020   0.20000   0.32260   0.51606   0.80925

 Mulliken charges and spin densities:
               1          2
     1  H    0.272820   0.218431
     2  H   -0.241588   0.002721
     3  H   -0.292277  -0.073566
     4  H    0.205394   0.099073
     5  H    0.062111   0.027780
     6  H   -0.029038   0.259058
     7  H   -0.199986  -0.004339
     8  H    0.167195  -0.363261
     9  H    0.215830  -0.202083
    10  H   -0.160461   0.036185
 Sum of Mulliken charges =  -0.00000  -0.00000

 Dipole moment (field-independent basis, Debye):
    X=             -0.5193    Y=              0.4464    Z=              0.0000  Tot=              0.6847
 Quadrupole moment (field-independent basis, Debye-Ang):
   XX=            -13.6534   YY=            -15.6293   ZZ=            -12.8726
   XY=              0.0539   XZ=              0.0000   YZ=              0.0000

 Normal termination of Gaussian 09 at Tue Feb 28 16:02:51 2017.
