 Gaussian 09, Revision E.01,
 Gaussian 09:  ES64L-G09RevE.01 30-Nov-2015

 ----------------------------------------------------------------------
 #uhf/gen scf(tight,novaracc,noincfock,fulldiag, ) stable(crhf) guess=(
 read,mix) geom=nocrowd test
 ----------------------------------------------------------------------

 hf stability analysis of h10 triangular lattice, y= 1.0205721581109972
  alpha= 61.000000000000000
 ----------------------------------------------------------------------
 Symbolic Z-matrix:
 Charge =  0 Multiplicity = 1

                         Standard orientation:
 ---------------------------------------------------------------------
 Center     Atomic      Atomic             Coordinates (Angstroms)
 Number     Number       Type             X           Y           Z
 ---------------------------------------------------------------------
      1          1           0        1.979133    1.820137   -0.000000
      2          1           0        1.979133    0.653262   -0.000000
      3          1           0        0.989566    1.201787   -0.000000
      4          1           0        0.989566    0.034912   -0.000000
      5          1           0        0.000000    0.583438    0.000000
      6          1           0       -0.000000   -0.583438   -0.000000
      7          1           0       -0.989566   -0.034912   -0.000000
      8          1           0       -0.989566   -1.201787   -0.000000
      9          1           0       -1.979133   -0.653262   -0.000000
     10          1           0       -1.979133   -1.820137   -0.000000
 ---------------------------------------------------------------------

 SCF Done:  E(UHF) =  -4.87761977690     A.U. after   39 cycles
 E2 =    -0.8502286382D-01 EUMP2 =    -0.49626426407194D+01

 Unable to determine electronic state:  partially filled degenerate orbitals.
 Alpha  occ. eigenvalues --   -0.84907  -0.73070  -0.55410  -0.36568  -0.31153
 Alpha virt. eigenvalues --    0.03677   0.20236   0.24939   0.53736   0.57366
  Beta  occ. eigenvalues --   -0.84907  -0.73070  -0.55410  -0.36568  -0.31153
  Beta virt. eigenvalues --    0.03677   0.20236   0.24939   0.53736   0.57366

 Mulliken charges and spin densities:
               1          2
     1  H   -0.060396   0.294595
     2  H    0.077050  -0.033083
     3  H    0.098023   0.108398
     4  H   -0.032685   0.338195
     5  H   -0.081991   0.076074
     6  H   -0.081991  -0.076074
     7  H   -0.032685  -0.338195
     8  H    0.098023  -0.108398
     9  H    0.077050   0.033083
    10  H   -0.060396  -0.294595
 Sum of Mulliken charges =  -0.00000   0.00000

 Dipole moment (field-independent basis, Debye):
    X=              0.0000    Y=              0.0000    Z=             -0.0000  Tot=              0.0000
 Quadrupole moment (field-independent basis, Debye-Ang):
   XX=            -14.3316   YY=            -15.1123   ZZ=            -12.9548
   XY=             -0.7354   XZ=             -0.0000   YZ=             -0.0000

 Normal termination of Gaussian 09 at Tue Feb 28 16:08:00 2017.
