 Gaussian 09, Revision E.01,
 Gaussian 09:  ES64L-G09RevE.01 30-Nov-2015

 ----------------------------------------------------------------------
 #uhf/gen scf(tight,novaracc,noincfock,fulldiag, ) stable(crhf) guess=(
 read,mix) geom=nocrowd test
 ----------------------------------------------------------------------

 hf stability analysis of h10 triangular lattice, y= 0.4458672966047664
 3 alpha= 19.000000000000000
 ----------------------------------------------------------------------
 Symbolic Z-matrix:
 Charge =  0 Multiplicity = 1

                         Standard orientation:
 ---------------------------------------------------------------------
 Center     Atomic      Atomic             Coordinates (Angstroms)
 Number     Number       Type             X           Y           Z
 ---------------------------------------------------------------------
      1          1           0        1.686303   -1.473617    0.000000
      2          1           0        1.686303   -2.843122    0.000000
      3          1           0        0.843152   -0.394432    0.000000
      4          1           0        0.843152   -1.763937    0.000000
      5          1           0       -0.000000    0.684753    0.000000
      6          1           0       -0.000000   -0.684753   -0.000000
      7          1           0       -0.843152    1.763937    0.000000
      8          1           0       -0.843152    0.394432   -0.000000
      9          1           0       -1.686303    2.843122    0.000000
     10          1           0       -1.686303    1.473617    0.000000
 ---------------------------------------------------------------------

 SCF Done:  E(UHF) =  -4.91428549651     A.U. after   25 cycles
 E2 =    -0.4904800633D-01 EUMP2 =    -0.49633335028367D+01

 Unable to determine electronic state:  partially filled degenerate orbitals.
 Alpha  occ. eigenvalues --   -0.79804  -0.71215  -0.58925  -0.42362  -0.30654
 Alpha virt. eigenvalues --    0.11608   0.23137   0.26341   0.39810   0.60745
  Beta  occ. eigenvalues --   -0.79560  -0.72024  -0.58781  -0.43915  -0.28612
  Beta virt. eigenvalues --    0.11059   0.21998   0.23628   0.43516   0.59938

 Mulliken charges and spin densities:
               1          2
     1  H   -0.019118   0.010082
     2  H   -0.082850  -0.910798
     3  H    0.042017  -0.360264
     4  H    0.074037  -0.056910
     5  H   -0.021590   0.513010
     6  H   -0.001649   0.334158
     7  H    0.096431  -0.292273
     8  H    0.024712  -0.489745
     9  H   -0.081017   0.858242
    10  H   -0.030972   0.394500
 Sum of Mulliken charges =  -0.00000  -0.00000

 Dipole moment (field-independent basis, Debye):
    X=              0.0606    Y=              0.0325    Z=             -0.0000  Tot=              0.0687
 Quadrupole moment (field-independent basis, Debye-Ang):
   XX=            -15.2501   YY=            -21.4654   ZZ=            -12.5994
   XY=              6.2283   XZ=              0.0000   YZ=             -0.0000

 Normal termination of Gaussian 09 at Tue Feb 28 15:58:47 2017.
