 Gaussian 09, Revision E.01,
 Gaussian 09:  ES64L-G09RevE.01 30-Nov-2015

 ----------------------------------------------------------------------
 #uhf/gen scf(tight,novaracc,noincfock,fulldiag, ) stable(crhf) guess=(
 read,mix) geom=nocrowd test
 ----------------------------------------------------------------------

 hf stability analysis of h10 triangular lattice, y= 0.7337491795890599
 4 alpha= 43.000000000000000
 ----------------------------------------------------------------------
 Symbolic Z-matrix:
 Charge =  0 Multiplicity = 1

                         Standard orientation:
 ---------------------------------------------------------------------
 Center     Atomic      Atomic             Coordinates (Angstroms)
 Number     Number       Type             X           Y           Z
 ---------------------------------------------------------------------
      1          1           0        2.146521    0.387841    0.000000
      2          1           0        2.146521   -0.688040    0.000000
      3          1           0        1.073260    0.462891    0.000000
      4          1           0        1.073260   -0.612990    0.000000
      5          1           0       -0.000000    0.537941    0.000000
      6          1           0       -0.000000   -0.537941   -0.000000
      7          1           0       -1.073260    0.612990    0.000000
      8          1           0       -1.073260   -0.462891    0.000000
      9          1           0       -2.146521    0.688040    0.000000
     10          1           0       -2.146521   -0.387841    0.000000
 ---------------------------------------------------------------------

 SCF Done:  E(UHF) =  -4.83349150747     A.U. after   34 cycles
 E2 =    -0.8413154327D-01 EUMP2 =    -0.49176230507448D+01

 Unable to determine electronic state:  partially filled degenerate orbitals.
 Alpha  occ. eigenvalues --   -0.87633  -0.73496  -0.54138  -0.43904  -0.26776
 Alpha virt. eigenvalues --   -0.03677   0.19052   0.33920   0.52018   0.90577
  Beta  occ. eigenvalues --   -0.87498  -0.73601  -0.53876  -0.43991  -0.26966
  Beta virt. eigenvalues --   -0.03941   0.19331   0.34358   0.51568   0.90647

 Mulliken charges and spin densities:
               1          2
     1  H    0.273776   0.189880
     2  H   -0.239684  -0.057281
     3  H   -0.299684   0.029636
     4  H    0.217688   0.206584
     5  H    0.118375   0.005770
     6  H   -0.044967   0.054220
     7  H   -0.263761  -0.051022
     8  H    0.194944  -0.257213
     9  H    0.238999  -0.176430
    10  H   -0.195686   0.055856
 Sum of Mulliken charges =  -0.00000  -0.00000

 Dipole moment (field-independent basis, Debye):
    X=             -0.1630    Y=              0.3613    Z=              0.0000  Tot=              0.3963
 Quadrupole moment (field-independent basis, Debye-Ang):
   XX=            -14.9863   YY=            -14.6202   ZZ=            -12.8215
   XY=              0.3385   XZ=              0.0000   YZ=              0.0000

 Normal termination of Gaussian 09 at Tue Feb 28 16:04:04 2017.
