 Gaussian 09, Revision E.01,
 Gaussian 09:  ES64L-G09RevE.01 30-Nov-2015

 ----------------------------------------------------------------------
 #uhf/gen scf(tight,novaracc,noincfock,fulldiag, ) stable(crhf) guess=(
 read,mix) geom=nocrowd test
 ----------------------------------------------------------------------

 hf stability analysis of h10 triangular lattice, y= 0.6960275979088506
 0 alpha= 40.000000000000000
 ----------------------------------------------------------------------
 Symbolic Z-matrix:
 Charge =  0 Multiplicity = 1

                         Standard orientation:
 ---------------------------------------------------------------------
 Center     Atomic      Atomic             Coordinates (Angstroms)
 Number     Number       Type             X           Y           Z
 ---------------------------------------------------------------------
      1          1           0        2.132752    0.165352    0.000000
      2          1           0        2.132752   -0.917475    0.000000
      3          1           0        1.066376    0.353382    0.000000
      4          1           0        1.066376   -0.729444    0.000000
      5          1           0       -0.000000    0.541413    0.000000
      6          1           0       -0.000000   -0.541413    0.000000
      7          1           0       -1.066376    0.729444    0.000000
      8          1           0       -1.066376   -0.353382    0.000000
      9          1           0       -2.132752    0.917475    0.000000
     10          1           0       -2.132752   -0.165352    0.000000
 ---------------------------------------------------------------------

 SCF Done:  E(UHF) =  -4.83628351112     A.U. after   31 cycles
 E2 =    -0.8339640908D-01 EUMP2 =    -0.49196799201981D+01

 Unable to determine electronic state:  partially filled degenerate orbitals.
 Alpha  occ. eigenvalues --   -0.87678  -0.73483  -0.54387  -0.43742  -0.26890
 Alpha virt. eigenvalues --   -0.03240   0.19007   0.32483   0.52799   0.86234
  Beta  occ. eigenvalues --   -0.87341  -0.73857  -0.53684  -0.43914  -0.27204
  Beta virt. eigenvalues --   -0.04013   0.19637   0.33578   0.51469   0.86557

 Mulliken charges and spin densities:
               1          2
     1  H    0.290385   0.193608
     2  H   -0.260999  -0.024769
     3  H   -0.310801  -0.009809
     4  H    0.226021   0.159351
     5  H    0.098864   0.021093
     6  H   -0.042284   0.151586
     7  H   -0.232998  -0.049550
     8  H    0.181508  -0.307003
     9  H    0.219808  -0.161671
    10  H   -0.169505   0.027165
 Sum of Mulliken charges =  -0.00000   0.00000

 Dipole moment (field-independent basis, Debye):
    X=             -0.3848    Y=              0.4073    Z=              0.0000  Tot=              0.5603
 Quadrupole moment (field-independent basis, Debye-Ang):
   XX=            -14.4841   YY=            -15.1053   ZZ=            -12.8434
   XY=              0.5853   XZ=              0.0000   YZ=              0.0000

 Normal termination of Gaussian 09 at Tue Feb 28 16:03:25 2017.
