 Gaussian 09, Revision E.01,
 Gaussian 09:  ES64L-G09RevE.01 30-Nov-2015

 ----------------------------------------------------------------------
 #uhf/gen scf(tight,novaracc,noincfock,fulldiag, ) stable(crhf) guess=(
 read,mix) geom=nocrowd test
 ----------------------------------------------------------------------

 hf stability analysis of h10 triangular lattice, y= 0.9519760744589420
 6 alpha= 57.500000000000000
 ----------------------------------------------------------------------
 Symbolic Z-matrix:
 Charge =  0 Multiplicity = 1

                         Standard orientation:
 ---------------------------------------------------------------------
 Center     Atomic      Atomic             Coordinates (Angstroms)
 Number     Number       Type             X           Y           Z
 ---------------------------------------------------------------------
      1          1           0        2.045985    1.518432   -0.000000
      2          1           0        2.045985    0.389685   -0.000000
      3          1           0        1.022993    1.041403   -0.000000
      4          1           0        1.022993   -0.087344   -0.000000
      5          1           0        0.000000    0.564374   -0.000000
      6          1           0       -0.000000   -0.564374   -0.000000
      7          1           0       -1.022993    0.087344   -0.000000
      8          1           0       -1.022993   -1.041403   -0.000000
      9          1           0       -2.045985   -0.389685   -0.000000
     10          1           0       -2.045985   -1.518432   -0.000000
 ---------------------------------------------------------------------

 SCF Done:  E(UHF) =  -4.91288233208     A.U. after   25 cycles
 E2 =    -0.5968246141D-01 EUMP2 =    -0.49725647934845D+01

 Unable to determine electronic state:  partially filled degenerate orbitals.
 Alpha  occ. eigenvalues --   -0.85486  -0.74232  -0.56243  -0.39269  -0.35918
 Alpha virt. eigenvalues --    0.04495   0.21913   0.29419   0.55283   0.66909
  Beta  occ. eigenvalues --   -0.85486  -0.74232  -0.56243  -0.39269  -0.35918
  Beta virt. eigenvalues --    0.04495   0.21913   0.29419   0.55283   0.66909

 Mulliken charges and spin densities:
               1          2
     1  H    0.027174   0.567564
     2  H    0.007283  -0.481244
     3  H    0.044596  -0.443800
     4  H   -0.060001   0.416005
     5  H   -0.019051   0.223048
     6  H   -0.019051  -0.223048
     7  H   -0.060001  -0.416005
     8  H    0.044596   0.443800
     9  H    0.007283   0.481244
    10  H    0.027174  -0.567564
 Sum of Mulliken charges =   0.00000  -0.00000

 Dipole moment (field-independent basis, Debye):
    X=             -0.0000    Y=             -0.0000    Z=             -0.0000  Tot=              0.0000
 Quadrupole moment (field-independent basis, Debye-Ang):
   XX=            -14.0932   YY=            -13.9097   ZZ=            -12.8778
   XY=              1.6630   XZ=             -0.0000   YZ=              0.0000

 Normal termination of Gaussian 09 at Tue Feb 28 16:07:12 2017.
