 Gaussian 09, Revision E.01,
 Gaussian 09:  ES64L-G09RevE.01 30-Nov-2015

 ----------------------------------------------------------------------
 #uhf/gen scf(tight,novaracc,noincfock,fulldiag, ) stable(crhf) guess=(
 read,mix) geom=nocrowd test
 ----------------------------------------------------------------------

 hf stability analysis of h10 triangular lattice, y= 0.4646099728787273
 0 alpha= 20.500000000000000
 ----------------------------------------------------------------------
 Symbolic Z-matrix:
 Charge =  0 Multiplicity = 1

                         Standard orientation:
 ---------------------------------------------------------------------
 Center     Atomic      Atomic             Coordinates (Angstroms)
 Number     Number       Type             X           Y           Z
 ---------------------------------------------------------------------
      1          1           0        1.740749   -1.339167    0.000000
      2          1           0        1.740749   -2.665838    0.000000
      3          1           0        0.870374   -0.337916    0.000000
      4          1           0        0.870374   -1.664587    0.000000
      5          1           0       -0.000000    0.663335    0.000000
      6          1           0       -0.000000   -0.663335   -0.000000
      7          1           0       -0.870374    1.664587    0.000000
      8          1           0       -0.870374    0.337916    0.000000
      9          1           0       -1.740749    2.665838    0.000000
     10          1           0       -1.740749    1.339167    0.000000
 ---------------------------------------------------------------------

 SCF Done:  E(UHF) =  -4.85963547590     A.U. after   21 cycles
 E2 =    -0.3863838923D-01 EUMP2 =    -0.48982738651374D+01

 Unable to determine electronic state:  partially filled degenerate orbitals.
 Alpha  occ. eigenvalues --   -0.80997  -0.71625  -0.59085  -0.41797  -0.30861
 Alpha virt. eigenvalues --    0.11365   0.21201   0.28751   0.38464   0.60240
  Beta  occ. eigenvalues --   -0.80951  -0.72800  -0.58611  -0.43249  -0.27377
  Beta virt. eigenvalues --    0.10321   0.18155   0.25002   0.43275   0.59696

 Mulliken charges and spin densities:
               1          2
     1  H    0.052335   0.391676
     2  H   -0.058334  -0.909669
     3  H    0.004145  -0.614023
     4  H   -0.000967  -0.408159
     5  H   -0.039730   0.576372
     6  H    0.036986   0.585992
     7  H    0.104375  -0.339112
     8  H    0.000041  -0.560477
     9  H   -0.077126   0.802119
    10  H   -0.021725   0.475281
 Sum of Mulliken charges =  -0.00000   0.00000

 Dipole moment (field-independent basis, Debye):
    X=              0.3531    Y=             -0.1258    Z=             -0.0000  Tot=              0.3749
 Quadrupole moment (field-independent basis, Debye-Ang):
   XX=            -14.8517   YY=            -19.4521   ZZ=            -12.6441
   XY=              4.2647   XZ=              0.0000   YZ=             -0.0000

 Normal termination of Gaussian 09 at Tue Feb 28 15:59:06 2017.
