 Gaussian 09, Revision E.01,
 Gaussian 09:  ES64L-G09RevE.01 30-Nov-2015

 ----------------------------------------------------------------------
 #uhf/gen scf(tight,novaracc,noincfock,fulldiag, ) stable(crhf) guess=(
 read,mix) geom=nocrowd test
 ----------------------------------------------------------------------

 hf stability analysis of h10 triangular lattice, y= 0.4829747999860826
 7 alpha= 22.000000000000000
 ----------------------------------------------------------------------
 Symbolic Z-matrix:
 Charge =  0 Multiplicity = 1

                         Standard orientation:
 ---------------------------------------------------------------------
 Center     Atomic      Atomic             Coordinates (Angstroms)
 Number     Number       Type             X           Y           Z
 ---------------------------------------------------------------------
      1          1           0        1.791226   -1.210226   -0.000000
      2          1           0        1.791226   -2.499511   -0.000000
      3          1           0        0.895613   -0.282792   -0.000000
      4          1           0        0.895613   -1.572077   -0.000000
      5          1           0        0.000000    0.644643    0.000000
      6          1           0       -0.000000   -0.644643    0.000000
      7          1           0       -0.895613    1.572077   -0.000000
      8          1           0       -0.895613    0.282792   -0.000000
      9          1           0       -1.791226    2.499511   -0.000000
     10          1           0       -1.791226    1.210226   -0.000000
 ---------------------------------------------------------------------

 SCF Done:  E(UHF) =  -4.83170707292     A.U. after   25 cycles
 E2 =    -0.4143572787D-01 EUMP2 =    -0.48731428007923D+01

 Unable to determine electronic state:  partially filled degenerate orbitals.
 Alpha  occ. eigenvalues --   -0.81452  -0.72041  -0.59130  -0.39985  -0.30357
 Alpha virt. eigenvalues --    0.09702   0.19903   0.27741   0.39894   0.59647
  Beta  occ. eigenvalues --   -0.82105  -0.72930  -0.57782  -0.41124  -0.27057
  Beta virt. eigenvalues --    0.09991   0.14489   0.26725   0.42320   0.59658

 Mulliken charges and spin densities:
               1          2
     1  H    0.098680   0.540797
     2  H   -0.010973  -0.833794
     3  H   -0.014835  -0.637080
     4  H   -0.050878  -0.558447
     5  H   -0.076549   0.482436
     6  H    0.031078   0.559533
     7  H    0.114381  -0.293482
     8  H   -0.003141  -0.463852
     9  H   -0.067081   0.728313
    10  H   -0.020681   0.475577
 Sum of Mulliken charges =  -0.00000   0.00000

 Dipole moment (field-independent basis, Debye):
    X=              0.7485    Y=             -0.4369    Z=             -0.0000  Tot=              0.8667
 Quadrupole moment (field-independent basis, Debye-Ang):
   XX=            -14.0908   YY=            -16.9487   ZZ=            -12.7591
   XY=              1.8084   XZ=             -0.0000   YZ=              0.0000

 Normal termination of Gaussian 09 at Tue Feb 28 15:59:26 2017.
