 Gaussian 09, Revision E.01,
 Gaussian 09:  ES64L-G09RevE.01 30-Nov-2015

 ----------------------------------------------------------------------
 #uhf/gen scf(tight,novaracc,noincfock,fulldiag, ) stable(crhf) guess=(
 read,mix) geom=nocrowd test
 ----------------------------------------------------------------------

 hf stability analysis of h10 triangular lattice, y= 0.6776762931058321
 1 alpha= 38.500000000000000
 ----------------------------------------------------------------------
 Symbolic Z-matrix:
 Charge =  0 Multiplicity = 1

                         Standard orientation:
 ---------------------------------------------------------------------
 Center     Atomic      Atomic             Coordinates (Angstroms)
 Number     Number       Type             X           Y           Z
 ---------------------------------------------------------------------
      1          1           0        2.121420    0.054537    0.000000
      2          1           0        2.121420   -1.034074    0.000000
      3          1           0        1.060710    0.299421    0.000000
      4          1           0        1.060710   -0.789190    0.000000
      5          1           0       -0.000000    0.544305    0.000000
      6          1           0       -0.000000   -0.544305    0.000000
      7          1           0       -1.060710    0.789190    0.000000
      8          1           0       -1.060710   -0.299421    0.000000
      9          1           0       -2.121420    1.034074    0.000000
     10          1           0       -2.121420   -0.054537    0.000000
 ---------------------------------------------------------------------

 SCF Done:  E(UHF) =  -4.83735197594     A.U. after   33 cycles
 E2 =    -0.8331165902D-01 EUMP2 =    -0.49206636349606D+01

 Unable to determine electronic state:  partially filled degenerate orbitals.
 Alpha  occ. eigenvalues --   -0.87665  -0.73485  -0.54539  -0.43668  -0.27091
 Alpha virt. eigenvalues --   -0.02876   0.19002   0.31511   0.53368   0.82879
  Beta  occ. eigenvalues --   -0.87211  -0.74037  -0.53616  -0.43895  -0.27278
  Beta virt. eigenvalues --   -0.04011   0.19837   0.32860   0.51511   0.83388

 Mulliken charges and spin densities:
               1          2
     1  H    0.286141   0.206111
     2  H   -0.256660  -0.006803
     3  H   -0.304414  -0.044230
     4  H    0.218646   0.126130
     5  H    0.079679   0.028841
     6  H   -0.036269   0.213312
     7  H   -0.215040  -0.032670
     8  H    0.174440  -0.339770
     9  H    0.215728  -0.174902
    10  H   -0.162250   0.023981
 Sum of Mulliken charges =  -0.00000   0.00000

 Dipole moment (field-independent basis, Debye):
    X=             -0.4746    Y=              0.4343    Z=              0.0000  Tot=              0.6433
 Quadrupole moment (field-independent basis, Debye-Ang):
   XX=            -14.0396   YY=            -15.4343   ZZ=            -12.8598
   XY=              0.4048   XZ=              0.0000   YZ=              0.0000

 Normal termination of Gaussian 09 at Tue Feb 28 16:03:04 2017.
