 Gaussian 09, Revision E.01,
 Gaussian 09:  ES64L-G09RevE.01 30-Nov-2015

 ----------------------------------------------------------------------
 #uhf/gen scf(tight,novaracc,noincfock,fulldiag, ) stable(crhf) guess=(
 read,mix) geom=nocrowd test
 ----------------------------------------------------------------------

 hf stability analysis of h10 triangular lattice, y= 0.6181745873441064
 6 alpha= 33.500000000000000
 ----------------------------------------------------------------------
 Symbolic Z-matrix:
 Charge =  0 Multiplicity = 1

                         Standard orientation:
 ---------------------------------------------------------------------
 Center     Atomic      Atomic             Coordinates (Angstroms)
 Number     Number       Type             X           Y           Z
 ---------------------------------------------------------------------
      1          1           0        2.061948   -0.315240   -0.000000
      2          1           0        2.061948   -1.435250   -0.000000
      3          1           0        1.030974    0.122382   -0.000000
      4          1           0        1.030974   -0.997627   -0.000000
      5          1           0        0.000000    0.560005    0.000000
      6          1           0       -0.000000   -0.560005    0.000000
      7          1           0       -1.030974    0.997627   -0.000000
      8          1           0       -1.030974   -0.122382   -0.000000
      9          1           0       -2.061948    1.435250   -0.000000
     10          1           0       -2.061948    0.315240   -0.000000
 ---------------------------------------------------------------------

 SCF Done:  E(UHF) =  -4.87279855452     A.U. after   30 cycles
 E2 =    -0.8925351751D-01 EUMP2 =    -0.49620520720208D+01

 Unable to determine electronic state:  partially filled degenerate orbitals.
 Alpha  occ. eigenvalues --   -0.86772  -0.73056  -0.54900  -0.40132  -0.29876
 Alpha virt. eigenvalues --    0.00865   0.22615   0.26477   0.53793   0.69286
  Beta  occ. eigenvalues --   -0.86772  -0.73056  -0.54900  -0.40132  -0.29876
  Beta virt. eigenvalues --    0.00865   0.22615   0.26477   0.53793   0.69286

 Mulliken charges and spin densities:
               1          2
     1  H    0.117377   0.140221
     2  H   -0.099917   0.019768
     3  H   -0.105716   0.262847
     4  H    0.069524   0.212030
     5  H    0.018732  -0.076509
     6  H    0.018732   0.076509
     7  H    0.069524  -0.212030
     8  H   -0.105716  -0.262847
     9  H   -0.099917  -0.019768
    10  H    0.117377  -0.140221
 Sum of Mulliken charges =  -0.00000   0.00000

 Dipole moment (field-independent basis, Debye):
    X=             -0.0000    Y=             -0.0000    Z=              0.0000  Tot=              0.0000
 Quadrupole moment (field-independent basis, Debye-Ang):
   XX=            -15.8573   YY=            -15.3122   ZZ=            -12.8688
   XY=              2.3337   XZ=              0.0000   YZ=             -0.0000

 Normal termination of Gaussian 09 at Tue Feb 28 16:01:58 2017.
