 Gaussian 09, Revision E.01,
 Gaussian 09:  ES64L-G09RevE.01 30-Nov-2015

 ----------------------------------------------------------------------
 #uhf/gen scf(tight,novaracc,noincfock,fulldiag, ) stable(crhf) guess=(
 read,mix) geom=nocrowd test
 ----------------------------------------------------------------------

 hf stability analysis of h10 triangular lattice, y= 0.6837609579800398
 9 alpha= 39.000000000000000
 ----------------------------------------------------------------------
 Symbolic Z-matrix:
 Charge =  0 Multiplicity = 1

                         Standard orientation:
 ---------------------------------------------------------------------
 Center     Atomic      Atomic             Coordinates (Angstroms)
 Number     Number       Type             X           Y           Z
 ---------------------------------------------------------------------
      1          1           0        2.125528    0.091458    0.000000
      2          1           0        2.125528   -0.995048    0.000000
      3          1           0        1.062764    0.317356    0.000000
      4          1           0        1.062764   -0.769151    0.000000
      5          1           0       -0.000000    0.543253    0.000000
      6          1           0       -0.000000   -0.543253    0.000000
      7          1           0       -1.062764    0.769151    0.000000
      8          1           0       -1.062764   -0.317356    0.000000
      9          1           0       -2.125528    0.995048    0.000000
     10          1           0       -2.125528   -0.091458    0.000000
 ---------------------------------------------------------------------

 SCF Done:  E(UHF) =  -4.83711001650     A.U. after   38 cycles
 E2 =    -0.8326228518D-01 EUMP2 =    -0.49203723016866D+01

 Unable to determine electronic state:  partially filled degenerate orbitals.
 Alpha  occ. eigenvalues --   -0.87674  -0.73482  -0.54489  -0.43691  -0.27009
 Alpha virt. eigenvalues --   -0.03012   0.19007   0.31846   0.53164   0.84072
  Beta  occ. eigenvalues --   -0.87262  -0.73975  -0.53633  -0.43897  -0.27263
  Beta virt. eigenvalues --   -0.04012   0.19765   0.33124   0.51486   0.84517

 Mulliken charges and spin densities:
               1          2
     1  H    0.289140   0.200972
     2  H   -0.259972  -0.012716
     3  H   -0.307840  -0.031426
     4  H    0.222461   0.138240
     5  H    0.086954   0.026789
     6  H   -0.038808   0.191651
     7  H   -0.221448  -0.040576
     8  H    0.177051  -0.328326
     9  H    0.216561  -0.167707
    10  H   -0.164099   0.023099
 Sum of Mulliken charges =  -0.00000  -0.00000

 Dipole moment (field-independent basis, Debye):
    X=             -0.4470    Y=              0.4257    Z=              0.0000  Tot=              0.6173
 Quadrupole moment (field-independent basis, Debye-Ang):
   XX=            -14.2043   YY=            -15.3245   ZZ=            -12.8540
   XY=              0.5013   XZ=              0.0000   YZ=              0.0000

 Normal termination of Gaussian 09 at Tue Feb 28 16:03:11 2017.
