 Gaussian 09, Revision E.01,
 Gaussian 09:  ES64L-G09RevE.01 30-Nov-2015

 ----------------------------------------------------------------------
 #uhf/gen scf(tight,novaracc,noincfock,fulldiag, ) stable(crhf) guess=(
 read,mix) geom=nocrowd test
 ----------------------------------------------------------------------

 hf stability analysis of h10 triangular lattice, y= 0.7022134528066417
 1 alpha= 40.500000000000000
 ----------------------------------------------------------------------
 Symbolic Z-matrix:
 Charge =  0 Multiplicity = 1

                         Standard orientation:
 ---------------------------------------------------------------------
 Center     Atomic      Atomic             Coordinates (Angstroms)
 Number     Number       Type             X           Y           Z
 ---------------------------------------------------------------------
      1          1           0        2.135869    0.202335   -0.000000
      2          1           0        2.135869   -0.878912    0.000000
      3          1           0        1.067935    0.371479   -0.000000
      4          1           0        1.067935   -0.709767    0.000000
      5          1           0       -0.000000    0.540623   -0.000000
      6          1           0       -0.000000   -0.540623   -0.000000
      7          1           0       -1.067935    0.709767    0.000000
      8          1           0       -1.067935   -0.371479   -0.000000
      9          1           0       -2.135869    0.878912    0.000000
     10          1           0       -2.135869   -0.202335    0.000000
 ---------------------------------------------------------------------

 SCF Done:  E(UHF) =  -4.83578253360     A.U. after   32 cycles
 E2 =    -0.8352284370D-01 EUMP2 =    -0.49193053773002D+01

 Unable to determine electronic state:  partially filled degenerate orbitals.
 Alpha  occ. eigenvalues --   -0.87676  -0.73484  -0.54339  -0.43769  -0.26849
 Alpha virt. eigenvalues --   -0.03336   0.19006   0.32777   0.52637   0.87191
  Beta  occ. eigenvalues --   -0.87374  -0.73803  -0.53713  -0.43928  -0.27166
  Beta virt. eigenvalues --   -0.04009   0.19579   0.33769   0.51472   0.87458

 Mulliken charges and spin densities:
               1          2
     1  H    0.289262   0.191368
     2  H   -0.259434  -0.030730
     3  H   -0.310719  -0.000851
     4  H    0.226216   0.168601
     5  H    0.103655   0.018070
     6  H   -0.043378   0.133183
     7  H   -0.238377  -0.051773
     8  H    0.183602  -0.297259
     9  H    0.222130  -0.161673
    10  H   -0.172957   0.031063
 Sum of Mulliken charges =   0.00000  -0.00000

 Dipole moment (field-independent basis, Debye):
    X=             -0.3509    Y=              0.3981    Z=             -0.0000  Tot=              0.5307
 Quadrupole moment (field-independent basis, Debye-Ang):
   XX=            -14.6013   YY=            -15.0022   ZZ=            -12.8387
   XY=              0.5859   XZ=             -0.0000   YZ=              0.0000

 Normal termination of Gaussian 09 at Tue Feb 28 16:03:31 2017.
