 Gaussian 09, Revision E.01,
 Gaussian 09:  ES64L-G09RevE.01 30-Nov-2015

 ----------------------------------------------------------------------
 #uhf/gen scf(tight,novaracc,noincfock,fulldiag, ) stable(crhf) guess=(
 read,mix) geom=nocrowd test
 ----------------------------------------------------------------------

 hf stability analysis of h10 triangular lattice, y= 0.7084369783301545
 1 alpha= 41.000000000000000
 ----------------------------------------------------------------------
 Symbolic Z-matrix:
 Charge =  0 Multiplicity = 1

                         Standard orientation:
 ---------------------------------------------------------------------
 Center     Atomic      Atomic             Coordinates (Angstroms)
 Number     Number       Type             X           Y           Z
 ---------------------------------------------------------------------
      1          1           0        2.138657    0.239350    0.000000
      2          1           0        2.138657   -0.840487    0.000000
      3          1           0        1.069328    0.389634    0.000000
      4          1           0        1.069328   -0.690203    0.000000
      5          1           0       -0.000000    0.539919    0.000000
      6          1           0       -0.000000   -0.539919   -0.000000
      7          1           0       -1.069328    0.690203    0.000000
      8          1           0       -1.069328   -0.389634   -0.000000
      9          1           0       -2.138657    0.840487    0.000000
     10          1           0       -2.138657   -0.239350   -0.000000
 ---------------------------------------------------------------------

 SCF Done:  E(UHF) =  -4.83526638627     A.U. after   32 cycles
 E2 =    -0.8366223572D-01 EUMP2 =    -0.49189286219919D+01

 Unable to determine electronic state:  partially filled degenerate orbitals.
 Alpha  occ. eigenvalues --   -0.87671  -0.73486  -0.54293  -0.43796  -0.26818
 Alpha virt. eigenvalues --   -0.03422   0.19007   0.33051   0.52488   0.88061
  Beta  occ. eigenvalues --   -0.87403  -0.73753  -0.53745  -0.43943  -0.27126
  Beta virt. eigenvalues --   -0.04002   0.19524   0.33936   0.51482   0.88276

 Mulliken charges and spin densities:
               1          2
     1  H    0.287279   0.189986
     2  H   -0.256835  -0.036593
     3  H   -0.309790   0.007010
     4  H    0.225596   0.177163
     5  H    0.107758   0.015150
     6  H   -0.044132   0.115786
     7  H   -0.243600  -0.052956
     8  H    0.185705  -0.288142
     9  H    0.224859  -0.163110
    10  H   -0.176839   0.035705
 Sum of Mulliken charges =  -0.00000   0.00000

 Dipole moment (field-independent basis, Debye):
    X=             -0.3156    Y=              0.3893    Z=              0.0000  Tot=              0.5012
 Quadrupole moment (field-independent basis, Debye-Ang):
   XX=            -14.7044   YY=            -14.9062   ZZ=            -12.8343
   XY=              0.5651   XZ=             -0.0000   YZ=             -0.0000

 Normal termination of Gaussian 09 at Tue Feb 28 16:03:38 2017.
