 Gaussian 09, Revision E.01,
 Gaussian 09:  ES64L-G09RevE.01 30-Nov-2015

 ----------------------------------------------------------------------
 #uhf/gen scf(tight,novaracc,noincfock,fulldiag, ) stable(crhf) guess=(
 read,mix) geom=nocrowd test
 ----------------------------------------------------------------------

 hf stability analysis of h10 triangular lattice, y= 0.7210052279144877
 3 alpha= 42.000000000000000
 ----------------------------------------------------------------------
 Symbolic Z-matrix:
 Charge =  0 Multiplicity = 1

                         Standard orientation:
 ---------------------------------------------------------------------
 Center     Atomic      Atomic             Coordinates (Angstroms)
 Number     Number       Type             X           Y           Z
 ---------------------------------------------------------------------
      1          1           0        2.143245    0.313499   -0.000000
      2          1           0        2.143245   -0.764027   -0.000000
      3          1           0        1.071623    0.426131   -0.000000
      4          1           0        1.071623   -0.651395   -0.000000
      5          1           0       -0.000000    0.538763   -0.000000
      6          1           0       -0.000000   -0.538763   -0.000000
      7          1           0       -1.071623    0.651395    0.000000
      8          1           0       -1.071623   -0.426131    0.000000
      9          1           0       -2.143245    0.764027    0.000000
     10          1           0       -2.143245   -0.313499    0.000000
 ---------------------------------------------------------------------

 SCF Done:  E(UHF) =  -4.83428528490     A.U. after   31 cycles
 E2 =    -0.8392906568D-01 EUMP2 =    -0.49182143505790D+01

 Unable to determine electronic state:  partially filled degenerate orbitals.
 Alpha  occ. eigenvalues --   -0.87655  -0.73490  -0.54210  -0.43851  -0.26782
 Alpha virt. eigenvalues --   -0.03565   0.19020   0.33535   0.52228   0.89517
  Beta  occ. eigenvalues --   -0.87454  -0.73667  -0.53809  -0.43972  -0.27044
  Beta virt. eigenvalues --   -0.03978   0.19423   0.34197   0.51516   0.89648

 Mulliken charges and spin densities:
               1          2
     1  H    0.281390   0.189239
     2  H   -0.249307  -0.047743
     3  H   -0.305837   0.019872
     4  H    0.222485   0.192666
     5  H    0.114132   0.009936
     6  H   -0.044870   0.083621
     7  H   -0.253775  -0.053049
     8  H    0.190108  -0.271680
     9  H    0.231368  -0.168892
    10  H   -0.185694   0.046030
 Sum of Mulliken charges =  -0.00000  -0.00000

 Dipole moment (field-independent basis, Debye):
    X=             -0.2412    Y=              0.3736    Z=              0.0000  Tot=              0.4447
 Quadrupole moment (field-independent basis, Debye-Ang):
   XX=            -14.8706   YY=            -14.7417   ZZ=            -12.8270
   XY=              0.4747   XZ=              0.0000   YZ=              0.0000

 Normal termination of Gaussian 09 at Tue Feb 28 16:03:51 2017.
