 Gaussian 09, Revision E.01,
 Gaussian 09:  ES64L-G09RevE.01 30-Nov-2015

 ----------------------------------------------------------------------
 #uhf/gen scf(tight,novaracc,noincfock,fulldiag, ) stable(crhf) guess=(
 read,mix) geom=nocrowd test
 ----------------------------------------------------------------------

 hf stability analysis of h10 triangular lattice, y= 1.1806129676413906
  alpha= 67.500000000000000
 ----------------------------------------------------------------------
 Symbolic Z-matrix:
 Charge =  0 Multiplicity = 1

                         Standard orientation:
 ---------------------------------------------------------------------
 Center     Atomic      Atomic             Coordinates (Angstroms)
 Number     Number       Type             X           Y           Z
 ---------------------------------------------------------------------
      1          1           0        1.807204    2.446147   -0.000000
      2          1           0        1.807204    1.168261   -0.000000
      3          1           0        0.903602    1.542545   -0.000000
      4          1           0        0.903602    0.264659   -0.000000
      5          1           0        0.000000    0.638943   -0.000000
      6          1           0       -0.000000   -0.638943   -0.000000
      7          1           0       -0.903602   -0.264659    0.000000
      8          1           0       -0.903602   -1.542545   -0.000000
      9          1           0       -1.807204   -1.168261   -0.000000
     10          1           0       -1.807204   -2.446147   -0.000000
 ---------------------------------------------------------------------

 SCF Done:  E(UHF) =  -4.82566163169     A.U. after   27 cycles
 E2 =    -0.6551751644D-01 EUMP2 =    -0.48911791481236D+01

 Unable to determine electronic state:  partially filled degenerate orbitals.
 Alpha  occ. eigenvalues --   -0.80935  -0.71628  -0.57565  -0.36961  -0.28396
 Alpha virt. eigenvalues --    0.06284   0.18846   0.23805   0.39891   0.59798
  Beta  occ. eigenvalues --   -0.82756  -0.72314  -0.55764  -0.37338  -0.26484
  Beta virt. eigenvalues --    0.07285   0.13824   0.26037   0.39989   0.59238

 Mulliken charges and spin densities:
               1          2
     1  H   -0.055309   0.608524
     2  H   -0.044948   0.420446
     3  H    0.133698  -0.173762
     4  H    0.044947  -0.224205
     5  H   -0.120412   0.314032
     6  H   -0.054719   0.179258
     7  H   -0.015409  -0.448808
     8  H    0.008731  -0.379344
     9  H    0.068178   0.185466
    10  H    0.035244  -0.481607
 Sum of Mulliken charges =   0.00000  -0.00000

 Dipole moment (field-independent basis, Debye):
    X=             -0.9637    Y=             -0.8977    Z=             -0.0000  Tot=              1.3170
 Quadrupole moment (field-independent basis, Debye-Ang):
   XX=            -13.9730   YY=            -14.3424   ZZ=            -12.9526
   XY=              0.0645   XZ=              0.0000   YZ=              0.0000

 Normal termination of Gaussian 09 at Tue Feb 28 16:09:24 2017.
