 Gaussian 09, Revision E.01,
 Gaussian 09:  ES64L-G09RevE.01 30-Nov-2015

 ----------------------------------------------------------------------
 #uhf/gen scf(tight,novaracc,noincfock,fulldiag, ) stable(crhf) guess=(
 read,mix) geom=nocrowd test
 ----------------------------------------------------------------------

 hf stability analysis of h10 triangular lattice, y= 0.7147002101552084
 6 alpha= 41.500000000000000
 ----------------------------------------------------------------------
 Symbolic Z-matrix:
 Charge =  0 Multiplicity = 1

                         Standard orientation:
 ---------------------------------------------------------------------
 Center     Atomic      Atomic             Coordinates (Angstroms)
 Number     Number       Type             X           Y           Z
 ---------------------------------------------------------------------
      1          1           0        2.141115    0.276403    0.000000
      2          1           0        2.141115   -0.802195    0.000000
      3          1           0        1.070558    0.407851    0.000000
      4          1           0        1.070558   -0.670747    0.000000
      5          1           0       -0.000000    0.539299    0.000000
      6          1           0       -0.000000   -0.539299    0.000000
      7          1           0       -1.070558    0.670747    0.000000
      8          1           0       -1.070558   -0.407851    0.000000
      9          1           0       -2.141115    0.802195    0.000000
     10          1           0       -2.141115   -0.276403    0.000000
 ---------------------------------------------------------------------

 SCF Done:  E(UHF) =  -4.83476039211     A.U. after   30 cycles
 E2 =    -0.8380088550D-01 EUMP2 =    -0.49185612776090D+01

 Unable to determine electronic state:  partially filled degenerate orbitals.
 Alpha  occ. eigenvalues --   -0.87664  -0.73488  -0.54250  -0.43824  -0.26796
 Alpha virt. eigenvalues --   -0.03498   0.19012   0.33305   0.52352   0.88837
  Beta  occ. eigenvalues --   -0.87430  -0.73707  -0.53777  -0.43958  -0.27085
  Beta virt. eigenvalues --   -0.03992   0.19473   0.34079   0.51497   0.89008

 Mulliken charges and spin densities:
               1          2
     1  H    0.284608   0.189333
     2  H   -0.253403  -0.042296
     3  H   -0.308131   0.013881
     4  H    0.224309   0.185152
     5  H    0.111233   0.012422
     6  H   -0.044610   0.099301
     7  H   -0.248721  -0.053326
     8  H    0.187862  -0.279630
     9  H    0.227952  -0.165626
    10  H   -0.181101   0.040790
 Sum of Mulliken charges =  -0.00000   0.00000

 Dipole moment (field-independent basis, Debye):
    X=             -0.2790    Y=              0.3811    Z=              0.0000  Tot=              0.4723
 Quadrupole moment (field-independent basis, Debye-Ang):
   XX=            -14.7940   YY=            -14.8190   ZZ=            -12.8304
   XY=              0.5270   XZ=              0.0000   YZ=              0.0000

 Normal termination of Gaussian 09 at Tue Feb 28 16:03:44 2017.
