 Gaussian 09, Revision E.01,
 Gaussian 09:  ES64L-G09RevE.01 30-Nov-2015

 ----------------------------------------------------------------------
 #uhf/gen scf(tight,novaracc,noincfock,fulldiag, ) stable(crhf) guess=(
 read,mix) geom=nocrowd test
 ----------------------------------------------------------------------

 hf stability analysis of h10 triangular lattice, y= 0.3190649348779894
 3 alpha= 10.000000000000000
 ----------------------------------------------------------------------
 Symbolic Z-matrix:
 Charge =  0 Multiplicity = 1

                         Standard orientation:
 ---------------------------------------------------------------------
 Center     Atomic      Atomic             Coordinates (Angstroms)
 Number     Number       Type             X           Y           Z
 ---------------------------------------------------------------------
      1          1           0        1.256870   -2.534512    0.000000
      2          1           0        1.256870   -4.371934    0.000000
      3          1           0        0.628435   -0.807901    0.000000
      4          1           0        0.628435   -2.645322    0.000000
      5          1           0        0.000000    0.918711    0.000000
      6          1           0       -0.000000   -0.918711    0.000000
      7          1           0       -0.628435    2.645322    0.000000
      8          1           0       -0.628435    0.807901    0.000000
      9          1           0       -1.256870    4.371934    0.000000
     10          1           0       -1.256870    2.534512    0.000000
 ---------------------------------------------------------------------

 SCF Done:  E(UHF) =  -5.18113894211     A.U. after   14 cycles
 E2 =    -0.3776214740D-01 EUMP2 =    -0.52189010895111D+01

 Unable to determine electronic state:  partially filled degenerate orbitals.
 Alpha  occ. eigenvalues --   -0.73490  -0.69990  -0.64307  -0.57702  -0.46982
 Alpha virt. eigenvalues --    0.15420   0.35028   0.43249   0.55498   0.67468
  Beta  occ. eigenvalues --   -0.73490  -0.69990  -0.64307  -0.57702  -0.46982
  Beta virt. eigenvalues --    0.15420   0.35028   0.43249   0.55498   0.67468

 Mulliken charges and spin densities:
               1          2
     1  H   -0.002710   0.000666
     2  H    0.002859  -1.002778
     3  H   -0.000281   0.000705
     4  H   -0.000797   0.002795
     5  H    0.000929   0.001321
     6  H    0.000929  -0.001321
     7  H   -0.000797  -0.002795
     8  H   -0.000281  -0.000705
     9  H    0.002859   1.002778
    10  H   -0.002710  -0.000666
 Sum of Mulliken charges =   0.00000   0.00000

 Dipole moment (field-independent basis, Debye):
    X=              0.0000    Y=             -0.0000    Z=             -0.0000  Tot=              0.0000
 Quadrupole moment (field-independent basis, Debye-Ang):
   XX=            -12.1519   YY=            -16.8226   ZZ=            -13.0956
   XY=              1.4130   XZ=             -0.0000   YZ=             -0.0000

 Normal termination of Gaussian 09 at Tue Feb 28 15:56:56 2017.
