 Gaussian 09, Revision E.01,
 Gaussian 09:  ES64L-G09RevE.01 30-Nov-2015

 ----------------------------------------------------------------------
 #rhf/gen scf(symm,tight,novaracc,noincfock,fulldiag) stable=opt guess=
 read geom=nocrowd test
 ----------------------------------------------------------------------

 hf stability analysis of h10 triangular lattice, y= 0.6387729204659229
 3
 ----------------------------------------------------------------------
 Symbolic Z-matrix:
 Charge =  0 Multiplicity = 1

                         Standard orientation:
 ---------------------------------------------------------------------
 Center     Atomic      Atomic             Coordinates (Angstroms)
 Number     Number       Type             X           Y           Z
 ---------------------------------------------------------------------
      1          1           0        2.086594   -0.185512    0.000000
      2          1           0        2.086594   -1.292292    0.000000
      3          1           0        1.043297    0.183939    0.000000
      4          1           0        1.043297   -0.922841    0.000000
      5          1           0        0.000000    0.553390   -0.000000
      6          1           0       -0.000000   -0.553390   -0.000000
      7          1           0       -1.043297    0.922841    0.000000
      8          1           0       -1.043297   -0.183939    0.000000
      9          1           0       -2.086594    1.292292    0.000000
     10          1           0       -2.086594    0.185512    0.000000
 ---------------------------------------------------------------------

 SCF Done:  E(RHF) =  -4.86041254055     A.U. after   12 cycles
 SCF Done:  E(UHF) =  -4.93176341392     a.u. after    7 cycles

 Unable to determine electronic state:  partially filled degenerate orbitals.
 Alpha  occ. eigenvalues --   -0.86193  -0.74516  -0.56162  -0.41905  -0.37036
 Alpha virt. eigenvalues --    0.05224   0.21967   0.31894   0.54707   0.75401
  Beta  occ. eigenvalues --   -0.86193  -0.74516  -0.56162  -0.41905  -0.37036
  Beta virt. eigenvalues --    0.05224   0.21967   0.31894   0.54707   0.75401

 Mulliken charges and spin densities:
               1          2
     1  H   -0.002316  -0.528263
     2  H    0.044484   0.590090
     3  H   -0.046501   0.492980
     4  H    0.017255  -0.497370
     5  H   -0.012921  -0.312991
     6  H   -0.012921   0.312991
     7  H    0.017255   0.497370
     8  H   -0.046501  -0.492980
     9  H    0.044484  -0.590090
    10  H   -0.002316   0.528263
 Sum of Mulliken charges =   0.00000  -0.00000

 Dipole moment (field-independent basis, Debye):
    X=              0.0000    Y=              0.0000    Z=              0.0000  Tot=              0.0000
 Quadrupole moment (field-independent basis, Debye-Ang):
   XX=            -13.7527   YY=            -14.3127   ZZ=            -12.8372
   XY=             -1.7930   XZ=             -0.0000   YZ=             -0.0000

 Normal termination of Gaussian 09 at Tue Feb 28 18:00:59 2017.
