 Gaussian 09, Revision E.01,
 Gaussian 09:  ES64L-G09RevE.01 30-Nov-2015

 ----------------------------------------------------------------------
 #rhf/gen scf(symm,tight,novaracc,noincfock,fulldiag) stable=opt guess=
 read geom=nocrowd test
 ----------------------------------------------------------------------

 hf stability analysis of h10 triangular lattice, y= 0.3427291105198108
 1
 ----------------------------------------------------------------------
 Symbolic Z-matrix:
 Charge =  0 Multiplicity = 1

                         Standard orientation:
 ---------------------------------------------------------------------
 Center     Atomic      Atomic             Coordinates (Angstroms)
 Number     Number       Type             X           Y           Z
 ---------------------------------------------------------------------
      1          1           0        1.343395   -2.305301   -0.000000
      2          1           0        1.343395   -4.024379   -0.000000
      3          1           0        0.671697   -0.722881   -0.000000
      4          1           0        0.671697   -2.441959   -0.000000
      5          1           0        0.000000    0.859539    0.000000
      6          1           0       -0.000000   -0.859539    0.000000
      7          1           0       -0.671697    2.441959    0.000000
      8          1           0       -0.671697    0.722881    0.000000
      9          1           0       -1.343395    4.024379    0.000000
     10          1           0       -1.343395    2.305301    0.000000
 ---------------------------------------------------------------------

 SCF Done:  E(RHF) =  -4.91500110850     A.U. after   10 cycles
 SCF Done:  E(UHF) =  -5.19856861126     a.u. after    4 cycles

 Unable to determine electronic state:  partially filled degenerate orbitals.
 Alpha  occ. eigenvalues --   -0.73999  -0.69741  -0.62680  -0.54064  -0.44795
 Alpha virt. eigenvalues --    0.16578   0.29882   0.38974   0.52771   0.66484
  Beta  occ. eigenvalues --   -0.73999  -0.69741  -0.62680  -0.54064  -0.44795
  Beta virt. eigenvalues --    0.16578   0.29882   0.38974   0.52771   0.66484

 Mulliken charges and spin densities:
               1          2
     1  H   -0.003590  -0.003422
     2  H   -0.002052  -0.997726
     3  H    0.000024   0.002170
     4  H    0.003910   0.002938
     5  H    0.001708   0.003719
     6  H    0.001708  -0.003719
     7  H    0.003910  -0.002938
     8  H    0.000024  -0.002170
     9  H   -0.002052   0.997726
    10  H   -0.003590   0.003422
 Sum of Mulliken charges =   0.00000   0.00000

 Dipole moment (field-independent basis, Debye):
    X=             -0.0000    Y=             -0.0000    Z=             -0.0000  Tot=              0.0000
 Quadrupole moment (field-independent basis, Debye-Ang):
   XX=            -12.1676   YY=            -17.7828   ZZ=            -12.9685
   XY=              2.0846   XZ=             -0.0000   YZ=             -0.0000

 Normal termination of Gaussian 09 at Tue Feb 28 17:56:10 2017.
