 Gaussian 09, Revision E.01,
 Gaussian 09:  ES64L-G09RevE.01 30-Nov-2015

 ----------------------------------------------------------------------
 #rhf/gen scf(symm,tight,novaracc,noincfock,fulldiag) stable=opt guess=
 read geom=nocrowd test
 ----------------------------------------------------------------------

 hf stability analysis of h10 triangular lattice, y= 0.4035215248364041
 9
 ----------------------------------------------------------------------
 Symbolic Z-matrix:
 Charge =  0 Multiplicity = 1

                         Standard orientation:
 ---------------------------------------------------------------------
 Center     Atomic      Atomic             Coordinates (Angstroms)
 Number     Number       Type             X           Y           Z
 ---------------------------------------------------------------------
      1          1           0        1.553486   -1.791761   -0.000000
      2          1           0        1.553486   -3.278355   -0.000000
      3          1           0        0.776743   -0.524232   -0.000000
      4          1           0        0.776743   -2.010826   -0.000000
      5          1           0        0.000000    0.743297    0.000000
      6          1           0       -0.000000   -0.743297   -0.000000
      7          1           0       -0.776743    2.010826   -0.000000
      8          1           0       -0.776743    0.524232   -0.000000
      9          1           0       -1.553486    3.278355   -0.000000
     10          1           0       -1.553486    1.791761   -0.000000
 ---------------------------------------------------------------------

 SCF Done:  E(RHF) =  -4.80295363201     A.U. after   15 cycles
 SCF Done:  E(UHF) =  -5.07808624591     a.u. after    5 cycles

 Unable to determine electronic state:  partially filled degenerate orbitals.
 Alpha  occ. eigenvalues --   -0.76463  -0.70136  -0.59712  -0.46589  -0.35464
 Alpha virt. eigenvalues --    0.17541   0.21061   0.29143   0.46147   0.63235
  Beta  occ. eigenvalues --   -0.76463  -0.70136  -0.59712  -0.46589  -0.35464
  Beta virt. eigenvalues --    0.17541   0.21061   0.29143   0.46147   0.63235

 Mulliken charges and spin densities:
               1          2
     1  H   -0.010705  -0.060151
     2  H   -0.041624  -0.955290
     3  H    0.008614   0.032066
     4  H    0.039775   0.028361
     5  H    0.003940   0.041848
     6  H    0.003940  -0.041848
     7  H    0.039775  -0.028361
     8  H    0.008614  -0.032066
     9  H   -0.041624   0.955290
    10  H   -0.010705   0.060151
 Sum of Mulliken charges =   0.00000   0.00000

 Dipole moment (field-independent basis, Debye):
    X=             -0.0000    Y=              0.0000    Z=              0.0000  Tot=              0.0000
 Quadrupole moment (field-independent basis, Debye-Ang):
   XX=            -13.2834   YY=            -20.8530   ZZ=            -12.6828
   XY=              4.8973   XZ=              0.0000   YZ=             -0.0000

 Normal termination of Gaussian 09 at Tue Feb 28 17:56:59 2017.
