 Gaussian 09, Revision E.01,
 Gaussian 09:  ES64L-G09RevE.01 30-Nov-2015

 ----------------------------------------------------------------------
 #rhf/gen scf(symm,tight,novaracc,noincfock,fulldiag) stable=opt guess=
 read geom=nocrowd test
 ----------------------------------------------------------------------

 hf stability analysis of h10 triangular lattice, y= 0.7273541585154700
 3
 ----------------------------------------------------------------------
 Symbolic Z-matrix:
 Charge =  0 Multiplicity = 1

                         Standard orientation:
 ---------------------------------------------------------------------
 Center     Atomic      Atomic             Coordinates (Angstroms)
 Number     Number       Type             X           Y           Z
 ---------------------------------------------------------------------
      1          1           0        2.145047    0.350643    0.000000
      2          1           0        2.145047   -0.725977    0.000000
      3          1           0        1.072523    0.444477    0.000000
      4          1           0        1.072523   -0.632144    0.000000
      5          1           0       -0.000000    0.538310   -0.000000
      6          1           0       -0.000000   -0.538310    0.000000
      7          1           0       -1.072523    0.632144    0.000000
      8          1           0       -1.072523   -0.444477    0.000000
      9          1           0       -2.145047    0.725977    0.000000
     10          1           0       -2.145047   -0.350643    0.000000
 ---------------------------------------------------------------------

 SCF Done:  E(RHF) =  -4.84111204833     A.U. after   12 cycles
 SCF Done:  E(UHF) =  -4.96016229308     a.u. after    5 cycles

 Unable to determine electronic state:  partially filled degenerate orbitals.
 Alpha  occ. eigenvalues --   -0.87291  -0.74962  -0.55805  -0.45433  -0.38918
 Alpha virt. eigenvalues --    0.06999   0.20052   0.37330   0.52898   0.90481
  Beta  occ. eigenvalues --   -0.87291  -0.74962  -0.55805  -0.45433  -0.38918
  Beta virt. eigenvalues --    0.06999   0.20052   0.37330   0.52898   0.90481

 Mulliken charges and spin densities:
               1          2
     1  H    0.017143  -0.587689
     2  H    0.038945   0.601786
     3  H   -0.032473   0.554837
     4  H   -0.021511  -0.553364
     5  H   -0.002104  -0.403408
     6  H   -0.002104   0.403408
     7  H   -0.021511   0.553364
     8  H   -0.032473  -0.554837
     9  H    0.038945  -0.601786
    10  H    0.017143   0.587689
 Sum of Mulliken charges =   0.00000   0.00000

 Dipole moment (field-independent basis, Debye):
    X=              0.0000    Y=             -0.0000    Z=              0.0000  Tot=              0.0000
 Quadrupole moment (field-independent basis, Debye-Ang):
   XX=            -13.0088   YY=            -15.4755   ZZ=            -12.7926
   XY=             -0.6313   XZ=              0.0000   YZ=              0.0000

 Normal termination of Gaussian 09 at Tue Feb 28 18:02:25 2017.
