 Gaussian 09, Revision E.01,
 Gaussian 09:  ES64L-G09RevE.01 30-Nov-2015

 ----------------------------------------------------------------------
 #rhf/gen scf(symm,tight,novaracc,noincfock,fulldiag) stable=opt guess=
 read geom=nocrowd test
 ----------------------------------------------------------------------

 hf stability analysis of h10 triangular lattice, y= 0.3149713055983335
 3
 ----------------------------------------------------------------------
 Symbolic Z-matrix:
 Charge =  0 Multiplicity = 1

                         Standard orientation:
 ---------------------------------------------------------------------
 Center     Atomic      Atomic             Coordinates (Angstroms)
 Number     Number       Type             X           Y           Z
 ---------------------------------------------------------------------
      1          1           0        1.241687   -2.576473    0.000000
      2          1           0        1.241687   -4.436362    0.000000
      3          1           0        0.620844   -0.823264    0.000000
      4          1           0        0.620844   -2.683153    0.000000
      5          1           0        0.000000    0.929945   -0.000000
      6          1           0       -0.000000   -0.929945   -0.000000
      7          1           0       -0.620844    2.683153    0.000000
      8          1           0       -0.620844    0.823264    0.000000
      9          1           0       -1.241687    4.436362    0.000000
     10          1           0       -1.241687    2.576473    0.000000
 ---------------------------------------------------------------------

 SCF Done:  E(RHF) =  -4.88641049032     A.U. after   10 cycles
 SCF Done:  E(UHF) =  -5.17352053602     a.u. after    4 cycles

 Unable to determine electronic state:  partially filled degenerate orbitals.
 Alpha  occ. eigenvalues --   -0.73427  -0.70058  -0.64615  -0.58356  -0.47274
 Alpha virt. eigenvalues --    0.15244   0.35959   0.44020   0.55987   0.67640
  Beta  occ. eigenvalues --   -0.73427  -0.70058  -0.64615  -0.58356  -0.47274
  Beta virt. eigenvalues --    0.15244   0.35959   0.44020   0.55987   0.67640

 Mulliken charges and spin densities:
               1          2
     1  H   -0.002583   0.001046
     2  H    0.003336  -1.003268
     3  H   -0.000292   0.000576
     4  H   -0.001291   0.002791
     5  H    0.000830   0.001092
     6  H    0.000830  -0.001092
     7  H   -0.001291  -0.002791
     8  H   -0.000292  -0.000576
     9  H    0.003336   1.003268
    10  H   -0.002583  -0.001046
 Sum of Mulliken charges =   0.00000   0.00000

 Dipole moment (field-independent basis, Debye):
    X=             -0.0000    Y=              0.0000    Z=              0.0000  Tot=              0.0000
 Quadrupole moment (field-independent basis, Debye-Ang):
   XX=            -12.1628   YY=            -16.6715   ZZ=            -13.1178
   XY=              1.3163   XZ=              0.0000   YZ=             -0.0000

 Normal termination of Gaussian 09 at Tue Feb 28 17:55:51 2017.
