 Gaussian 09, Revision E.01,
 Gaussian 09:  ES64L-G09RevE.01 30-Nov-2015

 ----------------------------------------------------------------------
 #rhf/gen scf(symm,tight,novaracc,noincfock,fulldiag) stable=opt guess=
 read geom=nocrowd test
 ----------------------------------------------------------------------

 ----------------------------------------------------------------------
 hf stability analysis of h10 triangular lattice, y= 1.3429973740177321
 ----------------------------------------------------------------------
 Symbolic Z-matrix:
 Charge =  0 Multiplicity = 1

                         Standard orientation:
 ---------------------------------------------------------------------
 Center     Atomic      Atomic             Coordinates (Angstroms)
 Number     Number       Type             X           Y           Z
 ---------------------------------------------------------------------
      1          1           0        1.637728    3.001072    0.000000
      2          1           0        1.637728    1.590947    0.000000
      3          1           0        0.818864    1.853067    0.000000
      4          1           0        0.818864    0.442942    0.000000
      5          1           0       -0.000000    0.705063   -0.000000
      6          1           0       -0.000000   -0.705063   -0.000000
      7          1           0       -0.818864   -0.442942   -0.000000
      8          1           0       -0.818864   -1.853067   -0.000000
      9          1           0       -1.637728   -1.590947   -0.000000
     10          1           0       -1.637728   -3.001072   -0.000000
 ---------------------------------------------------------------------

 SCF Done:  E(RHF) =  -4.71380818216     A.U. after   15 cycles
 SCF Done:  E(UHF) =  -4.97678145693     a.u. after    7 cycles

 Unable to determine electronic state:  partially filled degenerate orbitals.
 Alpha  occ. eigenvalues --   -0.78231  -0.70883  -0.58969  -0.43907  -0.30937
 Alpha virt. eigenvalues --    0.12840   0.23015   0.25363   0.43245   0.61192
  Beta  occ. eigenvalues --   -0.78231  -0.70883  -0.58969  -0.43907  -0.30937
  Beta virt. eigenvalues --    0.12840   0.23015   0.25363   0.43245   0.61192

 Mulliken charges and spin densities:
               1          2
     1  H   -0.074483  -0.910768
     2  H   -0.026278  -0.183157
     3  H    0.076948   0.120483
     4  H    0.028262   0.110947
     5  H   -0.004448  -0.131844
     6  H   -0.004448   0.131844
     7  H    0.028262  -0.110947
     8  H    0.076948  -0.120483
     9  H   -0.026278   0.183157
    10  H   -0.074483   0.910768
 Sum of Mulliken charges =   0.00000  -0.00000

 Dipole moment (field-independent basis, Debye):
    X=             -0.0000    Y=             -0.0000    Z=             -0.0000  Tot=              0.0000
 Quadrupole moment (field-independent basis, Debye-Ang):
   XX=            -14.6310   YY=            -22.0887   ZZ=            -12.6031
   XY=             -6.5135   XZ=             -0.0000   YZ=             -0.0000

 Normal termination of Gaussian 09 at Tue Feb 28 18:08:32 2017.
