 Gaussian 09, Revision E.01,
 Gaussian 09:  ES64L-G09RevE.01 30-Nov-2015

 ----------------------------------------------------------------------
 #rhf/gen scf(symm,tight,novaracc,noincfock,fulldiag) stable=opt guess=
 read geom=nocrowd test
 ----------------------------------------------------------------------

 hf stability analysis of h10 triangular lattice, y= 0.6776762931058321
 1
 ----------------------------------------------------------------------
 Symbolic Z-matrix:
 Charge =  0 Multiplicity = 1

                         Standard orientation:
 ---------------------------------------------------------------------
 Center     Atomic      Atomic             Coordinates (Angstroms)
 Number     Number       Type             X           Y           Z
 ---------------------------------------------------------------------
      1          1           0        2.121420    0.054537    0.000000
      2          1           0        2.121420   -1.034074    0.000000
      3          1           0        1.060710    0.299421    0.000000
      4          1           0        1.060710   -0.789190    0.000000
      5          1           0       -0.000000    0.544305    0.000000
      6          1           0       -0.000000   -0.544305    0.000000
      7          1           0       -1.060710    0.789190    0.000000
      8          1           0       -1.060710   -0.299421    0.000000
      9          1           0       -2.121420    1.034074    0.000000
     10          1           0       -2.121420   -0.054537    0.000000
 ---------------------------------------------------------------------

 SCF Done:  E(RHF) =  -4.85036921249     A.U. after   12 cycles
 SCF Done:  E(UHF) =  -4.94865967698     a.u. after    6 cycles

 Unable to determine electronic state:  partially filled degenerate orbitals.
 Alpha  occ. eigenvalues --   -0.86839  -0.74775  -0.55990  -0.44047  -0.38118
 Alpha virt. eigenvalues --    0.06146   0.21094   0.34857   0.53815   0.83916
  Beta  occ. eigenvalues --   -0.86839  -0.74775  -0.55990  -0.44047  -0.38118
  Beta virt. eigenvalues --    0.06146   0.21094   0.34857   0.53815   0.83916

 Mulliken charges and spin densities:
               1          2
     1  H    0.001621  -0.563659
     2  H    0.048666   0.601948
     3  H   -0.038897   0.535451
     4  H   -0.005103  -0.533568
     5  H   -0.006286  -0.371656
     6  H   -0.006286   0.371656
     7  H   -0.005103   0.533568
     8  H   -0.038897  -0.535451
     9  H    0.048666  -0.601948
    10  H    0.001621   0.563659
 Sum of Mulliken charges =  -0.00000   0.00000

 Dipole moment (field-independent basis, Debye):
    X=             -0.0000    Y=              0.0000    Z=              0.0000  Tot=              0.0000
 Quadrupole moment (field-independent basis, Debye-Ang):
   XX=            -13.3382   YY=            -14.9352   ZZ=            -12.8086
   XY=             -1.4672   XZ=              0.0000   YZ=              0.0000

 Normal termination of Gaussian 09 at Tue Feb 28 18:01:37 2017.
