 Gaussian 09, Revision E.01,
 Gaussian 09:  ES64L-G09RevE.01 30-Nov-2015

 ----------------------------------------------------------------------
 #rhf/gen scf(symm,tight,novaracc,noincfock,fulldiag) stable=opt guess=
 read geom=nocrowd test
 ----------------------------------------------------------------------

 hf stability analysis of h10 triangular lattice, y= 0.2710133450063199
 1
 ----------------------------------------------------------------------
 Symbolic Z-matrix:
 Charge =  0 Multiplicity = 1

                         Standard orientation:
 ---------------------------------------------------------------------
 Center     Atomic      Atomic             Coordinates (Angstroms)
 Number     Number       Type             X           Y           Z
 ---------------------------------------------------------------------
      1          1           0        1.075386   -3.084456   -0.000000
      2          1           0        1.075386   -5.231964   -0.000000
      3          1           0        0.537693   -1.005351   -0.000000
      4          1           0        0.537693   -3.152859   -0.000000
      5          1           0        0.000000    1.073754    0.000000
      6          1           0       -0.000000   -1.073754    0.000000
      7          1           0       -0.537693    3.152859   -0.000000
      8          1           0       -0.537693    1.005351   -0.000000
      9          1           0       -1.075386    5.231964   -0.000000
     10          1           0       -1.075386    3.084456   -0.000000
 ---------------------------------------------------------------------

 SCF Done:  E(RHF) =  -4.69872149194     A.U. after    9 cycles
 SCF Done:  E(UHF) =  -4.98964772531     a.u. after    4 cycles

 Unable to determine electronic state:  partially filled degenerate orbitals.
 Alpha  occ. eigenvalues --   -0.73252  -0.71269  -0.68309  -0.65341  -0.49237
 Alpha virt. eigenvalues --    0.13771   0.46862   0.53009   0.61724   0.69835
  Beta  occ. eigenvalues --   -0.73252  -0.71269  -0.68309  -0.65341  -0.49237
  Beta virt. eigenvalues --    0.13771   0.46862   0.53009   0.61724   0.69835

 Mulliken charges and spin densities:
               1          2
     1  H   -0.001458   0.002075
     2  H    0.004269  -1.004261
     3  H   -0.000174   0.000053
     4  H   -0.002852   0.002235
     5  H    0.000216   0.000099
     6  H    0.000216  -0.000099
     7  H   -0.002852  -0.002235
     8  H   -0.000174  -0.000053
     9  H    0.004269   1.004261
    10  H   -0.001458  -0.002075
 Sum of Mulliken charges =   0.00000   0.00000

 Dipole moment (field-independent basis, Debye):
    X=              0.0000    Y=             -0.0000    Z=             -0.0000  Tot=              0.0000
 Quadrupole moment (field-independent basis, Debye-Ang):
   XX=            -12.4319   YY=            -15.3089   ZZ=            -13.3451
   XY=              0.5654   XZ=             -0.0000   YZ=              0.0000

 Normal termination of Gaussian 09 at Tue Feb 28 17:55:23 2017.
