 Gaussian 09, Revision E.01,
 Gaussian 09:  ES64L-G09RevE.01 30-Nov-2015

 ----------------------------------------------------------------------
 #rhf/gen scf(symm,tight,novaracc,noincfock,fulldiag) stable=opt guess=
 read geom=nocrowd test
 ----------------------------------------------------------------------

 hf stability analysis of h10 triangular lattice, y= 0.9706441525749213
 2
 ----------------------------------------------------------------------
 Symbolic Z-matrix:
 Charge =  0 Multiplicity = 1

                         Standard orientation:
 ---------------------------------------------------------------------
 Center     Atomic      Atomic             Coordinates (Angstroms)
 Number     Number       Type             X           Y           Z
 ---------------------------------------------------------------------
      1          1           0        2.028641    1.602843   -0.000000
      2          1           0        2.028641    0.464445   -0.000000
      3          1           0        1.014320    1.086021   -0.000000
      4          1           0        1.014320   -0.052377   -0.000000
      5          1           0        0.000000    0.569199    0.000000
      6          1           0       -0.000000   -0.569199    0.000000
      7          1           0       -1.014320    0.052377   -0.000000
      8          1           0       -1.014320   -1.086021   -0.000000
      9          1           0       -2.028641   -0.464445   -0.000000
     10          1           0       -2.028641   -1.602843   -0.000000
 ---------------------------------------------------------------------

 SCF Done:  E(RHF) =  -4.86805071906     A.U. after   10 cycles
 SCF Done:  E(UHF) =  -4.90535261758     a.u. after    8 cycles

 Unable to determine electronic state:  partially filled degenerate orbitals.
 Alpha  occ. eigenvalues --   -0.85215  -0.74108  -0.56254  -0.38120  -0.35493
 Alpha virt. eigenvalues --    0.04281   0.21508   0.28717   0.55348   0.63740
  Beta  occ. eigenvalues --   -0.85215  -0.74108  -0.56254  -0.38120  -0.35493
  Beta virt. eigenvalues --    0.04281   0.21508   0.28717   0.55348   0.63740

 Mulliken charges and spin densities:
               1          2
     1  H    0.016749   0.556614
     2  H    0.015529  -0.461331
     3  H    0.056084  -0.418228
     4  H   -0.069287   0.369403
     5  H   -0.019075   0.174947
     6  H   -0.019075  -0.174947
     7  H   -0.069287  -0.369403
     8  H    0.056084   0.418228
     9  H    0.015529   0.461331
    10  H    0.016749  -0.556614
 Sum of Mulliken charges =  -0.00000   0.00000

 Dipole moment (field-independent basis, Debye):
    X=             -0.0000    Y=             -0.0000    Z=             -0.0000  Tot=              0.0000
 Quadrupole moment (field-independent basis, Debye-Ang):
   XX=            -14.1883   YY=            -13.8631   ZZ=            -12.8968
   XY=              1.4948   XZ=              0.0000   YZ=              0.0000

 Normal termination of Gaussian 09 at Tue Feb 28 18:05:34 2017.
