 Gaussian 09, Revision E.01,
 Gaussian 09:  ES64L-G09RevE.01 30-Nov-2015

 ----------------------------------------------------------------------
 #rhf/gen scf(symm,tight,novaracc,noincfock,fulldiag) stable=opt guess=
 read geom=nocrowd test
 ----------------------------------------------------------------------

 ----------------------------------------------------------------------
 hf stability analysis of h10 triangular lattice, y= 1.0644781770328475
 ----------------------------------------------------------------------
 Symbolic Z-matrix:
 Charge =  0 Multiplicity = 1

                         Standard orientation:
 ---------------------------------------------------------------------
 Center     Atomic      Atomic             Coordinates (Angstroms)
 Number     Number       Type             X           Y           Z
 ---------------------------------------------------------------------
      1          1           0        1.933052    2.001790    0.000000
      2          1           0        1.933052    0.807099    0.000000
      3          1           0        0.966526    1.299568    0.000000
      4          1           0        0.966526    0.104876    0.000000
      5          1           0        0.000000    0.597346    0.000000
      6          1           0       -0.000000   -0.597346   -0.000000
      7          1           0       -0.966526   -0.104876   -0.000000
      8          1           0       -0.966526   -1.299568   -0.000000
      9          1           0       -1.933052   -0.807099   -0.000000
     10          1           0       -1.933052   -2.001790   -0.000000
 ---------------------------------------------------------------------

 SCF Done:  E(RHF) =  -4.85708596752     A.U. after   10 cycles
 SCF Done:  E(UHF) =  -4.87956788330     a.u. after   11 cycles

 Unable to determine electronic state:  partially filled degenerate orbitals.
 Alpha  occ. eigenvalues --   -0.84781  -0.72533  -0.56199  -0.34385  -0.33425
 Alpha virt. eigenvalues --    0.05896   0.18239   0.26319   0.47480   0.57753
  Beta  occ. eigenvalues --   -0.84781  -0.72533  -0.56199  -0.34385  -0.33425
  Beta virt. eigenvalues --    0.05896   0.18239   0.26319   0.47480   0.57753

 Mulliken charges and spin densities:
               1          2
     1  H   -0.056537  -0.426763
     2  H    0.099646   0.419913
     3  H    0.071127   0.249817
     4  H   -0.144517   0.123805
     5  H    0.030280   0.215230
     6  H    0.030280  -0.215230
     7  H   -0.144517  -0.123805
     8  H    0.071127  -0.249817
     9  H    0.099646  -0.419913
    10  H   -0.056537   0.426763
 Sum of Mulliken charges =  -0.00000   0.00000

 Dipole moment (field-independent basis, Debye):
    X=             -0.0000    Y=             -0.0000    Z=             -0.0000  Tot=              0.0000
 Quadrupole moment (field-independent basis, Debye-Ang):
   XX=            -14.1606   YY=            -15.3769   ZZ=            -12.9621
   XY=             -0.5022   XZ=             -0.0000   YZ=             -0.0000

 Normal termination of Gaussian 09 at Tue Feb 28 18:06:30 2017.
