 Gaussian 09, Revision E.01,
 Gaussian 09:  ES64L-G09RevE.01 30-Nov-2015

 ----------------------------------------------------------------------
 #rhf/gen scf(symm,tight,novaracc,noincfock,fulldiag) stable=opt guess=
 read geom=nocrowd test
 ----------------------------------------------------------------------

 hf stability analysis of h10 triangular lattice, y= 0.3687111964088696
 8
 ----------------------------------------------------------------------
 Symbolic Z-matrix:
 Charge =  0 Multiplicity = 1

                         Standard orientation:
 ---------------------------------------------------------------------
 Center     Atomic      Atomic             Coordinates (Angstroms)
 Number     Number       Type             X           Y           Z
 ---------------------------------------------------------------------
      1          1           0        1.435583   -2.074992   -0.000000
      2          1           0        1.435583   -3.683677   -0.000000
      3          1           0        0.717792   -0.635325   -0.000000
      4          1           0        0.717792   -2.244010   -0.000000
      5          1           0        0.000000    0.804342    0.000000
      6          1           0       -0.000000   -0.804342    0.000000
      7          1           0       -0.717792    2.244010    0.000000
      8          1           0       -0.717792    0.635325    0.000000
      9          1           0       -1.435583    3.683677    0.000000
     10          1           0       -1.435583    2.074992    0.000000
 ---------------------------------------------------------------------

 SCF Done:  E(RHF) =  -4.89223139572     A.U. after   12 cycles
 SCF Done:  E(UHF) =  -5.17206357308     a.u. after    4 cycles

 Unable to determine electronic state:  partially filled degenerate orbitals.
 Alpha  occ. eigenvalues --   -0.74836  -0.69729  -0.61204  -0.50545  -0.41349
 Alpha virt. eigenvalues --    0.18107   0.24638   0.34590   0.49906   0.65294
  Beta  occ. eigenvalues --   -0.74836  -0.69729  -0.61204  -0.50545  -0.41349
  Beta virt. eigenvalues --    0.18107   0.24638   0.34590   0.49906   0.65294

 Mulliken charges and spin densities:
               1          2
     1  H   -0.005140  -0.014544
     2  H   -0.013196  -0.986155
     3  H    0.001399   0.006932
     4  H    0.013956   0.005171
     5  H    0.002982   0.010588
     6  H    0.002982  -0.010588
     7  H    0.013956  -0.005171
     8  H    0.001399  -0.006932
     9  H   -0.013196   0.986155
    10  H   -0.005140   0.014544
 Sum of Mulliken charges =   0.00000  -0.00000

 Dipole moment (field-independent basis, Debye):
    X=              0.0000    Y=             -0.0000    Z=             -0.0000  Tot=              0.0000
 Quadrupole moment (field-independent basis, Debye-Ang):
   XX=            -12.4027   YY=            -19.0069   ZZ=            -12.8360
   XY=              3.0780   XZ=             -0.0000   YZ=             -0.0000

 Normal termination of Gaussian 09 at Tue Feb 28 17:56:30 2017.
