 Gaussian 09, Revision E.01,
 Gaussian 09:  ES64L-G09RevE.01 30-Nov-2015

 ----------------------------------------------------------------------
 #rhf/gen scf(symm,tight,novaracc,noincfock,fulldiag) stable=opt guess=
 read geom=nocrowd test
 ----------------------------------------------------------------------

 hf stability analysis of h10 triangular lattice, y= 0.5773502789032680
 7
 ----------------------------------------------------------------------
 Symbolic Z-matrix:
 Charge =  0 Multiplicity = 1

                         Standard orientation:
 ---------------------------------------------------------------------
 Center     Atomic      Atomic             Coordinates (Angstroms)
 Number     Number       Type             X           Y           Z
 ---------------------------------------------------------------------
      1          1           0        2.000000   -0.577350    0.000000
      2          1           0        2.000000   -1.732051    0.000000
      3          1           0        1.000000    0.000000    0.000000
      4          1           0        1.000000   -1.154701    0.000000
      5          1           0        0.000000    0.577350    0.000000
      6          1           0       -0.000000   -0.577350    0.000000
      7          1           0       -1.000000    1.154701    0.000000
      8          1           0       -1.000000    0.000000    0.000000
      9          1           0       -2.000000    1.732051    0.000000
     10          1           0       -2.000000    0.577350    0.000000
 ---------------------------------------------------------------------

 SCF Done:  E(RHF) =  -4.86778859059     A.U. after   12 cycles
 SCF Done:  E(UHF) =  -4.89413390482     a.u. after    9 cycles

 Unable to determine electronic state:  partially filled degenerate orbitals.
 Alpha  occ. eigenvalues --   -0.84906  -0.73825  -0.56257  -0.36337  -0.34803
 Alpha virt. eigenvalues --    0.04100   0.20440   0.27952   0.54765   0.59463
  Beta  occ. eigenvalues --   -0.84906  -0.73825  -0.56257  -0.36337  -0.34803
  Beta virt. eigenvalues --    0.04100   0.20440   0.27952   0.54765   0.59463

 Mulliken charges and spin densities:
               1          2
     1  H    0.037190  -0.436944
     2  H   -0.005772   0.536667
     3  H   -0.096558   0.254085
     4  H    0.072225  -0.374402
     5  H   -0.007085  -0.068106
     6  H   -0.007085   0.068106
     7  H    0.072225   0.374402
     8  H   -0.096558  -0.254085
     9  H   -0.005772  -0.536667
    10  H    0.037190   0.436944
 Sum of Mulliken charges =  -0.00000   0.00000

 Dipole moment (field-independent basis, Debye):
    X=             -0.0000    Y=              0.0000    Z=              0.0000  Tot=              0.0000
 Quadrupole moment (field-independent basis, Debye-Ang):
   XX=            -14.3147   YY=            -14.0300   ZZ=            -12.9272
   XY=             -1.0196   XZ=              0.0000   YZ=              0.0000

 Normal termination of Gaussian 09 at Tue Feb 28 17:59:55 2017.
