 Gaussian 09, Revision E.01,
 Gaussian 09:  ES64L-G09RevE.01 30-Nov-2015

 ----------------------------------------------------------------------
 #rhf/gen scf(symm,tight,novaracc,noincfock,fulldiag) stable=opt guess=
 read geom=nocrowd test
 ----------------------------------------------------------------------

 hf stability analysis of h10 triangular lattice, y= 0.2411143230343760
 2
 ----------------------------------------------------------------------
 Symbolic Z-matrix:
 Charge =  0 Multiplicity = 1

                         Standard orientation:
 ---------------------------------------------------------------------
 Center     Atomic      Atomic             Coordinates (Angstroms)
 Number     Number       Type             X           Y           Z
 ---------------------------------------------------------------------
      1          1           0        0.959605   -3.513299    0.000000
      2          1           0        0.959605   -5.919916    0.000000
      3          1           0        0.479802   -1.154995   -0.000000
      4          1           0        0.479802   -3.561612    0.000000
      5          1           0        0.000000    1.203309   -0.000000
      6          1           0       -0.000000   -1.203309   -0.000000
      7          1           0       -0.479802    3.561612   -0.000000
      8          1           0       -0.479802    1.154995   -0.000000
      9          1           0       -0.959605    5.919916   -0.000000
     10          1           0       -0.959605    3.513299   -0.000000
 ---------------------------------------------------------------------

 SCF Done:  E(RHF) =  -4.44106247882     A.U. after    9 cycles
 SCF Done:  E(UHF) =  -4.73369790395     a.u. after    3 cycles

 Unable to determine electronic state:  partially filled degenerate orbitals.
 Alpha  occ. eigenvalues --   -0.73754  -0.72631  -0.71073  -0.69661  -0.49751
 Alpha virt. eigenvalues --    0.13151   0.55333   0.59995   0.66383   0.72124
  Beta  occ. eigenvalues --   -0.73754  -0.72631  -0.71073  -0.69661  -0.49751
  Beta virt. eigenvalues --    0.13151   0.55333   0.59995   0.66383   0.72124

 Mulliken charges and spin densities:
               1          2
     1  H   -0.000867   0.001406
     2  H    0.002833  -1.002832
     3  H   -0.000074   0.000008
     4  H   -0.001966   0.001427
     5  H    0.000075   0.000010
     6  H    0.000075  -0.000010
     7  H   -0.001966  -0.001427
     8  H   -0.000074  -0.000008
     9  H    0.002833   1.002832
    10  H   -0.000867  -0.001406
 Sum of Mulliken charges =   0.00000   0.00000

 Dipole moment (field-independent basis, Debye):
    X=              0.0000    Y=             -0.0000    Z=              0.0000  Tot=              0.0000
 Quadrupole moment (field-independent basis, Debye-Ang):
   XX=            -12.6835   YY=            -14.6300   ZZ=            -13.4713
   XY=              0.2845   XZ=              0.0000   YZ=              0.0000

 Normal termination of Gaussian 09 at Tue Feb 28 17:55:06 2017.
