 Gaussian 09, Revision E.01,
 Gaussian 09:  ES64L-G09RevE.01 30-Nov-2015

 ----------------------------------------------------------------------
 #rhf/gen scf(symm,tight,novaracc,noincfock,fulldiag) stable=opt guess=
 read geom=nocrowd test
 ----------------------------------------------------------------------

 hf stability analysis of h10 triangular lattice, y= 0.4676948326587840
 9
 ----------------------------------------------------------------------
 Symbolic Z-matrix:
 Charge =  0 Multiplicity = 1

                         Standard orientation:
 ---------------------------------------------------------------------
 Center     Atomic      Atomic             Coordinates (Angstroms)
 Number     Number       Type             X           Y           Z
 ---------------------------------------------------------------------
      1          1           0        1.749432   -1.317329   -0.000000
      2          1           0        1.749432   -2.637416   -0.000000
      3          1           0        0.874716   -0.328643   -0.000000
      4          1           0        0.874716   -1.648730   -0.000000
      5          1           0        0.000000    0.660043   -0.000000
      6          1           0       -0.000000   -0.660043    0.000000
      7          1           0       -0.874716    1.648730   -0.000000
      8          1           0       -0.874716    0.328643   -0.000000
      9          1           0       -1.749432    2.637416   -0.000000
     10          1           0       -1.749432    1.317329   -0.000000
 ---------------------------------------------------------------------

 SCF Done:  E(RHF) =  -4.75855137733     A.U. after   13 cycles
 SCF Done:  E(UHF) =  -4.84416677070     a.u. after   23 cycles

 Unable to determine electronic state:  partially filled degenerate orbitals.
 Alpha  occ. eigenvalues --   -0.81676  -0.72779  -0.58431  -0.39839  -0.27624
 Alpha virt. eigenvalues --    0.07547   0.20236   0.25067   0.38752   0.58666
  Beta  occ. eigenvalues --   -0.81676  -0.72779  -0.58431  -0.39839  -0.27624
  Beta virt. eigenvalues --    0.07547   0.20236   0.25067   0.38752   0.58666

 Mulliken charges and spin densities:
               1          2
     1  H   -0.072437   0.499697
     2  H   -0.094078   0.708338
     3  H    0.083735  -0.254428
     4  H    0.149380  -0.311990
     5  H   -0.066600  -0.361386
     6  H   -0.066600   0.361386
     7  H    0.149380   0.311990
     8  H    0.083735   0.254428
     9  H   -0.094078  -0.708338
    10  H   -0.072437  -0.499697
 Sum of Mulliken charges =   0.00000   0.00000

 Dipole moment (field-independent basis, Debye):
    X=             -0.0000    Y=              0.0000    Z=              0.0000  Tot=              0.0000
 Quadrupole moment (field-independent basis, Debye-Ang):
   XX=            -16.8799   YY=            -20.2750   ZZ=            -12.6991
   XY=              5.9234   XZ=             -0.0000   YZ=              0.0000

 Normal termination of Gaussian 09 at Tue Feb 28 17:58:03 2017.
