 Gaussian 09, Revision E.01,
 Gaussian 09:  ES64L-G09RevE.01 30-Nov-2015

 ----------------------------------------------------------------------
 #rhf/gen scf(symm,tight,novaracc,noincfock,fulldiag) stable=opt guess=
 read geom=nocrowd test
 ----------------------------------------------------------------------

 hf stability analysis of h10 triangular lattice, y= 0.8113826706734035
 3
 ----------------------------------------------------------------------
 Symbolic Z-matrix:
 Charge =  0 Multiplicity = 1

                         Standard orientation:
 ---------------------------------------------------------------------
 Center     Atomic      Atomic             Coordinates (Angstroms)
 Number     Number       Type             X           Y           Z
 ---------------------------------------------------------------------
      1          1           0        2.139927    0.821325    0.000000
      2          1           0        2.139927   -0.257871    0.000000
      3          1           0        1.069964    0.680461    0.000000
      4          1           0        1.069964   -0.398735    0.000000
      5          1           0       -0.000000    0.539598    0.000000
      6          1           0       -0.000000   -0.539598    0.000000
      7          1           0       -1.069964    0.398735    0.000000
      8          1           0       -1.069964   -0.680461    0.000000
      9          1           0       -2.139927    0.257871    0.000000
     10          1           0       -2.139927   -0.821325    0.000000
 ---------------------------------------------------------------------

 SCF Done:  E(RHF) =  -4.84329039065     A.U. after   11 cycles
 SCF Done:  E(UHF) =  -4.95767778458     a.u. after    5 cycles

 Unable to determine electronic state:  partially filled degenerate orbitals.
 Alpha  occ. eigenvalues --   -0.87192  -0.74921  -0.55850  -0.45137  -0.38740
 Alpha virt. eigenvalues --    0.06793   0.20311   0.36756   0.53127   0.88997
  Beta  occ. eigenvalues --   -0.87192  -0.74921  -0.55850  -0.45137  -0.38740
  Beta virt. eigenvalues --    0.06793   0.20311   0.36756   0.53127   0.88997

 Mulliken charges and spin densities:
               1          2
     1  H    0.043182   0.603100
     2  H    0.011641  -0.581764
     3  H   -0.017383  -0.549286
     4  H   -0.034466   0.551290
     5  H   -0.002974   0.397032
     6  H   -0.002974  -0.397032
     7  H   -0.034466  -0.551290
     8  H   -0.017383   0.549286
     9  H    0.011641   0.581764
    10  H    0.043182  -0.603100
 Sum of Mulliken charges =  -0.00000   0.00000

 Dipole moment (field-independent basis, Debye):
    X=              0.0000    Y=              0.0000    Z=              0.0000  Tot=              0.0000
 Quadrupole moment (field-independent basis, Debye-Ang):
   XX=            -13.0828   YY=            -15.3514   ZZ=            -12.7958
   XY=              0.9257   XZ=              0.0000   YZ=             -0.0000

 Normal termination of Gaussian 09 at Tue Feb 28 18:03:38 2017.
