 Gaussian 09, Revision E.01,
 Gaussian 09:  ES64L-G09RevE.01 30-Nov-2015

 ----------------------------------------------------------------------
 #rhf/gen scf(symm,tight,novaracc,noincfock,fulldiag) stable=opt guess=
 read geom=nocrowd test
 ----------------------------------------------------------------------

 hf stability analysis of h10 triangular lattice, y= 0.3723030219932718
 7
 ----------------------------------------------------------------------
 Symbolic Z-matrix:
 Charge =  0 Multiplicity = 1

                         Standard orientation:
 ---------------------------------------------------------------------
 Center     Atomic      Atomic             Coordinates (Angstroms)
 Number     Number       Type             X           Y           Z
 ---------------------------------------------------------------------
      1          1           0        1.448065   -2.044578   -0.000000
      2          1           0        1.448065   -3.639397   -0.000000
      3          1           0        0.724032   -0.623584   -0.000000
      4          1           0        0.724032   -2.218403   -0.000000
      5          1           0        0.000000    0.797409    0.000000
      6          1           0       -0.000000   -0.797409    0.000000
      7          1           0       -0.724032    2.218403   -0.000000
      8          1           0       -0.724032    0.623584   -0.000000
      9          1           0       -1.448065    3.639397   -0.000000
     10          1           0       -1.448065    2.044578   -0.000000
 ---------------------------------------------------------------------

 SCF Done:  E(RHF) =  -4.88583671966     A.U. after   12 cycles
 SCF Done:  E(UHF) =  -5.16516075155     a.u. after    4 cycles

 Unable to determine electronic state:  partially filled degenerate orbitals.
 Alpha  occ. eigenvalues --   -0.74975  -0.69748  -0.61025  -0.50102  -0.40794
 Alpha virt. eigenvalues --    0.18331   0.23948   0.34006   0.49516   0.65110
  Beta  occ. eigenvalues --   -0.74975  -0.69748  -0.61025  -0.50102  -0.40794
  Beta virt. eigenvalues --    0.18331   0.23948   0.34006   0.49516   0.65110

 Mulliken charges and spin densities:
               1          2
     1  H   -0.005450  -0.017026
     2  H   -0.015341  -0.983904
     3  H    0.001752   0.008112
     4  H    0.015862   0.005959
     5  H    0.003178   0.012188
     6  H    0.003178  -0.012188
     7  H    0.015862  -0.005959
     8  H    0.001752  -0.008112
     9  H   -0.015341   0.983904
    10  H   -0.005450   0.017026
 Sum of Mulliken charges =   0.00000   0.00000

 Dipole moment (field-independent basis, Debye):
    X=             -0.0000    Y=              0.0000    Z=              0.0000  Tot=              0.0000
 Quadrupole moment (field-independent basis, Debye-Ang):
   XX=            -12.4590   YY=            -19.1890   ZZ=            -12.8187
   XY=              3.2391   XZ=             -0.0000   YZ=             -0.0000

 Normal termination of Gaussian 09 at Tue Feb 28 17:56:33 2017.
