 Gaussian 09, Revision E.01,
 Gaussian 09:  ES64L-G09RevE.01 30-Nov-2015

 ----------------------------------------------------------------------
 #rhf/gen scf(symm,tight,novaracc,noincfock,fulldiag) stable=opt guess=
 read geom=nocrowd test
 ----------------------------------------------------------------------

 hf stability analysis of h10 triangular lattice, y= 0.8042800232144692
 3
 ----------------------------------------------------------------------
 Symbolic Z-matrix:
 Charge =  0 Multiplicity = 1

                         Standard orientation:
 ---------------------------------------------------------------------
 Center     Atomic      Atomic             Coordinates (Angstroms)
 Number     Number       Type             X           Y           Z
 ---------------------------------------------------------------------
      1          1           0        2.142221    0.783095   -0.000000
      2          1           0        2.142221   -0.294945   -0.000000
      3          1           0        1.071111    0.661058   -0.000000
      4          1           0        1.071111   -0.416983   -0.000000
      5          1           0       -0.000000    0.539020    0.000000
      6          1           0       -0.000000   -0.539020    0.000000
      7          1           0       -1.071111    0.416983   -0.000000
      8          1           0       -1.071111   -0.661058   -0.000000
      9          1           0       -2.142221    0.294945   -0.000000
     10          1           0       -2.142221   -0.783095   -0.000000
 ---------------------------------------------------------------------

 SCF Done:  E(RHF) =  -4.84232621688     A.U. after   11 cycles
 SCF Done:  E(UHF) =  -4.95879190806     a.u. after    5 cycles

 Unable to determine electronic state:  partially filled degenerate orbitals.
 Alpha  occ. eigenvalues --   -0.87237  -0.74939  -0.55831  -0.45270  -0.38819
 Alpha virt. eigenvalues --    0.06884   0.20197   0.37010   0.53027   0.89658
  Beta  occ. eigenvalues --   -0.87237  -0.74939  -0.55831  -0.45270  -0.38819
  Beta virt. eigenvalues --    0.06884   0.20197   0.37010   0.53027   0.89658

 Mulliken charges and spin densities:
               1          2
     1  H    0.041590   0.602692
     2  H    0.013801  -0.584276
     3  H   -0.019126  -0.551115
     4  H   -0.033682   0.552934
     5  H   -0.002582   0.399922
     6  H   -0.002582  -0.399922
     7  H   -0.033682  -0.552934
     8  H   -0.019126   0.551115
     9  H    0.013801   0.584276
    10  H    0.041590  -0.602692
 Sum of Mulliken charges =   0.00000  -0.00000

 Dipole moment (field-independent basis, Debye):
    X=              0.0000    Y=              0.0000    Z=             -0.0000  Tot=              0.0000
 Quadrupole moment (field-independent basis, Debye-Ang):
   XX=            -13.0498   YY=            -15.4065   ZZ=            -12.7944
   XY=              0.8106   XZ=             -0.0000   YZ=              0.0000

 Normal termination of Gaussian 09 at Tue Feb 28 18:03:32 2017.
