 Gaussian 09, Revision E.01,
 Gaussian 09:  ES64L-G09RevE.01 30-Nov-2015

 ----------------------------------------------------------------------
 #rhf/gen scf(symm,tight,novaracc,noincfock,fulldiag) stable=opt guess=
 read geom=nocrowd test
 ----------------------------------------------------------------------

 ----------------------------------------------------------------------
 hf stability analysis of h10 triangular lattice, y= 1.1523084791052536
 ----------------------------------------------------------------------
 Symbolic Z-matrix:
 Charge =  0 Multiplicity = 1

                         Standard orientation:
 ---------------------------------------------------------------------
 Center     Atomic      Atomic             Coordinates (Angstroms)
 Number     Number       Type             X           Y           Z
 ---------------------------------------------------------------------
      1          1           0        1.837928    2.342158    0.000000
      2          1           0        1.837928    1.085633    0.000000
      3          1           0        0.918964    1.485210    0.000000
      4          1           0        0.918964    0.228685    0.000000
      5          1           0        0.000000    0.628262    0.000000
      6          1           0       -0.000000   -0.628262    0.000000
      7          1           0       -0.918964   -0.228685    0.000000
      8          1           0       -0.918964   -1.485210    0.000000
      9          1           0       -1.837928   -1.085633    0.000000
     10          1           0       -1.837928   -2.342158    0.000000
 ---------------------------------------------------------------------

 SCF Done:  E(RHF) =  -4.81824277765     A.U. after   11 cycles
 SCF Done:  E(UHF) =  -4.85447289820     a.u. after   11 cycles

 Unable to determine electronic state:  partially filled degenerate orbitals.
 Alpha  occ. eigenvalues --   -0.83255  -0.71266  -0.56638  -0.35436  -0.30137
 Alpha virt. eigenvalues --    0.08538   0.16331   0.24478   0.39837   0.60132
  Beta  occ. eigenvalues --   -0.83255  -0.71266  -0.56638  -0.35436  -0.30137
  Beta virt. eigenvalues --    0.08538   0.16331   0.24478   0.39837   0.60132

 Mulliken charges and spin densities:
               1          2
     1  H   -0.018111  -0.486944
     2  H    0.076470   0.447693
     3  H    0.050915   0.233920
     4  H   -0.112744   0.207832
     5  H    0.003470   0.302556
     6  H    0.003470  -0.302556
     7  H   -0.112744  -0.207832
     8  H    0.050915  -0.233920
     9  H    0.076470  -0.447693
    10  H   -0.018111   0.486944
 Sum of Mulliken charges =  -0.00000   0.00000

 Dipole moment (field-independent basis, Debye):
    X=              0.0000    Y=             -0.0000    Z=              0.0000  Tot=              0.0000
 Quadrupole moment (field-independent basis, Debye-Ang):
   XX=            -13.3168   YY=            -14.2687   ZZ=            -12.9994
   XY=              0.7830   XZ=             -0.0000   YZ=              0.0000

 Normal termination of Gaussian 09 at Tue Feb 28 18:07:12 2017.
