 Gaussian 09, Revision E.01,
 Gaussian 09:  ES64L-G09RevE.01 30-Nov-2015

 ----------------------------------------------------------------------
 #rhf/gen scf(symm,tight,novaracc,noincfock,fulldiag) stable=opt guess=
 read geom=nocrowd test
 ----------------------------------------------------------------------

 hf stability analysis of h10 triangular lattice, y= 0.6536181925990977
 0
 ----------------------------------------------------------------------
 Symbolic Z-matrix:
 Charge =  0 Multiplicity = 1

                         Standard orientation:
 ---------------------------------------------------------------------
 Center     Atomic      Atomic             Coordinates (Angstroms)
 Number     Number       Type             X           Y           Z
 ---------------------------------------------------------------------
      1          1           0        2.101662   -0.093120    0.000000
      2          1           0        2.101662   -1.191965    0.000000
      3          1           0        1.050831    0.228151    0.000000
      4          1           0        1.050831   -0.870694    0.000000
      5          1           0        0.000000    0.549423    0.000000
      6          1           0       -0.000000   -0.549423    0.000000
      7          1           0       -1.050831    0.870694    0.000000
      8          1           0       -1.050831   -0.228151    0.000000
      9          1           0       -2.101662    1.191965    0.000000
     10          1           0       -2.101662    0.093120    0.000000
 ---------------------------------------------------------------------

 SCF Done:  E(RHF) =  -4.85658314819     A.U. after   12 cycles
 SCF Done:  E(UHF) =  -4.93903616382     a.u. after    6 cycles

 Unable to determine electronic state:  partially filled degenerate orbitals.
 Alpha  occ. eigenvalues --   -0.86470  -0.74626  -0.56101  -0.42846  -0.37490
 Alpha virt. eigenvalues --    0.05583   0.21686   0.33085   0.54373   0.78932
  Beta  occ. eigenvalues --   -0.86470  -0.74626  -0.56101  -0.42846  -0.37490
  Beta virt. eigenvalues --    0.05583   0.21686   0.33085   0.54373   0.78932

 Mulliken charges and spin densities:
               1          2
     1  H   -0.002249  -0.544183
     2  H    0.047829   0.596336
     3  H   -0.043006   0.513552
     4  H    0.007460  -0.514178
     5  H   -0.010033  -0.340236
     6  H   -0.010033   0.340236
     7  H    0.007460   0.514178
     8  H   -0.043006  -0.513552
     9  H    0.047829  -0.596336
    10  H   -0.002249   0.544183
 Sum of Mulliken charges =   0.00000  -0.00000

 Dipole moment (field-independent basis, Debye):
    X=              0.0000    Y=             -0.0000    Z=              0.0000  Tot=              0.0000
 Quadrupole moment (field-independent basis, Debye-Ang):
   XX=            -13.5855   YY=            -14.5540   ZZ=            -12.8241
   XY=             -1.7194   XZ=             -0.0000   YZ=             -0.0000

 Normal termination of Gaussian 09 at Tue Feb 28 18:01:14 2017.
