 Gaussian 09, Revision E.01,
 Gaussian 09:  ES64L-G09RevE.01 30-Nov-2015

 ----------------------------------------------------------------------
 #rhf/gen scf(symm,tight,novaracc,noincfock,fulldiag) stable=opt guess=
 read geom=nocrowd test
 ----------------------------------------------------------------------

 hf stability analysis of h10 triangular lattice, y= 0.2463370865798451
 8
 ----------------------------------------------------------------------
 Symbolic Z-matrix:
 Charge =  0 Multiplicity = 1

                         Standard orientation:
 ---------------------------------------------------------------------
 Center     Atomic      Atomic             Coordinates (Angstroms)
 Number     Number       Type             X           Y           Z
 ---------------------------------------------------------------------
      1          1           0        0.979950   -3.431979   -0.000000
      2          1           0        0.979950   -5.788630   -0.000000
      3          1           0        0.489975   -1.126827   -0.000000
      4          1           0        0.489975   -3.483478   -0.000000
      5          1           0        0.000000    1.178325    0.000000
      6          1           0       -0.000000   -1.178325    0.000000
      7          1           0       -0.489975    3.483478   -0.000000
      8          1           0       -0.489975    1.126827   -0.000000
      9          1           0       -0.979950    5.788630   -0.000000
     10          1           0       -0.979950    3.431979   -0.000000
 ---------------------------------------------------------------------

 SCF Done:  E(RHF) =  -4.49526823891     A.U. after    9 cycles
 SCF Done:  E(UHF) =  -4.78762692291     a.u. after    3 cycles

 Unable to determine electronic state:  partially filled degenerate orbitals.
 Alpha  occ. eigenvalues --   -0.73625  -0.72361  -0.70584  -0.68944  -0.49692
 Alpha virt. eigenvalues --    0.13240   0.53790   0.58718   0.65511   0.71653
  Beta  occ. eigenvalues --   -0.73625  -0.72361  -0.70584  -0.68944  -0.49692
  Beta virt. eigenvalues --    0.13240   0.53790   0.58718   0.65511   0.71653

 Mulliken charges and spin densities:
               1          2
     1  H   -0.000961   0.001543
     2  H    0.003114  -1.003113
     3  H   -0.000088   0.000012
     4  H   -0.002156   0.001574
     5  H    0.000091   0.000016
     6  H    0.000091  -0.000016
     7  H   -0.002156  -0.001574
     8  H   -0.000088  -0.000012
     9  H    0.003114   1.003113
    10  H   -0.000961  -0.001543
 Sum of Mulliken charges =   0.00000   0.00000

 Dipole moment (field-independent basis, Debye):
    X=              0.0000    Y=             -0.0000    Z=             -0.0000  Tot=              0.0000
 Quadrupole moment (field-independent basis, Debye-Ang):
   XX=            -12.6393   YY=            -14.7351   ZZ=            -13.4518
   XY=              0.3234   XZ=             -0.0000   YZ=              0.0000

 Normal termination of Gaussian 09 at Tue Feb 28 17:55:09 2017.
