 Gaussian 09, Revision E.01,
 Gaussian 09:  ES64L-G09RevE.01 30-Nov-2015

 ----------------------------------------------------------------------
 #rhf/gen scf(symm,tight,novaracc,noincfock,fulldiag) stable=opt guess=
 read geom=nocrowd test
 ----------------------------------------------------------------------

 hf stability analysis of h10 triangular lattice, y= 0.7698484628422243
 0
 ----------------------------------------------------------------------
 Symbolic Z-matrix:
 Charge =  0 Multiplicity = 1

                         Standard orientation:
 ---------------------------------------------------------------------
 Center     Atomic      Atomic             Coordinates (Angstroms)
 Number     Number       Type             X           Y           Z
 ---------------------------------------------------------------------
      1          1           0        2.148772    0.593645    0.000000
      2          1           0        2.148772   -0.481109    0.000000
      3          1           0        1.074386    0.565511    0.000000
      4          1           0        1.074386   -0.509243    0.000000
      5          1           0        0.000000    0.537377    0.000000
      6          1           0       -0.000000   -0.537377    0.000000
      7          1           0       -1.074386    0.509243    0.000000
      8          1           0       -1.074386   -0.565511    0.000000
      9          1           0       -2.148772    0.481109    0.000000
     10          1           0       -2.148772   -0.593645    0.000000
 ---------------------------------------------------------------------

 SCF Done:  E(RHF) =  -4.83946639503     A.U. after   11 cycles
 SCF Done:  E(UHF) =  -4.96196522218     a.u. after    5 cycles

 Unable to determine electronic state:  partially filled degenerate orbitals.
 Alpha  occ. eigenvalues --   -0.87363  -0.74992  -0.55771  -0.45646  -0.39049
 Alpha virt. eigenvalues --    0.07158   0.19852   0.37764   0.52719   0.91585
  Beta  occ. eigenvalues --   -0.87363  -0.74992  -0.55771  -0.45646  -0.39049
  Beta virt. eigenvalues --    0.07158   0.19852   0.37764   0.52719   0.91585

 Mulliken charges and spin densities:
               1          2
     1  H    0.031858   0.598420
     2  H    0.025151  -0.594218
     3  H   -0.026164  -0.556497
     4  H   -0.029361   0.556967
     5  H   -0.001485   0.407880
     6  H   -0.001485  -0.407880
     7  H   -0.029361  -0.556967
     8  H   -0.026164   0.556497
     9  H    0.025151   0.594218
    10  H    0.031858  -0.598420
 Sum of Mulliken charges =   0.00000   0.00000

 Dipole moment (field-independent basis, Debye):
    X=             -0.0000    Y=             -0.0000    Z=              0.0000  Tot=              0.0000
 Quadrupole moment (field-independent basis, Debye-Ang):
   XX=            -12.9541   YY=            -15.5680   ZZ=            -12.7903
   XY=              0.1925   XZ=             -0.0000   YZ=              0.0000

 Normal termination of Gaussian 09 at Tue Feb 28 18:03:03 2017.
