 Gaussian 09, Revision E.01,
 Gaussian 09:  ES64L-G09RevE.01 30-Nov-2015

 ----------------------------------------------------------------------
 #rhf/gen scf(symm,tight,novaracc,noincfock,fulldiag) stable=opt guess=
 read geom=nocrowd test
 ----------------------------------------------------------------------

 ----------------------------------------------------------------------
 hf stability analysis of h10 triangular lattice, y= 1.6660489144325314
 ----------------------------------------------------------------------
 Symbolic Z-matrix:
 Charge =  0 Multiplicity = 1

                         Standard orientation:
 ---------------------------------------------------------------------
 Center     Atomic      Atomic             Coordinates (Angstroms)
 Number     Number       Type             X           Y           Z
 ---------------------------------------------------------------------
      1          1           0        1.357108    3.971989   -0.000000
      2          1           0        1.357108    2.270282   -0.000000
      3          1           0        0.678554    2.411422   -0.000000
      4          1           0        0.678554    0.709714   -0.000000
      5          1           0       -0.000000    0.850854    0.000000
      6          1           0       -0.000000   -0.850854   -0.000000
      7          1           0       -0.678554   -0.709714   -0.000000
      8          1           0       -0.678554   -2.411422   -0.000000
      9          1           0       -1.357108   -2.270282   -0.000000
     10          1           0       -1.357108   -3.971989   -0.000000
 ---------------------------------------------------------------------

 SCF Done:  E(RHF) =  -4.91442608855     A.U. after   11 cycles
 SCF Done:  E(UHF) =  -5.19745542194     a.u. after    4 cycles

 Unable to determine electronic state:  partially filled degenerate orbitals.
 Alpha  occ. eigenvalues --   -0.74104  -0.69722  -0.62443  -0.53513  -0.44358
 Alpha virt. eigenvalues --    0.16786   0.29087   0.38312   0.52344   0.66321
  Beta  occ. eigenvalues --   -0.74104  -0.69722  -0.62443  -0.53513  -0.44358
  Beta virt. eigenvalues --    0.16786   0.29087   0.38312   0.52344   0.66321

 Mulliken charges and spin densities:
               1          2
     1  H   -0.003256  -0.996484
     2  H   -0.003765  -0.004493
     3  H    0.005020   0.003041
     4  H    0.000133   0.002583
     5  H    0.001869  -0.004355
     6  H    0.001869   0.004355
     7  H    0.000133  -0.002583
     8  H    0.005020  -0.003041
     9  H   -0.003765   0.004493
    10  H   -0.003256   0.996484
 Sum of Mulliken charges =   0.00000  -0.00000

 Dipole moment (field-independent basis, Debye):
    X=             -0.0000    Y=             -0.0000    Z=              0.0000  Tot=              0.0000
 Quadrupole moment (field-independent basis, Debye-Ang):
   XX=            -12.1856   YY=            -17.9514   ZZ=            -12.9484
   XY=             -2.2123   XZ=             -0.0000   YZ=              0.0000

 Normal termination of Gaussian 09 at Tue Feb 28 18:09:43 2017.
