 Gaussian 09, Revision E.01,
 Gaussian 09:  ES64L-G09RevE.01 30-Nov-2015

 ----------------------------------------------------------------------
 #rhf/gen scf(symm,tight,novaracc,noincfock,fulldiag) stable=opt guess=
 read geom=nocrowd test
 ----------------------------------------------------------------------

 hf stability analysis of h10 triangular lattice, y= 0.9754198370359219
 4
 ----------------------------------------------------------------------
 Symbolic Z-matrix:
 Charge =  0 Multiplicity = 1

                         Standard orientation:
 ---------------------------------------------------------------------
 Center     Atomic      Atomic             Coordinates (Angstroms)
 Number     Number       Type             X           Y           Z
 ---------------------------------------------------------------------
      1          1           0        2.024087    1.624153   -0.000000
      2          1           0        2.024087    0.483193   -0.000000
      3          1           0        1.012043    1.097316   -0.000000
      4          1           0        1.012043   -0.043643   -0.000000
      5          1           0       -0.000000    0.570480   -0.000000
      6          1           0       -0.000000   -0.570480   -0.000000
      7          1           0       -1.012043    0.043643   -0.000000
      8          1           0       -1.012043   -1.097316   -0.000000
      9          1           0       -2.024087   -0.483193   -0.000000
     10          1           0       -2.024087   -1.624153   -0.000000
 ---------------------------------------------------------------------

 SCF Done:  E(RHF) =  -4.86818488180     A.U. after   10 cycles
 SCF Done:  E(UHF) =  -4.90345163534     a.u. after    7 cycles

 Unable to determine electronic state:  partially filled degenerate orbitals.
 Alpha  occ. eigenvalues --   -0.85151  -0.74072  -0.56255  -0.37819  -0.35387
 Alpha virt. eigenvalues --    0.04236   0.21367   0.28567   0.55334   0.62963
  Beta  occ. eigenvalues --   -0.85151  -0.74072  -0.56255  -0.37819  -0.35387
  Beta virt. eigenvalues --    0.04236   0.21367   0.28567   0.55334   0.62963

 Mulliken charges and spin densities:
               1          2
     1  H    0.013707   0.553692
     2  H    0.018166  -0.456475
     3  H    0.058977  -0.411391
     4  H   -0.072359   0.355075
     5  H   -0.018491   0.160863
     6  H   -0.018491  -0.160863
     7  H   -0.072359  -0.355075
     8  H    0.058977   0.411391
     9  H    0.018166   0.456475
    10  H    0.013707  -0.553692
 Sum of Mulliken charges =  -0.00000  -0.00000

 Dipole moment (field-independent basis, Debye):
    X=             -0.0000    Y=              0.0000    Z=             -0.0000  Tot=              0.0000
 Quadrupole moment (field-independent basis, Debye-Ang):
   XX=            -14.2094   YY=            -13.8657   ZZ=            -12.9018
   XY=              1.4394   XZ=              0.0000   YZ=             -0.0000

 Normal termination of Gaussian 09 at Tue Feb 28 18:05:37 2017.
