 Gaussian 09, Revision E.01,
 Gaussian 09:  ES64L-G09RevE.01 30-Nov-2015

 ----------------------------------------------------------------------
 #rhf/gen scf(symm,tight,novaracc,noincfock,fulldiag) stable=opt guess=
 read geom=nocrowd test
 ----------------------------------------------------------------------

 ----------------------------------------------------------------------
 hf stability analysis of h10 triangular lattice, y= 1.1127136872907215
 ----------------------------------------------------------------------
 Symbolic Z-matrix:
 Charge =  0 Multiplicity = 1

                         Standard orientation:
 ---------------------------------------------------------------------
 Center     Atomic      Atomic             Coordinates (Angstroms)
 Number     Number       Type             X           Y           Z
 ---------------------------------------------------------------------
      1          1           0        1.881012    2.192229    0.000000
      2          1           0        1.881012    0.964485    0.000000
      3          1           0        0.940506    1.403050    0.000000
      4          1           0        0.940506    0.175307    0.000000
      5          1           0       -0.000000    0.613872   -0.000000
      6          1           0       -0.000000   -0.613872   -0.000000
      7          1           0       -0.940506   -0.175307    0.000000
      8          1           0       -0.940506   -1.403050   -0.000000
      9          1           0       -1.881012   -0.964485    0.000000
     10          1           0       -1.881012   -2.192229   -0.000000
 ---------------------------------------------------------------------

 SCF Done:  E(RHF) =  -4.83921719687     A.U. after   10 cycles
 SCF Done:  E(UHF) =  -4.86823721060     a.u. after   10 cycles

 Unable to determine electronic state:  partially filled degenerate orbitals.
 Alpha  occ. eigenvalues --   -0.83961  -0.71862  -0.56403  -0.34413  -0.32123
 Alpha virt. eigenvalues --    0.07643   0.16872   0.25633   0.42428   0.59014
  Beta  occ. eigenvalues --   -0.83961  -0.71862  -0.56403  -0.34413  -0.32123
  Beta virt. eigenvalues --    0.07643   0.16872   0.25633   0.42428   0.59014

 Mulliken charges and spin densities:
               1          2
     1  H   -0.038211  -0.447982
     2  H    0.089658   0.430852
     3  H    0.061043   0.231000
     4  H   -0.126172   0.184560
     5  H    0.013683   0.271200
     6  H    0.013683  -0.271200
     7  H   -0.126172  -0.184560
     8  H    0.061043  -0.231000
     9  H    0.089658  -0.430852
    10  H   -0.038211   0.447982
 Sum of Mulliken charges =  -0.00000  -0.00000

 Dipole moment (field-independent basis, Debye):
    X=             -0.0000    Y=             -0.0000    Z=             -0.0000  Tot=              0.0000
 Quadrupole moment (field-independent basis, Debye-Ang):
   XX=            -13.6540   YY=            -14.9621   ZZ=            -12.9847
   XY=              0.1087   XZ=              0.0000   YZ=             -0.0000

 Normal termination of Gaussian 09 at Tue Feb 28 18:06:54 2017.
