 Gaussian 09, Revision E.01,
 Gaussian 09:  ES64L-G09RevE.01 30-Nov-2015

 ----------------------------------------------------------------------
 #rhf/gen scf(symm,tight,novaracc,noincfock,fulldiag) stable=opt guess=
 read geom=nocrowd test
 ----------------------------------------------------------------------

 ----------------------------------------------------------------------
 hf stability analysis of h10 triangular lattice, y= 1.4552307619668963
 ----------------------------------------------------------------------
 Symbolic Z-matrix:
 Charge =  0 Multiplicity = 1

                         Standard orientation:
 ---------------------------------------------------------------------
 Center     Atomic      Atomic             Coordinates (Angstroms)
 Number     Number       Type             X           Y           Z
 ---------------------------------------------------------------------
      1          1           0        1.531084    3.353437   -0.000000
      2          1           0        1.531084    1.845094   -0.000000
      3          1           0        0.765542    2.053805   -0.000000
      4          1           0        0.765542    0.545461   -0.000000
      5          1           0        0.000000    0.754172   -0.000000
      6          1           0       -0.000000   -0.754172   -0.000000
      7          1           0       -0.765542   -0.545461    0.000000
      8          1           0       -0.765542   -2.053805   -0.000000
      9          1           0       -1.531084   -1.845094   -0.000000
     10          1           0       -1.531084   -3.353437   -0.000000
 ---------------------------------------------------------------------

 SCF Done:  E(RHF) =  -4.82461027403     A.U. after   13 cycles
 SCF Done:  E(UHF) =  -5.10068210386     a.u. after    5 cycles

 Unable to determine electronic state:  partially filled degenerate orbitals.
 Alpha  occ. eigenvalues --   -0.76094  -0.70016  -0.59961  -0.47312  -0.36672
 Alpha virt. eigenvalues --    0.18599   0.20754   0.30167   0.46879   0.63691
  Beta  occ. eigenvalues --   -0.76094  -0.70016  -0.59961  -0.47312  -0.36672
  Beta virt. eigenvalues --    0.18599   0.20754   0.30167   0.46879   0.63691

 Mulliken charges and spin densities:
               1          2
     1  H   -0.034672  -0.963109
     2  H   -0.008960  -0.045943
     3  H    0.033243   0.019688
     4  H    0.006285   0.023667
     5  H    0.004104  -0.031817
     6  H    0.004104   0.031817
     7  H    0.006285  -0.023667
     8  H    0.033243  -0.019688
     9  H   -0.008960   0.045943
    10  H   -0.034672   0.963109
 Sum of Mulliken charges =   0.00000  -0.00000

 Dipole moment (field-independent basis, Debye):
    X=              0.0000    Y=              0.0000    Z=              0.0000  Tot=              0.0000
 Quadrupole moment (field-independent basis, Debye-Ang):
   XX=            -13.0455   YY=            -20.4860   ZZ=            -12.7096
   XY=             -4.4988   XZ=             -0.0000   YZ=             -0.0000

 Normal termination of Gaussian 09 at Tue Feb 28 18:09:02 2017.
