 Gaussian 09, Revision E.01,
 Gaussian 09:  ES64L-G09RevE.01 30-Nov-2015

 ----------------------------------------------------------------------
 #rhf/gen scf(symm,tight,novaracc,noincfock,fulldiag) stable=opt guess=
 read geom=nocrowd test
 ----------------------------------------------------------------------

 hf stability analysis of h10 triangular lattice, y= 0.6506387228320011
 9
 ----------------------------------------------------------------------
 Symbolic Z-matrix:
 Charge =  0 Multiplicity = 1

                         Standard orientation:
 ---------------------------------------------------------------------
 Center     Atomic      Atomic             Coordinates (Angstroms)
 Number     Number       Type             X           Y           Z
 ---------------------------------------------------------------------
      1          1           0        2.098816   -0.111587    0.000000
      2          1           0        2.098816   -1.211922    0.000000
      3          1           0        1.049408    0.219290    0.000000
      4          1           0        1.049408   -0.881045    0.000000
      5          1           0       -0.000000    0.550168    0.000000
      6          1           0       -0.000000   -0.550168    0.000000
      7          1           0       -1.049408    0.881045    0.000000
      8          1           0       -1.049408   -0.219290    0.000000
      9          1           0       -2.098816    1.211922    0.000000
     10          1           0       -2.098816    0.111587    0.000000
 ---------------------------------------------------------------------

 SCF Done:  E(RHF) =  -4.85736601986     A.U. after   12 cycles
 SCF Done:  E(UHF) =  -4.93765645341     a.u. after    7 cycles

 Unable to determine electronic state:  partially filled degenerate orbitals.
 Alpha  occ. eigenvalues --   -0.86417  -0.74605  -0.56114  -0.42670  -0.37403
 Alpha virt. eigenvalues --    0.05511   0.21751   0.32850   0.54441   0.78249
  Beta  occ. eigenvalues --   -0.86417  -0.74605  -0.56114  -0.42670  -0.37403
  Beta virt. eigenvalues --    0.05511   0.21751   0.32850   0.54441   0.78249

 Mulliken charges and spin densities:
               1          2
     1  H   -0.002432  -0.541255
     2  H    0.047353   0.595272
     3  H   -0.043631   0.509939
     4  H    0.009291  -0.511140
     5  H   -0.010581  -0.335316
     6  H   -0.010581   0.335316
     7  H    0.009291   0.511140
     8  H   -0.043631  -0.509939
     9  H    0.047353  -0.595272
    10  H   -0.002432   0.541255
 Sum of Mulliken charges =   0.00000   0.00000

 Dipole moment (field-independent basis, Debye):
    X=              0.0000    Y=             -0.0000    Z=              0.0000  Tot=              0.0000
 Quadrupole moment (field-independent basis, Debye-Ang):
   XX=            -13.6186   YY=            -14.5050   ZZ=            -12.8265
   XY=             -1.7399   XZ=              0.0000   YZ=              0.0000

 Normal termination of Gaussian 09 at Tue Feb 28 18:01:11 2017.
