 Gaussian 09, Revision E.01,
 Gaussian 09:  ES64L-G09RevE.01 30-Nov-2015

 ----------------------------------------------------------------------
 #rhf/gen scf(symm,tight,novaracc,noincfock,fulldiag) stable=opt guess=
 read geom=nocrowd test
 ----------------------------------------------------------------------

 hf stability analysis of h10 triangular lattice, y= 0.7800001708434697
 3
 ----------------------------------------------------------------------
 Symbolic Z-matrix:
 Charge =  0 Multiplicity = 1

                         Standard orientation:
 ---------------------------------------------------------------------
 Center     Atomic      Atomic             Coordinates (Angstroms)
 Number     Number       Type             X           Y           Z
 ---------------------------------------------------------------------
      1          1           0        2.147667    0.650208    0.000000
      2          1           0        2.147667   -0.425099    0.000000
      3          1           0        1.073833    0.593931    0.000000
      4          1           0        1.073833   -0.481376    0.000000
      5          1           0        0.000000    0.537654    0.000000
      6          1           0       -0.000000   -0.537654   -0.000000
      7          1           0       -1.073833    0.481376    0.000000
      8          1           0       -1.073833   -0.593931    0.000000
      9          1           0       -2.147667    0.425099    0.000000
     10          1           0       -2.147667   -0.650208    0.000000
 ---------------------------------------------------------------------

 SCF Done:  E(RHF) =  -4.83995994763     A.U. after   11 cycles
 SCF Done:  E(UHF) =  -4.96143083941     a.u. after    5 cycles

 Unable to determine electronic state:  partially filled degenerate orbitals.
 Alpha  occ. eigenvalues --   -0.87342  -0.74983  -0.55781  -0.45583  -0.39010
 Alpha virt. eigenvalues --    0.07110   0.19912   0.37634   0.52773   0.91256
  Beta  occ. eigenvalues --   -0.87342  -0.74983  -0.55781  -0.45583  -0.39010
  Beta virt. eigenvalues --    0.07110   0.19912   0.37634   0.52773   0.91256

 Mulliken charges and spin densities:
               1          2
     1  H    0.035026   0.600068
     2  H    0.021710  -0.591648
     3  H   -0.024310  -0.555502
     4  H   -0.030759   0.556425
     5  H   -0.001667   0.406568
     6  H   -0.001667  -0.406568
     7  H   -0.030759  -0.556425
     8  H   -0.024310   0.555502
     9  H    0.021710   0.591648
    10  H    0.035026  -0.600068
 Sum of Mulliken charges =   0.00000  -0.00000

 Dipole moment (field-independent basis, Debye):
    X=             -0.0000    Y=              0.0000    Z=              0.0000  Tot=              0.0000
 Quadrupole moment (field-independent basis, Debye-Ang):
   XX=            -12.9704   YY=            -15.5404   ZZ=            -12.7910
   XY=              0.3831   XZ=              0.0000   YZ=             -0.0000

 Normal termination of Gaussian 09 at Tue Feb 28 18:03:12 2017.
