 Gaussian 09, Revision E.01,
 Gaussian 09:  ES64L-G09RevE.01 30-Nov-2015

 ----------------------------------------------------------------------
 #rhf/gen scf(symm,tight,novaracc,noincfock,fulldiag) stable=opt guess=
 read geom=nocrowd test
 ----------------------------------------------------------------------

 ----------------------------------------------------------------------
 hf stability analysis of h10 triangular lattice, y= 1.3041546076852373
 ----------------------------------------------------------------------
 Symbolic Z-matrix:
 Charge =  0 Multiplicity = 1

                         Standard orientation:
 ---------------------------------------------------------------------
 Center     Atomic      Atomic             Coordinates (Angstroms)
 Number     Number       Type             X           Y           Z
 ---------------------------------------------------------------------
      1          1           0        1.676827    2.873906    0.000000
      2          1           0        1.676827    1.496661    0.000000
      3          1           0        0.838414    1.781264    0.000000
      4          1           0        0.838414    0.404019    0.000000
      5          1           0        0.000000    0.688622    0.000000
      6          1           0       -0.000000   -0.688622   -0.000000
      7          1           0       -0.838414   -0.404019    0.000000
      8          1           0       -0.838414   -1.781264   -0.000000
      9          1           0       -1.676827   -1.496661   -0.000000
     10          1           0       -1.676827   -2.873906   -0.000000
 ---------------------------------------------------------------------

 SCF Done:  E(RHF) =  -4.70231520027     A.U. after   12 cycles
 SCF Done:  E(UHF) =  -4.92504909745     a.u. after    9 cycles
 SCF Done:  E(UHF) =  -4.92573023423     a.u. after    6 cycles

 Unable to determine electronic state:  partially filled degenerate orbitals.
 Alpha  occ. eigenvalues --   -0.79503  -0.71145  -0.58939  -0.42530  -0.30561
 Alpha virt. eigenvalues --    0.11648   0.23478   0.25749   0.40420   0.60795
  Beta  occ. eigenvalues --   -0.79291  -0.71814  -0.58778  -0.43858  -0.28943
  Beta virt. eigenvalues --    0.11260   0.22654   0.23512   0.43439   0.60084

 Mulliken charges and spin densities:
               1          2
     1  H   -0.083786  -0.907688
     2  H   -0.025596  -0.052898
     3  H    0.080664  -0.000072
     4  H    0.043556  -0.271968
     5  H   -0.005586   0.245004
     6  H   -0.018590   0.470026
     7  H    0.028203  -0.446383
     8  H    0.094624  -0.273016
     9  H   -0.032339   0.369074
    10  H   -0.081149   0.867922
 Sum of Mulliken charges =   0.00000  -0.00000

 Dipole moment (field-independent basis, Debye):
    X=              0.0387    Y=             -0.0346    Z=             -0.0000  Tot=              0.0519
 Quadrupole moment (field-independent basis, Debye-Ang):
   XX=            -15.2150   YY=            -21.7309   ZZ=            -12.5966
   XY=             -6.4497   XZ=             -0.0000   YZ=             -0.0000

 Normal termination of Gaussian 09 at Tue Feb 28 18:08:19 2017.
