 Gaussian 09, Revision E.01,
 Gaussian 09:  ES64L-G09RevE.01 30-Nov-2015

 ----------------------------------------------------------------------
 #rhf/gen scf(symm,tight,novaracc,noincfock,fulldiag) stable=opt guess=
 read geom=nocrowd test
 ----------------------------------------------------------------------

 ----------------------------------------------------------------------
 hf stability analysis of h10 triangular lattice, y= 1.5973482699307082
 ----------------------------------------------------------------------
 Symbolic Z-matrix:
 Charge =  0 Multiplicity = 1

                         Standard orientation:
 ---------------------------------------------------------------------
 Center     Atomic      Atomic             Coordinates (Angstroms)
 Number     Number       Type             X           Y           Z
 ---------------------------------------------------------------------
      1          1           0        1.410123    3.775249    0.000000
      2          1           0        1.410123    2.137518    0.000000
      3          1           0        0.705061    2.297057    0.000000
      4          1           0        0.705061    0.659326    0.000000
      5          1           0       -0.000000    0.818865   -0.000000
      6          1           0       -0.000000   -0.818865    0.000000
      7          1           0       -0.705061   -0.659326    0.000000
      8          1           0       -0.705061   -2.297057    0.000000
      9          1           0       -1.410123   -2.137518    0.000000
     10          1           0       -1.410123   -3.775249    0.000000
 ---------------------------------------------------------------------

 SCF Done:  E(RHF) =  -4.90288148687     A.U. after   12 cycles
 SCF Done:  E(UHF) =  -5.18375890864     a.u. after    4 cycles

 Unable to determine electronic state:  partially filled degenerate orbitals.
 Alpha  occ. eigenvalues --   -0.74572  -0.69705  -0.61584  -0.51472  -0.42419
 Alpha virt. eigenvalues --    0.17658   0.26063   0.35787   0.50698   0.65648
  Beta  occ. eigenvalues --   -0.74572  -0.69705  -0.61584  -0.51472  -0.42419
  Beta virt. eigenvalues --    0.17658   0.26063   0.35787   0.50698   0.65648

 Mulliken charges and spin densities:
               1          2
     1  H   -0.009338  -0.990181
     2  H   -0.004604  -0.010373
     3  H    0.010517   0.004060
     4  H    0.000834   0.005035
     5  H    0.002591  -0.007948
     6  H    0.002591   0.007948
     7  H    0.000834  -0.005035
     8  H    0.010517  -0.004060
     9  H   -0.004604   0.010373
    10  H   -0.009338   0.990181
 Sum of Mulliken charges =   0.00000   0.00000

 Dipole moment (field-independent basis, Debye):
    X=              0.0000    Y=              0.0000    Z=             -0.0000  Tot=              0.0000
 Quadrupole moment (field-independent basis, Debye-Ang):
   XX=            -12.3081   YY=            -18.6474   ZZ=            -12.8719
   XY=             -2.7703   XZ=              0.0000   YZ=              0.0000

 Normal termination of Gaussian 09 at Tue Feb 28 18:09:30 2017.
