 Gaussian 09, Revision E.01,
 Gaussian 09:  ES64L-G09RevE.01 30-Nov-2015

 ----------------------------------------------------------------------
 #rhf/gen scf(symm,tight,novaracc,noincfock,fulldiag) stable=opt guess=
 read geom=nocrowd test
 ----------------------------------------------------------------------

 hf stability analysis of h10 triangular lattice, y= 0.6211063758797595
 9
 ----------------------------------------------------------------------
 Symbolic Z-matrix:
 Charge =  0 Multiplicity = 1

                         Standard orientation:
 ---------------------------------------------------------------------
 Center     Atomic      Atomic             Coordinates (Angstroms)
 Number     Number       Type             X           Y           Z
 ---------------------------------------------------------------------
      1          1           0        2.065724   -0.296670    0.000000
      2          1           0        2.065724   -1.414632    0.000000
      3          1           0        1.032862    0.131155    0.000000
      4          1           0        1.032862   -0.986806    0.000000
      5          1           0        0.000000    0.558981   -0.000000
      6          1           0       -0.000000   -0.558981   -0.000000
      7          1           0       -1.032862    0.986806    0.000000
      8          1           0       -1.032862   -0.131155    0.000000
      9          1           0       -2.065724    1.414632    0.000000
     10          1           0       -2.065724    0.296670    0.000000
 ---------------------------------------------------------------------

 SCF Done:  E(RHF) =  -4.86444479757     A.U. after   12 cycles
 SCF Done:  E(UHF) =  -4.92188862661     a.u. after    7 cycles

 Unable to determine electronic state:  partially filled degenerate orbitals.
 Alpha  occ. eigenvalues --   -0.85821  -0.74369  -0.56216  -0.40566  -0.36441
 Alpha virt. eigenvalues --    0.04809   0.22096   0.30480   0.55062   0.70857
  Beta  occ. eigenvalues --   -0.85821  -0.74369  -0.56216  -0.40566  -0.36441
  Beta virt. eigenvalues --    0.04809   0.22096   0.30480   0.55062   0.70857

 Mulliken charges and spin densities:
               1          2
     1  H    0.000936  -0.504612
     2  H    0.036921   0.579317
     3  H   -0.052447   0.457925
     4  H    0.031207  -0.471221
     5  H   -0.016617  -0.270065
     6  H   -0.016617   0.270065
     7  H    0.031207   0.471221
     8  H   -0.052447  -0.457925
     9  H    0.036921  -0.579317
    10  H    0.000936   0.504612
 Sum of Mulliken charges =   0.00000   0.00000

 Dipole moment (field-independent basis, Debye):
    X=              0.0000    Y=             -0.0000    Z=              0.0000  Tot=              0.0000
 Quadrupole moment (field-independent basis, Debye-Ang):
   XX=            -13.9489   YY=            -14.0578   ZZ=            -12.8572
   XY=             -1.7768   XZ=             -0.0000   YZ=             -0.0000

 Normal termination of Gaussian 09 at Tue Feb 28 18:00:41 2017.
