 Gaussian 09, Revision E.01,
 Gaussian 09:  ES64L-G09RevE.01 30-Nov-2015

 ----------------------------------------------------------------------
 #rhf/gen scf(symm,tight,novaracc,noincfock,fulldiag) stable=opt guess=
 read geom=nocrowd test
 ----------------------------------------------------------------------

 ----------------------------------------------------------------------
 hf stability analysis of h10 triangular lattice, y= 1.1454817383776770
 ----------------------------------------------------------------------
 Symbolic Z-matrix:
 Charge =  0 Multiplicity = 1

                         Standard orientation:
 ---------------------------------------------------------------------
 Center     Atomic      Atomic             Coordinates (Angstroms)
 Number     Number       Type             X           Y           Z
 ---------------------------------------------------------------------
      1          1           0        1.845356    2.316690    0.000000
      2          1           0        1.845356    1.065224    0.000000
      3          1           0        0.922678    1.471212    0.000000
      4          1           0        0.922678    0.219745    0.000000
      5          1           0        0.000000    0.625733    0.000000
      6          1           0       -0.000000   -0.625733   -0.000000
      7          1           0       -0.922678   -0.219745    0.000000
      8          1           0       -0.922678   -1.471212    0.000000
      9          1           0       -1.845356   -1.065224    0.000000
     10          1           0       -1.845356   -2.316690    0.000000
 ---------------------------------------------------------------------

 SCF Done:  E(RHF) =  -4.82225244309     A.U. after   11 cycles
 SCF Done:  E(UHF) =  -4.85714836767     a.u. after   11 cycles

 Unable to determine electronic state:  partially filled degenerate orbitals.
 Alpha  occ. eigenvalues --   -0.83376  -0.71372  -0.56595  -0.35254  -0.30485
 Alpha virt. eigenvalues --    0.08439   0.16369   0.24732   0.40175   0.59941
  Beta  occ. eigenvalues --   -0.83376  -0.71372  -0.56595  -0.35254  -0.30485
  Beta virt. eigenvalues --    0.08439   0.16369   0.24732   0.40175   0.59941

 Mulliken charges and spin densities:
               1          2
     1  H   -0.021620  -0.480204
     2  H    0.078839   0.444655
     3  H    0.052681   0.232775
     4  H   -0.114939   0.204611
     5  H    0.005038   0.297820
     6  H    0.005038  -0.297820
     7  H   -0.114939  -0.204611
     8  H    0.052681  -0.232775
     9  H    0.078839  -0.444655
    10  H   -0.021620   0.480204
 Sum of Mulliken charges =  -0.00000  -0.00000

 Dipole moment (field-independent basis, Debye):
    X=             -0.0000    Y=             -0.0000    Z=              0.0000  Tot=              0.0000
 Quadrupole moment (field-independent basis, Debye-Ang):
   XX=            -13.3683   YY=            -14.4038   ZZ=            -12.9971
   XY=              0.6648   XZ=              0.0000   YZ=             -0.0000

 Normal termination of Gaussian 09 at Tue Feb 28 18:07:09 2017.
