 Gaussian 09, Revision E.01,
 Gaussian 09:  ES64L-G09RevE.01 30-Nov-2015

 ----------------------------------------------------------------------
 #rhf/gen scf(symm,tight,novaracc,noincfock,fulldiag) stable=opt guess=
 read geom=nocrowd test
 ----------------------------------------------------------------------

 ----------------------------------------------------------------------
 hf stability analysis of h10 triangular lattice, y= 1.5360456330340897
 ----------------------------------------------------------------------
 Symbolic Z-matrix:
 Charge =  0 Multiplicity = 1

                         Standard orientation:
 ---------------------------------------------------------------------
 Center     Atomic      Atomic             Coordinates (Angstroms)
 Number     Number       Type             X           Y           Z
 ---------------------------------------------------------------------
      1          1           0        1.460385    3.596057   -0.000000
      2          1           0        1.460385    2.014692   -0.000000
      3          1           0        0.730193    2.193369   -0.000000
      4          1           0        0.730193    0.612005   -0.000000
      5          1           0        0.000000    0.790682   -0.000000
      6          1           0       -0.000000   -0.790682   -0.000000
      7          1           0       -0.730193   -0.612005   -0.000000
      8          1           0       -0.730193   -2.193369   -0.000000
      9          1           0       -1.460385   -2.014692   -0.000000
     10          1           0       -1.460385   -3.596057   -0.000000
 ---------------------------------------------------------------------

 SCF Done:  E(RHF) =  -4.87878090848     A.U. after   12 cycles
 SCF Done:  E(UHF) =  -5.15760835717     a.u. after    4 cycles

 Unable to determine electronic state:  partially filled degenerate orbitals.
 Alpha  occ. eigenvalues --   -0.75120  -0.69772  -0.60854  -0.49672  -0.40227
 Alpha virt. eigenvalues --    0.18550   0.23276   0.33431   0.49130   0.64923
  Beta  occ. eigenvalues --   -0.75120  -0.69772  -0.60854  -0.49672  -0.40227
  Beta virt. eigenvalues --    0.18550   0.23276   0.33431   0.49130   0.64923

 Mulliken charges and spin densities:
               1          2
     1  H   -0.017636  -0.981486
     2  H   -0.005793  -0.019817
     3  H    0.017900   0.006943
     4  H    0.002161   0.009478
     5  H    0.003369  -0.014009
     6  H    0.003369   0.014009
     7  H    0.002161  -0.009478
     8  H    0.017900  -0.006943
     9  H   -0.005793   0.019817
    10  H   -0.017636   0.981486
 Sum of Mulliken charges =   0.00000  -0.00000

 Dipole moment (field-independent basis, Debye):
    X=              0.0000    Y=              0.0000    Z=              0.0000  Tot=              0.0000
 Quadrupole moment (field-independent basis, Debye-Ang):
   XX=            -12.5217   YY=            -19.3724   ZZ=            -12.8018
   XY=             -3.4050   XZ=             -0.0000   YZ=             -0.0000

 Normal termination of Gaussian 09 at Tue Feb 28 18:09:18 2017.
