 Gaussian 09, Revision E.01,
 Gaussian 09:  ES64L-G09RevE.01 30-Nov-2015

 ----------------------------------------------------------------------
 #rhf/gen scf(symm,tight,novaracc,noincfock,fulldiag) stable=opt guess=
 read geom=nocrowd test
 ----------------------------------------------------------------------

 hf stability analysis of h10 triangular lattice, y= 0.4001417309484786
 0
 ----------------------------------------------------------------------
 Symbolic Z-matrix:
 Charge =  0 Multiplicity = 1

                         Standard orientation:
 ---------------------------------------------------------------------
 Center     Atomic      Atomic             Coordinates (Angstroms)
 Number     Number       Type             X           Y           Z
 ---------------------------------------------------------------------
      1          1           0        1.542355   -1.818249    0.000000
      2          1           0        1.542355   -3.315570    0.000000
      3          1           0        0.771177   -0.534794    0.000000
      4          1           0        0.771177   -2.032116    0.000000
      5          1           0        0.000000    0.748661    0.000000
      6          1           0       -0.000000   -0.748661    0.000000
      7          1           0       -0.771177    2.032116   -0.000000
      8          1           0       -0.771177    0.534794   -0.000000
      9          1           0       -1.542355    3.315570   -0.000000
     10          1           0       -1.542355    1.818249   -0.000000
 ---------------------------------------------------------------------

 SCF Done:  E(RHF) =  -4.81395752385     A.U. after   14 cycles
 SCF Done:  E(UHF) =  -5.08957302045     a.u. after    5 cycles

 Unable to determine electronic state:  partially filled degenerate orbitals.
 Alpha  occ. eigenvalues --   -0.76275  -0.70073  -0.59834  -0.46947  -0.36068
 Alpha virt. eigenvalues --    0.18100   0.20874   0.29651   0.46512   0.63466
  Beta  occ. eigenvalues --   -0.76275  -0.70073  -0.59834  -0.46947  -0.36068
  Beta virt. eigenvalues --    0.18100   0.20874   0.29651   0.46512   0.63466

 Mulliken charges and spin densities:
               1          2
     1  H   -0.009771  -0.052571
     2  H   -0.038069  -0.959319
     3  H    0.007369   0.027543
     4  H    0.036405   0.023624
     5  H    0.004066   0.036475
     6  H    0.004066  -0.036475
     7  H    0.036405  -0.023624
     8  H    0.007369  -0.027543
     9  H   -0.038069   0.959319
    10  H   -0.009771   0.052571
 Sum of Mulliken charges =   0.00000   0.00000

 Dipole moment (field-independent basis, Debye):
    X=              0.0000    Y=             -0.0000    Z=              0.0000  Tot=              0.0000
 Quadrupole moment (field-independent basis, Debye-Ang):
   XX=            -13.1601   YY=            -20.6704   ZZ=            -12.6959
   XY=              4.6962   XZ=             -0.0000   YZ=              0.0000

 Normal termination of Gaussian 09 at Tue Feb 28 17:56:56 2017.
