 Gaussian 09, Revision E.01,
 Gaussian 09:  ES64L-G09RevE.01 30-Nov-2015

 ----------------------------------------------------------------------
 #rhf/gen scf(symm,tight,novaracc,noincfock,fulldiag) stable=opt guess=
 read geom=nocrowd test
 ----------------------------------------------------------------------

 hf stability analysis of h10 triangular lattice, y= 0.3577645550249273
 8
 ----------------------------------------------------------------------
 Symbolic Z-matrix:
 Charge =  0 Multiplicity = 1

                         Standard orientation:
 ---------------------------------------------------------------------
 Center     Atomic      Atomic             Coordinates (Angstroms)
 Number     Number       Type             X           Y           Z
 ---------------------------------------------------------------------
      1          1           0        1.397136   -2.169692   -0.000000
      2          1           0        1.397136   -3.822645   -0.000000
      3          1           0        0.698568   -0.671608   -0.000000
      4          1           0        0.698568   -2.324561   -0.000000
      5          1           0        0.000000    0.826477    0.000000
      6          1           0       -0.000000   -0.826477   -0.000000
      7          1           0       -0.698568    2.324561    0.000000
      8          1           0       -0.698568    0.671608   -0.000000
      9          1           0       -1.397136    3.822645    0.000000
     10          1           0       -1.397136    2.169692   -0.000000
 ---------------------------------------------------------------------

 SCF Done:  E(RHF) =  -4.90705447216     A.U. after   11 cycles
 SCF Done:  E(UHF) =  -5.18846534948     a.u. after    4 cycles

 Unable to determine electronic state:  partially filled degenerate orbitals.
 Alpha  occ. eigenvalues --   -0.74447  -0.69701  -0.61786  -0.51958  -0.42930
 Alpha virt. eigenvalues --    0.17435   0.26797   0.36401   0.51102   0.65820
  Beta  occ. eigenvalues --   -0.74447  -0.69701  -0.61786  -0.51958  -0.42930
  Beta virt. eigenvalues --    0.17435   0.26797   0.36401   0.51102   0.65820

 Mulliken charges and spin densities:
               1          2
     1  H   -0.004369  -0.008629
     2  H   -0.007620  -0.991967
     3  H    0.000612   0.004277
     4  H    0.008976   0.003684
     5  H    0.002401   0.006865
     6  H    0.002401  -0.006865
     7  H    0.008976  -0.003684
     8  H    0.000612  -0.004277
     9  H   -0.007620   0.991967
    10  H   -0.004369   0.008629
 Sum of Mulliken charges =   0.00000  -0.00000

 Dipole moment (field-independent basis, Debye):
    X=              0.0000    Y=             -0.0000    Z=              0.0000  Tot=              0.0000
 Quadrupole moment (field-independent basis, Debye-Ang):
   XX=            -12.2694   YY=            -18.4703   ZZ=            -12.8905
   XY=              2.6236   XZ=              0.0000   YZ=             -0.0000

 Normal termination of Gaussian 09 at Tue Feb 28 17:56:22 2017.
