 Gaussian 09, Revision E.01,
 Gaussian 09:  ES64L-G09RevE.01 30-Nov-2015

 ----------------------------------------------------------------------
 #rhf/gen scf(symm,tight,novaracc,noincfock,fulldiag) stable=opt guess=
 read geom=nocrowd test
 ----------------------------------------------------------------------

 hf stability analysis of h10 triangular lattice, y= 0.7664958762004193
 7
 ----------------------------------------------------------------------
 Symbolic Z-matrix:
 Charge =  0 Multiplicity = 1

                         Standard orientation:
 ---------------------------------------------------------------------
 Center     Atomic      Atomic             Coordinates (Angstroms)
 Number     Number       Type             X           Y           Z
 ---------------------------------------------------------------------
      1          1           0        2.148976    0.574836    0.000000
      2          1           0        2.148976   -0.499815    0.000000
      3          1           0        1.074488    0.556081    0.000000
      4          1           0        1.074488   -0.518571    0.000000
      5          1           0        0.000000    0.537326    0.000000
      6          1           0       -0.000000   -0.537326    0.000000
      7          1           0       -1.074488    0.518571    0.000000
      8          1           0       -1.074488   -0.556081    0.000000
      9          1           0       -2.148976    0.499815    0.000000
     10          1           0       -2.148976   -0.574836    0.000000
 ---------------------------------------------------------------------

 SCF Done:  E(RHF) =  -4.83937450635     A.U. after   12 cycles
 SCF Done:  E(UHF) =  -4.96206412898     a.u. after    5 cycles

 Unable to determine electronic state:  partially filled degenerate orbitals.
 Alpha  occ. eigenvalues --   -0.87367  -0.74994  -0.55769  -0.45658  -0.39056
 Alpha virt. eigenvalues --    0.07166   0.19840   0.37788   0.52708   0.91646
  Beta  occ. eigenvalues --   -0.87367  -0.74994  -0.55769  -0.45658  -0.39056
  Beta virt. eigenvalues --    0.07166   0.19840   0.37788   0.52708   0.91646

 Mulliken charges and spin densities:
               1          2
     1  H    0.030769   0.597804
     2  H    0.026292  -0.595003
     3  H   -0.026740  -0.556716
     4  H   -0.028869   0.557030
     5  H   -0.001451   0.408122
     6  H   -0.001451  -0.408122
     7  H   -0.028869  -0.557030
     8  H   -0.026740   0.556716
     9  H    0.026292   0.595003
    10  H    0.030769  -0.597804
 Sum of Mulliken charges =   0.00000  -0.00000

 Dipole moment (field-independent basis, Debye):
    X=              0.0000    Y=             -0.0000    Z=              0.0000  Tot=              0.0000
 Quadrupole moment (field-independent basis, Debye-Ang):
   XX=            -12.9510   YY=            -15.5732   ZZ=            -12.7902
   XY=              0.1284   XZ=              0.0000   YZ=              0.0000

 Normal termination of Gaussian 09 at Tue Feb 28 18:03:00 2017.
