 Gaussian 09, Revision E.01,
 Gaussian 09:  ES64L-G09RevE.01 30-Nov-2015

 ----------------------------------------------------------------------
 #rhf/gen scf(symm,tight,novaracc,noincfock,fulldiag) stable=opt guess=
 read geom=nocrowd test
 ----------------------------------------------------------------------

 ----------------------------------------------------------------------
 hf stability analysis of h10 triangular lattice, y= 2.4486760461856742
 ----------------------------------------------------------------------
 Symbolic Z-matrix:
 Charge =  0 Multiplicity = 1

                         Standard orientation:
 ---------------------------------------------------------------------
 Center     Atomic      Atomic             Coordinates (Angstroms)
 Number     Number       Type             X           Y           Z
 ---------------------------------------------------------------------
      1          1           0        0.938781    6.059609    0.000000
      2          1           0        0.938781    3.599608    0.000000
      3          1           0        0.469390    3.644805    0.000000
      4          1           0        0.469390    1.184804    0.000000
      5          1           0        0.000000    1.230001    0.000000
      6          1           0       -0.000000   -1.230001    0.000000
      7          1           0       -0.469390   -1.184804    0.000000
      8          1           0       -0.469390   -3.644805    0.000000
      9          1           0       -0.938781   -3.599608    0.000000
     10          1           0       -0.938781   -6.059609    0.000000
 ---------------------------------------------------------------------

 SCF Done:  E(RHF) =  -4.38119910642     A.U. after    9 cycles
 SCF Done:  E(UHF) =  -4.67411475139     a.u. after    3 cycles

 Unable to determine electronic state:  partially filled degenerate orbitals.
 Alpha  occ. eigenvalues --   -0.73905  -0.72920  -0.71573  -0.70375  -0.49802
 Alpha virt. eigenvalues --    0.13067   0.56937   0.61326   0.67304   0.72641
  Beta  occ. eigenvalues --   -0.73905  -0.72920  -0.71573  -0.70375  -0.49802
  Beta virt. eigenvalues --    0.13067   0.56937   0.61326   0.67304   0.72641

 Mulliken charges and spin densities:
               1          2
     1  H    0.002546  -1.002545
     2  H   -0.000775   0.001266
     3  H   -0.001769   0.001279
     4  H   -0.000062   0.000006
     5  H    0.000061  -0.000006
     6  H    0.000061   0.000006
     7  H   -0.000062  -0.000006
     8  H   -0.001769  -0.001279
     9  H   -0.000775  -0.001266
    10  H    0.002546   1.002545
 Sum of Mulliken charges =   0.00000   0.00000

 Dipole moment (field-independent basis, Debye):
    X=             -0.0000    Y=              0.0000    Z=              0.0000  Tot=              0.0000
 Quadrupole moment (field-independent basis, Debye-Ang):
   XX=            -12.7282   YY=            -14.5283   ZZ=            -13.4899
   XY=             -0.2487   XZ=              0.0000   YZ=             -0.0000

 Normal termination of Gaussian 09 at Tue Feb 28 18:11:02 2017.
