 Gaussian 09, Revision E.01,
 Gaussian 09:  ES64L-G09RevE.01 30-Nov-2015

 ----------------------------------------------------------------------
 #rhf/gen scf(symm,tight,novaracc,noincfock,fulldiag) stable=opt guess=
 read geom=nocrowd test
 ----------------------------------------------------------------------

 hf stability analysis of h10 triangular lattice, y= 0.8996750916440937
 6
 ----------------------------------------------------------------------
 Symbolic Z-matrix:
 Charge =  0 Multiplicity = 1

                         Standard orientation:
 ---------------------------------------------------------------------
 Center     Atomic      Atomic             Coordinates (Angstroms)
 Number     Number       Type             X           Y           Z
 ---------------------------------------------------------------------
      1          1           0        2.089776    1.272115    0.000000
      2          1           0        2.089776    0.167020    0.000000
      3          1           0        1.044888    0.912331    0.000000
      4          1           0        1.044888   -0.192764    0.000000
      5          1           0        0.000000    0.552548    0.000000
      6          1           0       -0.000000   -0.552548   -0.000000
      7          1           0       -1.044888    0.192764    0.000000
      8          1           0       -1.044888   -0.912331    0.000000
      9          1           0       -2.089776   -0.167020    0.000000
     10          1           0       -2.089776   -1.272115    0.000000
 ---------------------------------------------------------------------

 SCF Done:  E(RHF) =  -4.85966859010     A.U. after   11 cycles
 SCF Done:  E(UHF) =  -4.93329155359     a.u. after    7 cycles

 Unable to determine electronic state:  partially filled degenerate orbitals.
 Alpha  occ. eigenvalues --   -0.86251  -0.74539  -0.56150  -0.42105  -0.37130
 Alpha virt. eigenvalues --    0.05295   0.21921   0.32134   0.54642   0.76129
  Beta  occ. eigenvalues --   -0.86251  -0.74539  -0.56150  -0.42105  -0.37130
  Beta virt. eigenvalues --    0.05295   0.21921   0.32134   0.54642   0.76129

 Mulliken charges and spin densities:
               1          2
     1  H    0.045352   0.591529
     2  H   -0.002481  -0.531711
     3  H    0.015165  -0.501067
     4  H   -0.045720   0.497628
     5  H   -0.012317   0.318993
     6  H   -0.012317  -0.318993
     7  H   -0.045720  -0.497628
     8  H    0.015165   0.501067
     9  H   -0.002481   0.531711
    10  H    0.045352  -0.591529
 Sum of Mulliken charges =   0.00000   0.00000

 Dipole moment (field-independent basis, Debye):
    X=              0.0000    Y=              0.0000    Z=              0.0000  Tot=              0.0000
 Quadrupole moment (field-independent basis, Debye-Ang):
   XX=            -13.7191   YY=            -14.3599   ZZ=            -12.8344
   XY=              1.7842   XZ=              0.0000   YZ=             -0.0000

 Normal termination of Gaussian 09 at Tue Feb 28 18:04:47 2017.
