 Gaussian 09, Revision E.01,
 Gaussian 09:  ES64L-G09RevE.01 30-Nov-2015

 ----------------------------------------------------------------------
 #rhf/gen scf(symm,tight,novaracc,noincfock,fulldiag) stable=opt guess=
 read geom=nocrowd test
 ----------------------------------------------------------------------

 hf stability analysis of h10 triangular lattice, y= 0.4738346202814235
 9
 ----------------------------------------------------------------------
 Symbolic Z-matrix:
 Charge =  0 Multiplicity = 1

                         Standard orientation:
 ---------------------------------------------------------------------
 Center     Atomic      Atomic             Coordinates (Angstroms)
 Number     Number       Type             X           Y           Z
 ---------------------------------------------------------------------
      1          1           0        1.766470   -1.274087    0.000000
      2          1           0        1.766470   -2.581441    0.000000
      3          1           0        0.883235   -0.310205    0.000000
      4          1           0        0.883235   -1.617559    0.000000
      5          1           0        0.000000    0.653677   -0.000000
      6          1           0       -0.000000   -0.653677   -0.000000
      7          1           0       -0.883235    1.617559    0.000000
      8          1           0       -0.883235    0.310205    0.000000
      9          1           0       -1.766470    2.581441    0.000000
     10          1           0       -1.766470    1.274087    0.000000
 ---------------------------------------------------------------------

 SCF Done:  E(RHF) =  -4.77163813351     A.U. after   13 cycles
 SCF Done:  E(UHF) =  -4.83283275773     a.u. after   19 cycles

 Unable to determine electronic state:  partially filled degenerate orbitals.
 Alpha  occ. eigenvalues --   -0.82066  -0.72870  -0.57947  -0.38595  -0.27315
 Alpha virt. eigenvalues --    0.06965   0.18925   0.24435   0.38078   0.58503
  Beta  occ. eigenvalues --   -0.82066  -0.72870  -0.57947  -0.38595  -0.27315
  Beta virt. eigenvalues --    0.06965   0.18925   0.24435   0.38078   0.58503

 Mulliken charges and spin densities:
               1          2
     1  H   -0.072237   0.491242
     2  H   -0.083871   0.607810
     3  H    0.087732  -0.192089
     4  H    0.158113  -0.256541
     5  H   -0.089737  -0.346024
     6  H   -0.089737   0.346024
     7  H    0.158113   0.256541
     8  H    0.087732   0.192089
     9  H   -0.083871  -0.607810
    10  H   -0.072237  -0.491242
 Sum of Mulliken charges =   0.00000  -0.00000

 Dipole moment (field-independent basis, Debye):
    X=              0.0000    Y=             -0.0000    Z=             -0.0000  Tot=              0.0000
 Quadrupole moment (field-independent basis, Debye-Ang):
   XX=            -16.7880   YY=            -18.9510   ZZ=            -12.7881
   XY=              4.7840   XZ=              0.0000   YZ=             -0.0000

 Normal termination of Gaussian 09 at Tue Feb 28 17:58:09 2017.
