 Gaussian 09, Revision E.01,
 Gaussian 09:  ES64L-G09RevE.01 30-Nov-2015

 ----------------------------------------------------------------------
 #rhf/gen scf(symm,tight,novaracc,noincfock,fulldiag) stable=opt guess=
 read geom=nocrowd test
 ----------------------------------------------------------------------

 hf stability analysis of h10 triangular lattice, y= 0.2614075542186236
 6
 ----------------------------------------------------------------------
 Symbolic Z-matrix:
 Charge =  0 Multiplicity = 1

                         Standard orientation:
 ---------------------------------------------------------------------
 Center     Atomic      Atomic             Coordinates (Angstroms)
 Number     Number       Type             X           Y           Z
 ---------------------------------------------------------------------
      1          1           0        1.038382   -3.213155   -0.000000
      2          1           0        1.038382   -5.437192   -0.000000
      3          1           0        0.519191   -1.050568   -0.000000
      4          1           0        0.519191   -3.274606   -0.000000
      5          1           0        0.000000    1.112019    0.000000
      6          1           0       -0.000000   -1.112019    0.000000
      7          1           0       -0.519191    3.274606   -0.000000
      8          1           0       -0.519191    1.050568   -0.000000
      9          1           0       -1.038382    5.437192   -0.000000
     10          1           0       -1.038382    3.213155   -0.000000
 ---------------------------------------------------------------------

 SCF Done:  E(RHF) =  -4.62920803072     A.U. after    9 cycles
 SCF Done:  E(UHF) =  -4.92072724034     a.u. after    4 cycles

 Unable to determine electronic state:  partially filled degenerate orbitals.
 Alpha  occ. eigenvalues --   -0.73353  -0.71658  -0.69185  -0.66783  -0.49453
 Alpha virt. eigenvalues --    0.13542   0.49487   0.55169   0.63138   0.70472
  Beta  occ. eigenvalues --   -0.73353  -0.71658  -0.69185  -0.66783  -0.49453
  Beta virt. eigenvalues --    0.13542   0.49487   0.55169   0.63138   0.70472

 Mulliken charges and spin densities:
               1          2
     1  H   -0.001254   0.001904
     2  H    0.003877  -1.003873
     3  H   -0.000137   0.000030
     4  H   -0.002641   0.001991
     5  H    0.000156   0.000052
     6  H    0.000156  -0.000052
     7  H   -0.002641  -0.001991
     8  H   -0.000137  -0.000030
     9  H    0.003877   1.003873
    10  H   -0.001254  -0.001904
 Sum of Mulliken charges =   0.00000   0.00000

 Dipole moment (field-independent basis, Debye):
    X=              0.0000    Y=             -0.0000    Z=             -0.0000  Tot=              0.0000
 Quadrupole moment (field-independent basis, Debye-Ang):
   XX=            -12.5113   YY=            -15.0701   ZZ=            -13.3892
   XY=              0.4588   XZ=             -0.0000   YZ=             -0.0000

 Normal termination of Gaussian 09 at Tue Feb 28 17:55:17 2017.
