 Gaussian 09, Revision E.01,
 Gaussian 09:  ES64L-G09RevE.01 30-Nov-2015

 ----------------------------------------------------------------------
 #rhf/gen scf(symm,tight,novaracc,noincfock,fulldiag) stable=opt guess=
 read geom=nocrowd test
 ----------------------------------------------------------------------

 hf stability analysis of h10 triangular lattice, y= 0.8914339662136427
 9
 ----------------------------------------------------------------------
 Symbolic Z-matrix:
 Charge =  0 Multiplicity = 1

                         Standard orientation:
 ---------------------------------------------------------------------
 Center     Atomic      Atomic             Coordinates (Angstroms)
 Number     Number       Type             X           Y           Z
 ---------------------------------------------------------------------
      1          1           0        2.095887    1.231931    0.000000
      2          1           0        2.095887    0.130058    0.000000
      3          1           0        1.047943    0.891434    0.000000
      4          1           0        1.047943   -0.210439    0.000000
      5          1           0        0.000000    0.550936    0.000000
      6          1           0       -0.000000   -0.550936    0.000000
      7          1           0       -1.047943    0.210439    0.000000
      8          1           0       -1.047943   -0.891434    0.000000
      9          1           0       -2.095887   -0.130058    0.000000
     10          1           0       -2.095887   -1.231931    0.000000
 ---------------------------------------------------------------------

 SCF Done:  E(RHF) =  -4.85814283758     A.U. after   11 cycles
 SCF Done:  E(UHF) =  -4.93623874520     a.u. after    7 cycles

 Unable to determine electronic state:  partially filled degenerate orbitals.
 Alpha  occ. eigenvalues --   -0.86363  -0.74583  -0.56127  -0.42488  -0.37314
 Alpha virt. eigenvalues --    0.05439   0.21812   0.32612   0.54509   0.77553
  Beta  occ. eigenvalues --   -0.86363  -0.74583  -0.56127  -0.42488  -0.37314
  Beta virt. eigenvalues --    0.05439   0.21812   0.32612   0.54509   0.77553

 Mulliken charges and spin densities:
               1          2
     1  H    0.046784   0.594118
     2  H   -0.002534  -0.538203
     3  H    0.011184  -0.507946
     4  H   -0.044289   0.506092
     5  H   -0.011145   0.330144
     6  H   -0.011145  -0.330144
     7  H   -0.044289  -0.506092
     8  H    0.011184   0.507946
     9  H   -0.002534   0.538203
    10  H    0.046784  -0.594118
 Sum of Mulliken charges =   0.00000   0.00000

 Dipole moment (field-independent basis, Debye):
    X=             -0.0000    Y=              0.0000    Z=              0.0000  Tot=              0.0000
 Quadrupole moment (field-independent basis, Debye-Ang):
   XX=            -13.6519   YY=            -14.4562   ZZ=            -12.8290
   XY=              1.7576   XZ=              0.0000   YZ=              0.0000

 Normal termination of Gaussian 09 at Tue Feb 28 18:04:41 2017.
