 Gaussian 09, Revision E.01,
 Gaussian 09:  ES64L-G09RevE.01 30-Nov-2015

 ----------------------------------------------------------------------
 #rhf/gen scf(symm,tight,novaracc,noincfock,fulldiag) stable=opt guess=
 read geom=nocrowd test
 ----------------------------------------------------------------------

 hf stability analysis of h10 triangular lattice, y= 0.3898764483944726
 1
 ----------------------------------------------------------------------
 Symbolic Z-matrix:
 Charge =  0 Multiplicity = 1

                         Standard orientation:
 ---------------------------------------------------------------------
 Center     Atomic      Atomic             Coordinates (Angstroms)
 Number     Number       Type             X           Y           Z
 ---------------------------------------------------------------------
      1          1           0        1.508114   -1.899923   -0.000000
      2          1           0        1.508114   -3.431241   -0.000000
      3          1           0        0.754057   -0.567132   -0.000000
      4          1           0        0.754057   -2.098450   -0.000000
      5          1           0        0.000000    0.765659   -0.000000
      6          1           0       -0.000000   -0.765659   -0.000000
      7          1           0       -0.754057    2.098450    0.000000
      8          1           0       -0.754057    0.567132   -0.000000
      9          1           0       -1.508114    3.431241   -0.000000
     10          1           0       -1.508114    1.899923   -0.000000
 ---------------------------------------------------------------------

 SCF Done:  E(RHF) =  -4.84467863050     A.U. after   14 cycles
 SCF Done:  E(UHF) =  -5.12164025463     a.u. after    5 cycles

 Unable to determine electronic state:  partially filled degenerate orbitals.
 Alpha  occ. eigenvalues --   -0.75748  -0.69915  -0.60234  -0.48062  -0.37877
 Alpha virt. eigenvalues --    0.19123   0.21013   0.31222   0.47619   0.64123
  Beta  occ. eigenvalues --   -0.75748  -0.69915  -0.60234  -0.48062  -0.37877
  Beta virt. eigenvalues --    0.19123   0.21013   0.31222   0.47619   0.64123

 Mulliken charges and spin densities:
               1          2
     1  H   -0.007633  -0.035010
     2  H   -0.028359  -0.970024
     3  H    0.004518   0.017480
     4  H    0.027481   0.013722
     5  H    0.003993   0.024234
     6  H    0.003993  -0.024234
     7  H    0.027481  -0.013722
     8  H    0.004518  -0.017480
     9  H   -0.028359   0.970024
    10  H   -0.007633   0.035010
 Sum of Mulliken charges =   0.00000   0.00000

 Dipole moment (field-independent basis, Debye):
    X=             -0.0000    Y=              0.0000    Z=              0.0000  Tot=              0.0000
 Quadrupole moment (field-independent basis, Debye-Ang):
   XX=            -12.8410   YY=            -20.1144   ZZ=            -12.7385
   XY=              4.1161   XZ=              0.0000   YZ=             -0.0000

 Normal termination of Gaussian 09 at Tue Feb 28 17:56:47 2017.
