 Gaussian 09, Revision E.01,
 Gaussian 09:  ES64L-G09RevE.01 30-Nov-2015

 --------------------------------------
 #P uhf/sto-3g pop=naturalorbitals test
 --------------------------------------

 preliminary uhf calculation to determine active space for cas first ex
 cited state calculation
 ----------------------------------------------------------------------
 Symbolic Z-matrix:
 Charge =  0 Multiplicity = 3

                         Standard orientation:
 ---------------------------------------------------------------------
 Center     Atomic      Atomic             Coordinates (Angstroms)
 Number     Number       Type             X           Y           Z
 ---------------------------------------------------------------------
      1          6           0       -0.665415   -0.449179    0.000000
      2          1           0       -1.593120    0.083984    0.000000
      3          8           0       -0.665415   -1.707579   -0.000000
      4          6           0        0.665203    0.326097   -0.000000
      5          1           0        1.592908   -0.207066   -0.000000
      6          6           0        0.665203    1.681297    0.000000
      7          1           0       -0.259318    2.219964    0.000000
      8          1           0        1.592908    2.214461   -0.000000
 ---------------------------------------------------------------------

 SCF Done:  E(UHF) =  -188.267258210     A.U. after   18 cycles

 Mulliken charges and spin densities:
               1          2
     1  C   -0.003784   0.802535
     2  H    0.082084  -0.006471
     3  O   -0.081555   1.139213
     4  C   -0.059135  -0.774830
     5  H    0.067746   0.053644
     6  C   -0.131724   0.919037
     7  H    0.061944  -0.066747
     8  H    0.064424  -0.066380
 Sum of Mulliken charges =  -0.00000   2.00000

 Dipole moment (field-independent basis, Debye):
    X=             -0.1190    Y=              0.6974    Z=              0.0000  Tot=              0.7075
 Quadrupole moment (field-independent basis, Debye-Ang):
   XX=            -19.5909   YY=            -23.6734   ZZ=            -22.9475
   XY=             -0.6680   XZ=             -0.0000   YZ=             -0.0000

 Normal termination of Gaussian 09 at Thu Dec  8 17:02:44 2016.
