 Gaussian 09, Revision E.01,
 Gaussian 09:  ES64L-G09RevE.01 30-Nov-2015

 ----------------------------------------------------------------------
 #rhf/gen scf(tight,novaracc,noincfock,fulldiag) stable(crhf) guess=mix
  geom=nocrowd test
 ----------------------------------------------------------------------

 ----------------------------------------------------------------------
 hf stability analysis of h8 triangular lattice, y= 0.78684966272995749
 ----------------------------------------------------------------------
 Symbolic Z-matrix:
 Charge =  0 Multiplicity = 1

                         Standard orientation:
 ---------------------------------------------------------------------
 Center     Atomic      Atomic             Coordinates (Angstroms)
 Number     Number       Type             X           Y           Z
 ---------------------------------------------------------------------
      1          1           0        1.573699    0.733749   -0.000000
      2          1           0        0.786850    1.467498   -0.000000
      3          1           0        0.786850    0.000000   -0.000000
      4          1           0        0.000000    0.733749   -0.000000
      5          1           0       -0.000000   -0.733749    0.000000
      6          1           0       -0.786850    0.000000   -0.000000
      7          1           0       -0.786850   -1.467498   -0.000000
      8          1           0       -1.573699   -0.733749   -0.000000
 ---------------------------------------------------------------------

 SCF Done:  E(RHF) =  -3.97763154142     A.U. after   12 cycles
 E2 =    -0.8271719141D-01 EUMP2 =    -0.40603487328356D+01

 The electronic state is 1-AG.
 Alpha  occ. eigenvalues --   -0.85201  -0.66472  -0.40976  -0.39691
 Alpha virt. eigenvalues --    0.03968   0.26034   0.37289   0.83104

 Mulliken charges:
               1
     1  H    0.000438
     2  H    0.041670
     3  H    0.012748
     4  H   -0.054856
     5  H   -0.054856
     6  H    0.012748
     7  H    0.041670
     8  H    0.000438
 Sum of Mulliken charges =   0.00000

 Dipole moment (field-independent basis, Debye):
    X=             -0.0000    Y=              0.0000    Z=             -0.0000  Tot=              0.0000
 Quadrupole moment (field-independent basis, Debye-Ang):
   XX=            -11.6931   YY=            -11.3865   ZZ=            -10.4412
   XY=              0.1636   XZ=             -0.0000   YZ=              0.0000

 Normal termination of Gaussian 09 at Tue Feb 14 14:17:55 2017.
