 Gaussian 09, Revision E.01,
 Gaussian 09:  ES64L-G09RevE.01 30-Nov-2015

 ----------------------------------------------------------------------
 #rhf/gen scf(tight,novaracc,noincfock,fulldiag) stable(crhf) guess=mix
  geom=nocrowd test
 ----------------------------------------------------------------------

 ----------------------------------------------------------------------
 hf stability analysis of h8 triangular lattice, y= 0.44586729660476643
 ----------------------------------------------------------------------
 Symbolic Z-matrix:
 Charge =  0 Multiplicity = 1

                         Standard orientation:
 ---------------------------------------------------------------------
 Center     Atomic      Atomic             Coordinates (Angstroms)
 Number     Number       Type             X           Y           Z
 ---------------------------------------------------------------------
      1          1           0        1.294893    0.891735    0.000000
      2          1           0        2.589785    0.445867    0.000000
      3          1           0        0.000000    0.445867   -0.000000
      4          1           0        1.294893    0.000000    0.000000
      5          1           0       -1.294893    0.000000    0.000000
      6          1           0       -0.000000   -0.445867   -0.000000
      7          1           0       -2.589785   -0.445867    0.000000
      8          1           0       -1.294893   -0.891735   -0.000000
 ---------------------------------------------------------------------

 SCF Done:  E(RHF) =  -3.81972631843     A.U. after   13 cycles
 E2 =    -0.1153052781D+00 EUMP2 =    -0.39350315965505D+01

 The electronic state is 1-AG.
 Alpha  occ. eigenvalues --   -0.80533  -0.67622  -0.46050  -0.18680
 Alpha virt. eigenvalues --    0.06510   0.08695   0.28232   0.52045

 Mulliken charges:
               1
     1  H    0.055652
     2  H   -0.146123
     3  H   -0.073875
     4  H    0.164346
     5  H    0.164346
     6  H   -0.073875
     7  H   -0.146123
     8  H    0.055652
 Sum of Mulliken charges =  -0.00000

 Dipole moment (field-independent basis, Debye):
    X=              0.0000    Y=              0.0000    Z=             -0.0000  Tot=              0.0000
 Quadrupole moment (field-independent basis, Debye-Ang):
   XX=            -19.1507   YY=            -10.3037   ZZ=            -10.4876
   XY=             -1.2083   XZ=             -0.0000   YZ=             -0.0000

 Normal termination of Gaussian 09 at Tue Feb 14 14:16:54 2017.
