 Gaussian 09, Revision E.01,
 Gaussian 09:  ES64L-G09RevE.01 30-Nov-2015

 ----------------------------------------------------------------------
 #rhf/gen scf(tight,novaracc,noincfock,fulldiag) stable(crhf) guess=mix
  geom=nocrowd test
 ----------------------------------------------------------------------

 ----------------------------------------------------------------------
 hf stability analysis of h8 triangular lattice, y= 0.72100522791448773
 ----------------------------------------------------------------------
 Symbolic Z-matrix:
 Charge =  0 Multiplicity = 1

                         Standard orientation:
 ---------------------------------------------------------------------
 Center     Atomic      Atomic             Coordinates (Angstroms)
 Number     Number       Type             X           Y           Z
 ---------------------------------------------------------------------
      1          1           0        0.800757    1.442010    0.000000
      2          1           0        1.601515    0.721005    0.000000
      3          1           0        0.000000    0.721005    0.000000
      4          1           0        0.800757    0.000000    0.000000
      5          1           0       -0.800757    0.000000    0.000000
      6          1           0       -0.000000   -0.721005    0.000000
      7          1           0       -1.601515   -0.721005    0.000000
      8          1           0       -0.800757   -1.442010    0.000000
 ---------------------------------------------------------------------

 SCF Done:  E(RHF) =  -3.97769500121     A.U. after   12 cycles
 E2 =    -0.8245881638D-01 EUMP2 =    -0.40601538175900D+01

 The electronic state is 1-AG.
 Alpha  occ. eigenvalues --   -0.85152  -0.66490  -0.40827  -0.39724
 Alpha virt. eigenvalues --    0.04068   0.25558   0.37701   0.82245

 Mulliken charges:
               1
     1  H    0.051988
     2  H   -0.008807
     3  H   -0.071810
     4  H    0.028628
     5  H    0.028628
     6  H   -0.071810
     7  H   -0.008807
     8  H    0.051988
 Sum of Mulliken charges =  -0.00000

 Dipole moment (field-independent basis, Debye):
    X=             -0.0000    Y=              0.0000    Z=              0.0000  Tot=              0.0000
 Quadrupole moment (field-independent basis, Debye-Ang):
   XX=            -11.7578   YY=            -11.3156   ZZ=            -10.4441
   XY=              0.1970   XZ=             -0.0000   YZ=              0.0000

 Normal termination of Gaussian 09 at Tue Feb 14 14:17:44 2017.
