 Gaussian 09, Revision E.01,
 Gaussian 09:  ES64L-G09RevE.01 30-Nov-2015

 ----------------------------------------------------------------------
 #rhf/gen scf(tight,novaracc,noincfock,fulldiag) stable(crhf) guess=mix
  geom=nocrowd test
 ----------------------------------------------------------------------

 ----------------------------------------------------------------------
 hf stability analysis of h8 triangular lattice, y= 0.42013533111630319
 ----------------------------------------------------------------------
 Symbolic Z-matrix:
 Charge =  0 Multiplicity = 1

                         Standard orientation:
 ---------------------------------------------------------------------
 Center     Atomic      Atomic             Coordinates (Angstroms)
 Number     Number       Type             X           Y           Z
 ---------------------------------------------------------------------
      1          1           0        1.374201    0.840271   -0.000000
      2          1           0        2.748401    0.420135   -0.000000
      3          1           0        0.000000    0.420135    0.000000
      4          1           0        1.374201    0.000000   -0.000000
      5          1           0       -1.374201    0.000000   -0.000000
      6          1           0       -0.000000   -0.420135    0.000000
      7          1           0       -2.748401   -0.420135   -0.000000
      8          1           0       -1.374201   -0.840271    0.000000
 ---------------------------------------------------------------------

 SCF Done:  E(RHF) =  -3.83516774930     A.U. after   16 cycles
 E2 =    -0.1659787383D+00 EUMP2 =    -0.40011464875795D+01

 The electronic state is 1-AG.
 Alpha  occ. eigenvalues --   -0.80618  -0.68007  -0.49393  -0.16497
 Alpha virt. eigenvalues --    0.01273   0.12192   0.30748   0.52656

 Mulliken charges:
               1
     1  H    0.061680
     2  H   -0.180366
     3  H    0.008278
     4  H    0.110408
     5  H    0.110408
     6  H    0.008278
     7  H   -0.180366
     8  H    0.061680
 Sum of Mulliken charges =   0.00000

 Dipole moment (field-independent basis, Debye):
    X=             -0.0000    Y=             -0.0000    Z=              0.0000  Tot=              0.0000
 Quadrupole moment (field-independent basis, Debye-Ang):
   XX=            -24.1102   YY=             -9.3889   ZZ=            -10.4296
   XY=             -2.0005   XZ=              0.0000   YZ=             -0.0000

 Normal termination of Gaussian 09 at Tue Feb 14 14:16:50 2017.
