 Gaussian 09, Revision E.01,
 Gaussian 09:  ES64L-G09RevE.01 30-Nov-2015

 ----------------------------------------------------------------------
 #rhf/gen scf(tight,novaracc,noincfock,fulldiag) stable(crhf) guess=mix
  geom=nocrowd test
 ----------------------------------------------------------------------

 ---------------------------------------------------------------------
 hf stability analysis of h8 triangular lattice, y= 1.3330047374615932
 ---------------------------------------------------------------------
 Symbolic Z-matrix:
 Charge =  0 Multiplicity = 1

                         Standard orientation:
 ---------------------------------------------------------------------
 Center     Atomic      Atomic             Coordinates (Angstroms)
 Number     Number       Type             X           Y           Z
 ---------------------------------------------------------------------
      1          1           0        2.666009    0.433119   -0.000000
      2          1           0        1.333005    0.866239    0.000000
      3          1           0        1.333005    0.000000   -0.000000
      4          1           0        0.000000    0.433119    0.000000
      5          1           0       -0.000000   -0.433119    0.000000
      6          1           0       -1.333005    0.000000   -0.000000
      7          1           0       -1.333005   -0.866239    0.000000
      8          1           0       -2.666009   -0.433119    0.000000
 ---------------------------------------------------------------------

 SCF Done:  E(RHF) =  -3.82415796805     A.U. after   17 cycles
 E2 =    -0.1336556790D+00 EUMP2 =    -0.39578136470293D+01

 The electronic state is 1-AG.
 Alpha  occ. eigenvalues --   -0.80764  -0.67901  -0.47738  -0.17303
 Alpha virt. eigenvalues --    0.03798   0.10207   0.29238   0.52094

 Mulliken charges:
               1
     1  H   -0.172920
     2  H    0.061125
     3  H    0.138704
     4  H   -0.026909
     5  H   -0.026909
     6  H    0.138704
     7  H    0.061125
     8  H   -0.172920
 Sum of Mulliken charges =   0.00000

 Dipole moment (field-independent basis, Debye):
    X=             -0.0000    Y=              0.0000    Z=             -0.0000  Tot=              0.0000
 Quadrupole moment (field-independent basis, Debye-Ang):
   XX=            -22.1877   YY=             -9.7644   ZZ=            -10.4521
   XY=             -1.7291   XZ=              0.0000   YZ=              0.0000

 Normal termination of Gaussian 09 at Tue Feb 14 14:18:48 2017.
