 Gaussian 09, Revision E.01,
 Gaussian 09:  ES64L-G09RevE.01 30-Nov-2015

 ----------------------------------------------------------------------
 #rhf/gen scf(tight,novaracc,noincfock,fulldiag) stable(crhf) guess=mix
  geom=nocrowd test
 ----------------------------------------------------------------------

 ----------------------------------------------------------------------
 hf stability analysis of h8 triangular lattice, y= 0.22474786951272291
 ----------------------------------------------------------------------
 Symbolic Z-matrix:
 Charge =  0 Multiplicity = 1

                         Standard orientation:
 ---------------------------------------------------------------------
 Center     Atomic      Atomic             Coordinates (Angstroms)
 Number     Number       Type             X           Y           Z
 ---------------------------------------------------------------------
      1          1           0        2.568880    0.449496    0.000000
      2          1           0        5.137760    0.224748    0.000000
      3          1           0        0.000000    0.224748    0.000000
      4          1           0        2.568880    0.000000   -0.000000
      5          1           0       -2.568880    0.000000   -0.000000
      6          1           0       -0.000000   -0.224748    0.000000
      7          1           0       -5.137760   -0.224748   -0.000000
      8          1           0       -2.568880   -0.449496    0.000000
 ---------------------------------------------------------------------

 SCF Done:  E(RHF) =  -3.36236751785     A.U. after   41 cycles
 E2 =    -0.8257221738D+00 EUMP2 =    -0.41880896916847D+01

 The electronic state is 1-AG.
 Alpha  occ. eigenvalues --   -0.74175  -0.73123  -0.72001  -0.21061
 Alpha virt. eigenvalues --   -0.15911   0.61038   0.66604   0.72825

 Mulliken charges:
               1
     1  H   -0.000198
     2  H    0.001183
     3  H    0.000001
     4  H   -0.000986
     5  H   -0.000986
     6  H    0.000001
     7  H    0.001183
     8  H   -0.000198
 Sum of Mulliken charges =  -0.00000

 Dipole moment (field-independent basis, Debye):
    X=              0.0000    Y=             -0.0000    Z=             -0.0000  Tot=              0.0000
 Quadrupole moment (field-independent basis, Debye-Ang):
   XX=            -11.5765   YY=            -10.2741   ZZ=            -10.8196
   XY=             -0.0381   XZ=             -0.0000   YZ=              0.0000

 Normal termination of Gaussian 09 at Tue Feb 14 14:16:24 2017.
