 Gaussian 09, Revision E.01,
 Gaussian 09:  ES64L-G09RevE.01 30-Nov-2015

 ----------------------------------------------------------------------
 #rhf/gen scf(tight,novaracc,noincfock,fulldiag) stable(crhf) guess=mix
  geom=nocrowd test
 ----------------------------------------------------------------------

 ---------------------------------------------------------------------
 hf stability analysis of h8 triangular lattice, y= 1.6480958607190197
 ---------------------------------------------------------------------
 Symbolic Z-matrix:
 Charge =  0 Multiplicity = 1

                         Standard orientation:
 ---------------------------------------------------------------------
 Center     Atomic      Atomic             Coordinates (Angstroms)
 Number     Number       Type             X           Y           Z
 ---------------------------------------------------------------------
      1          1           0        3.296192    0.350314    0.000000
      2          1           0        1.648096    0.700627    0.000000
      3          1           0        1.648096    0.000000    0.000000
      4          1           0        0.000000    0.350314   -0.000000
      5          1           0       -0.000000   -0.350314   -0.000000
      6          1           0       -1.648096    0.000000    0.000000
      7          1           0       -1.648096   -0.700627    0.000000
      8          1           0       -3.296192   -0.350314    0.000000
 ---------------------------------------------------------------------

 SCF Done:  E(RHF) =  -3.88608170013     A.U. after   16 cycles
 E2 =    -0.3904546960D+00 EUMP2 =    -0.42765363961632D+01

 The electronic state is 1-AG.
 Alpha  occ. eigenvalues --   -0.75500  -0.67487  -0.56222  -0.18625
 Alpha virt. eigenvalues --   -0.09019   0.27733   0.42276   0.60371

 Mulliken charges:
               1
     1  H   -0.061211
     2  H    0.022669
     3  H    0.025773
     4  H    0.012769
     5  H    0.012769
     6  H    0.025773
     7  H    0.022669
     8  H   -0.061211
 Sum of Mulliken charges =  -0.00000

 Dipole moment (field-independent basis, Debye):
    X=             -0.0000    Y=             -0.0000    Z=             -0.0000  Tot=              0.0000
 Quadrupole moment (field-independent basis, Debye-Ang):
   XX=            -19.0828   YY=             -9.3641   ZZ=            -10.4959
   XY=             -0.9383   XZ=             -0.0000   YZ=             -0.0000

 Normal termination of Gaussian 09 at Tue Feb 14 14:19:01 2017.
