 Gaussian 09, Revision E.01,
 Gaussian 09:  ES64L-G09RevE.01 30-Nov-2015

 ----------------------------------------------------------------------
 #rhf/gen scf(tight,novaracc,noincfock,fulldiag) stable(crhf) guess=mix
  geom=nocrowd test
 ----------------------------------------------------------------------

 ---------------------------------------------------------------------
 hf stability analysis of h8 triangular lattice, y= 1.1127136872907215
 ---------------------------------------------------------------------
 Symbolic Z-matrix:
 Charge =  0 Multiplicity = 1

                         Standard orientation:
 ---------------------------------------------------------------------
 Center     Atomic      Atomic             Coordinates (Angstroms)
 Number     Number       Type             X           Y           Z
 ---------------------------------------------------------------------
      1          1           0        2.225427    0.518867   -0.000000
      2          1           0        1.112714    1.037734   -0.000000
      3          1           0        1.112714    0.000000   -0.000000
      4          1           0        0.000000    0.518867   -0.000000
      5          1           0       -0.000000   -0.518867   -0.000000
      6          1           0       -1.112714    0.000000   -0.000000
      7          1           0       -1.112714   -1.037734   -0.000000
      8          1           0       -2.225427   -0.518867   -0.000000
 ---------------------------------------------------------------------

 SCF Done:  E(RHF) =  -3.89555563874     A.U. after   13 cycles
 E2 =    -0.8729500805D-01 EUMP2 =    -0.39828506467981D+01

 The electronic state is 1-AG.
 Alpha  occ. eigenvalues --   -0.80585  -0.66531  -0.41664  -0.27807
 Alpha virt. eigenvalues --    0.08593   0.11960   0.38079   0.51151

 Mulliken charges:
               1
     1  H   -0.006588
     2  H    0.063242
     3  H    0.168376
     4  H   -0.225029
     5  H   -0.225029
     6  H    0.168376
     7  H    0.063242
     8  H   -0.006588
 Sum of Mulliken charges =  -0.00000

 Dipole moment (field-independent basis, Debye):
    X=              0.0000    Y=              0.0000    Z=             -0.0000  Tot=              0.0000
 Quadrupole moment (field-independent basis, Debye-Ang):
   XX=             -9.0273   YY=            -11.9992   ZZ=            -10.5952
   XY=              1.2743   XZ=             -0.0000   YZ=              0.0000

 Normal termination of Gaussian 09 at Tue Feb 14 14:18:33 2017.
