 Gaussian 09, Revision E.01,
 Gaussian 09:  ES64L-G09RevE.01 30-Nov-2015

 ----------------------------------------------------------------------
 #uhf/gen scf(tight,novaracc,noincfock,fulldiag) stable(crhf) guess=rea
 d geom=nocrowd test
 ----------------------------------------------------------------------

 hf stability analysis of h10 triangular lattice, y= 2.5434397828995103
  alpha= 84.900000000000006
 ----------------------------------------------------------------------
 Symbolic Z-matrix:
 Charge =  0 Multiplicity = 1

                         Standard orientation:
 ---------------------------------------------------------------------
 Center     Atomic      Atomic             Coordinates (Angstroms)
 Number     Number       Type             X           Y           Z
 ---------------------------------------------------------------------
      1          1           0        0.904389    6.303158    0.000000
      2          1           0        0.904389    3.749609    0.000000
      3          1           0        0.452195    3.789966    0.000000
      4          1           0        0.452195    1.236417    0.000000
      5          1           0        0.000000    1.276775    0.000000
      6          1           0       -0.000000   -1.276775    0.000000
      7          1           0       -0.452195   -1.236417    0.000000
      8          1           0       -0.452195   -3.789966    0.000000
      9          1           0       -0.904389   -3.749609    0.000000
     10          1           0       -0.904389   -6.303158    0.000000
 ---------------------------------------------------------------------

 SCF Done:  E(UHF) =  -4.56533375625     A.U. after    4 cycles
 E2 =    -0.2583687474D-01 EUMP2 =    -0.45911706309927D+01

 Unable to determine electronic state:  partially filled degenerate orbitals.
 Alpha  occ. eigenvalues --   -0.74198  -0.73427  -0.72398  -0.71510  -0.49866
 Alpha virt. eigenvalues --    0.12946   0.59639   0.63577   0.68888   0.73582
  Beta  occ. eigenvalues --   -0.74198  -0.73427  -0.72398  -0.71510  -0.49866
  Beta virt. eigenvalues --    0.12946   0.59639   0.63577   0.68888   0.73582

 Mulliken charges and spin densities:
               1          2
     1  H    0.002087  -1.002086
     2  H   -0.000635   0.001039
     3  H   -0.001449   0.001046
     4  H   -0.000045   0.000003
     5  H    0.000043  -0.000002
     6  H    0.000043   0.000002
     7  H   -0.000045  -0.000003
     8  H   -0.001449  -0.001046
     9  H   -0.000635  -0.001039
    10  H    0.002087   1.002086
 Sum of Mulliken charges =   0.00000   0.00000

 Dipole moment (field-independent basis, Debye):
    X=              0.0000    Y=              0.0000    Z=              0.0000  Tot=              0.0000
 Quadrupole moment (field-independent basis, Debye-Ang):
   XX=            -12.8000   YY=            -14.3733   ZZ=            -13.5174
   XY=             -0.1975   XZ=              0.0000   YZ=              0.0000

 Normal termination of Gaussian 09 at Thu Feb 23 15:37:11 2017.
