 Gaussian 09, Revision E.01,
 Gaussian 09:  ES64L-G09RevE.01 30-Nov-2015

 ----------------------------------------------------------------------
 #uhf/gen scf(tight,novaracc,noincfock,fulldiag) stable(crhf) guess=rea
 d geom=nocrowd test
 ----------------------------------------------------------------------

 hf stability analysis of h10 triangular lattice, y= 0.7611630264406603
 6 alpha= 45.100000000000001
 ----------------------------------------------------------------------
 Symbolic Z-matrix:
 Charge =  0 Multiplicity = 1

                         Standard orientation:
 ---------------------------------------------------------------------
 Center     Atomic      Atomic             Coordinates (Angstroms)
 Number     Number       Type             X           Y           Z
 ---------------------------------------------------------------------
      1          1           0        2.149133    0.544789    0.000000
      2          1           0        2.149133   -0.529785    0.000000
      3          1           0        1.074567    0.541038    0.000000
      4          1           0        1.074567   -0.533536    0.000000
      5          1           0        0.000000    0.537287    0.000000
      6          1           0       -0.000000   -0.537287    0.000000
      7          1           0       -1.074567    0.533536    0.000000
      8          1           0       -1.074567   -0.541038    0.000000
      9          1           0       -2.149133    0.529785    0.000000
     10          1           0       -2.149133   -0.544789    0.000000
 ---------------------------------------------------------------------

 SCF Done:  E(UHF) =  -4.96214007882     A.U. after    9 cycles
 E2 =    -0.4890846974D-01 EUMP2 =    -0.50110485485552D+01

 Unable to determine electronic state:  partially filled degenerate orbitals.
 Alpha  occ. eigenvalues --   -0.87370  -0.74995  -0.55767  -0.45667  -0.39062
 Alpha virt. eigenvalues --    0.07173   0.19832   0.37807   0.52700   0.91693
  Beta  occ. eigenvalues --   -0.87370  -0.74995  -0.55767  -0.45667  -0.39062
  Beta virt. eigenvalues --    0.07173   0.19832   0.37807   0.52700   0.91693

 Mulliken charges and spin densities:
               1          2
     1  H    0.028998   0.596748
     2  H    0.028101  -0.596188
     3  H   -0.027624  -0.556950
     4  H   -0.028049   0.557013
     5  H   -0.001425   0.408307
     6  H   -0.001425  -0.408307
     7  H   -0.028049  -0.557013
     8  H   -0.027624   0.556950
     9  H    0.028101   0.596188
    10  H    0.028998  -0.596748
 Sum of Mulliken charges =   0.00000  -0.00000

 Dipole moment (field-independent basis, Debye):
    X=              0.0000    Y=              0.0000    Z=              0.0000  Tot=              0.0000
 Quadrupole moment (field-independent basis, Debye-Ang):
   XX=            -12.9487   YY=            -15.5771   ZZ=            -12.7901
   XY=              0.0257   XZ=              0.0000   YZ=              0.0000

 Normal termination of Gaussian 09 at Thu Feb 23 14:42:31 2017.
