 Gaussian 09, Revision E.01,
 Gaussian 09:  ES64L-G09RevE.01 30-Nov-2015

 --------------------------------------
 #T UHF/sto-3g Pop=NaturalOrbitals test
 --------------------------------------

 les H3 with the height of the triangle = 1.0000000 and the length of t
 he third side = 3.4641020
 ----------------------------------------------------------------------
 Symbolic Z-matrix:
 Charge =  0 Multiplicity = 2

                         Standard orientation:
 ---------------------------------------------------------------------
 Center     Atomic      Atomic             Coordinates (Angstroms)
 Number     Number       Type             X           Y           Z
 ---------------------------------------------------------------------
      1          1           0       -0.000000    0.000000    0.666667
      2          1           0        0.000000    1.732051   -0.333333
      3          1           0       -0.000000   -1.732051   -0.333333
 ---------------------------------------------------------------------

 SCF Done:  E(UHF) =  -1.40769303475     A.U. after   11 cycles

 Mulliken charges and spin densities:
               1          2
     1  H    0.000361  -0.959727
     2  H   -0.000181   0.979863
     3  H   -0.000181   0.979863
 Sum of Mulliken charges =  -0.00000   1.00000

 Dipole moment (field-independent basis, Debye):
    X=              0.0000    Y=              0.0000    Z=              0.0017  Tot=              0.0017
                          Isotropic Fermi Contact Couplings
        Atom                 a.u.       MegaHertz       Gauss      10(-4) cm-1
     1  H(1)              -0.37863   -1692.44851    -603.90769    -564.54006
     2  H(1)               0.38679    1728.88993     616.91090     576.69561
     3  H(1)               0.38679    1728.88993     616.91090     576.69561
 --------------------------------------------------------
       Center         ----  Spin Dipole Couplings  ----
                      3XX-RR        3YY-RR        3ZZ-RR
 --------------------------------------------------------
     1   Atom       -0.035659      0.044596     -0.008937

 Normal termination of Gaussian 09 at Thu Dec  8 14:12:53 2016.
