 Gaussian 09, Revision E.01,
 Gaussian 09:  ES64L-G09RevE.01 30-Nov-2015

 --------------------
 #T RHF/6-31G(d) Test
 --------------------
 -----------------------------------------------------
 single point E of RR-1,2-dichloro-1,2-difluoro-ethane
 -----------------------------------------------------
 Symbolic Z-matrix:
 Charge =  0 Multiplicity = 1

                         Standard orientation:
 ---------------------------------------------------------------------
 Center     Atomic      Atomic             Coordinates (Angstroms)
 Number     Number       Type             X           Y           Z
 ---------------------------------------------------------------------
      1          6           0       -0.236395    0.727559   -0.278054
      2          6           0        0.236395   -0.727559   -0.278054
      3         17           0       -1.995792    0.773637   -0.278054
      4         17           0        1.995792   -0.773637   -0.278054
      5          1           0        0.139766    1.232353   -1.167877
      6          1           0       -0.139766   -1.232353   -1.167877
      7          9           0        0.236395    1.362025    0.840347
      8          9           0       -0.236395   -1.362025    0.840347
 ---------------------------------------------------------------------

 SCF Done:  E(RHF) =  -1194.71531021     A.U. after   12 cycles

 The electronic state is 1-A.
 Alpha  occ. eigenvalues -- -104.84869-104.84869 -26.33011 -26.33010 -11.41798
 Alpha  occ. eigenvalues --  -11.41736 -10.58381 -10.58380  -8.05316  -8.05316
 Alpha  occ. eigenvalues --   -8.04967  -8.04967  -8.04950  -8.04950  -1.64714
 Alpha  occ. eigenvalues --   -1.63280  -1.19665  -1.15816  -1.00155  -0.88563
 Alpha  occ. eigenvalues --   -0.78870  -0.75676  -0.73863  -0.70795  -0.70097
 Alpha  occ. eigenvalues --   -0.65770  -0.58654  -0.58006  -0.54929  -0.49193
 Alpha  occ. eigenvalues --   -0.48158  -0.48017  -0.46238
 Alpha virt. eigenvalues --    0.16218   0.18687   0.22942   0.25793   0.28459
 Alpha virt. eigenvalues --    0.33570   0.35002   0.53125   0.55077   0.59717
 Alpha virt. eigenvalues --    0.61829   0.62508   0.63445   0.64142   0.66334

 Mulliken charges:
               1
     1  C    0.142638
     2  C    0.142638
     3  Cl  -0.015972
     4  Cl  -0.015972
     5  H    0.232183
     6  H    0.232183
     7  F   -0.358849
     8  F   -0.358849
 Sum of Mulliken charges =  -0.00000

 Dipole moment (field-independent basis, Debye):
    X=              0.0000    Y=             -0.0000    Z=             -2.8349  Tot=              2.8349

 Test job not archived.
 1\1\GINC-SULU\SP\RHF\6-31G(d)\C2H2Cl2F2\LCJ1\22-Nov-2016\0\\#T RHF/6-3
 1G(d) Test\\single point E of RR-1,2-dichloro-1,2-difluoro-ethane\\0,1
 \C\C,1,1.53\Cl,1,1.76,2,109.5\Cl,2,1.76,1,109.5,3,180.,0\H,1,1.09,2,10
 9.5,4,60.,0\H,2,1.09,1,109.5,5,-60.,0\F,1,1.37,2,109.5,4,-60.,0\F,2,1.
 37,1,109.5,3,-60.,0\\Version=ES64L-G09RevE.01\State=1-A\HF=-1194.71531
 02\RMSD=4.174e-09\Dipole=0.,1.1153448,0.\Quadrupole=-0.4440938,1.11957
 42,-0.6754804,0.,0.8531361,0.\PG=C02 [X(C2H2Cl2F2)]\\@

 Normal termination of Gaussian 09 at Tue Nov 22 15:48:30 2016.
