 Gaussian 09, Revision E.01,
 Gaussian 09:  ES64L-G09RevE.01 30-Nov-2015

 ----------------------------------------------------------------------
 #rhf/gen scf(tight,novaracc,noincfock,fulldiag) stable(crhf) guess=mix
  geom=nocrowd test
 ----------------------------------------------------------------------

 ----------------------------------------------------------------------
 hf stability analysis of h10 triangular lattice, y= 1.3742008147382716
 ----------------------------------------------------------------------
 Symbolic Z-matrix:
 Charge =  0 Multiplicity = 1

                         Standard orientation:
 ---------------------------------------------------------------------
 Center     Atomic      Atomic             Coordinates (Angstroms)
 Number     Number       Type             X           Y           Z
 ---------------------------------------------------------------------
      1          1           0        0.000000    0.420135    2.748402
      2          1           0        0.000000    0.840271    1.374201
      3          1           0        0.000000    0.000000    1.374201
      4          1           0       -0.000000    0.420135    0.000000
      5          1           0        0.000000    0.000000   -1.374201
      6          1           0       -0.000000   -0.420135   -2.748402
      7          1           0       -0.000000   -0.420135   -0.000000
      8          1           0       -0.000000   -0.840271   -1.374201
      9          1           0       -0.000000   -0.420135    2.748402
     10          1           0       -0.000000   -0.840271    1.374201
     11          1           0        0.000000    0.840271   -1.374201
     12          1           0        0.000000    0.420135   -2.748402
 ---------------------------------------------------------------------

 SCF Done:  E(RHF) =  -5.92528203869     A.U. after   18 cycles
 E2 =    -0.1216720450D+00 EUMP2 =    -0.60469540836765D+01

 Unable to determine electronic state:  partially filled degenerate orbitals.
 Alpha  occ. eigenvalues --   -0.84677  -0.78990  -0.60971  -0.51221  -0.35849
 Alpha  occ. eigenvalues --   -0.35737
 Alpha virt. eigenvalues --   -0.12069   0.34097   0.43280   0.60234   0.61964
 Alpha virt. eigenvalues --    0.65371

 Mulliken charges:
               1
     1  H   -0.059161
     2  H    0.200682
     3  H   -0.168279
     4  H   -0.099213
     5  H   -0.168279
     6  H   -0.059161
     7  H   -0.099213
     8  H    0.200682
     9  H    0.019327
    10  H    0.106644
    11  H    0.106644
    12  H    0.019327
 Sum of Mulliken charges =  -0.00000

 Dipole moment (field-independent basis, Debye):
    X=             -0.0000    Y=             -0.0000    Z=             -0.0000  Tot=              0.0000
 Quadrupole moment (field-independent basis, Debye-Ang):
   XX=            -15.0865   YY=            -13.3047   ZZ=            -22.0632
   XY=              0.0000   XZ=              0.0000   YZ=              0.4155

 Normal termination of Gaussian 09 at Mon Feb 13 17:39:22 2017.
