 Gaussian 09, Revision E.01,
 Gaussian 09:  ES64L-G09RevE.01 30-Nov-2015

 ----------------------------------------------------------------------
 #rhf/gen scf(tight,novaracc,noincfock,fulldiag) stable(crhf) guess=mix
  geom=nocrowd test
 ----------------------------------------------------------------------

 hf stability analysis of h10 triangular lattice, y= 0.8443744677903469
 7
 ----------------------------------------------------------------------
 Symbolic Z-matrix:
 Charge =  0 Multiplicity = 1

                         Standard orientation:
 ---------------------------------------------------------------------
 Center     Atomic      Atomic             Coordinates (Angstroms)
 Number     Number       Type             X           Y           Z
 ---------------------------------------------------------------------
      1          1           0        0.000000    0.683761    1.688749
      2          1           0        0.000000    1.367522    0.844374
      3          1           0        0.000000    0.000000    0.844374
      4          1           0       -0.000000    0.683761   -0.000000
      5          1           0        0.000000   -0.000000   -0.844374
      6          1           0       -0.000000   -0.683761   -1.688749
      7          1           0       -0.000000   -0.683761    0.000000
      8          1           0       -0.000000   -1.367522   -0.844374
      9          1           0       -0.000000   -0.683761    1.688749
     10          1           0       -0.000000   -1.367522    0.844374
     11          1           0        0.000000    1.367522   -0.844374
     12          1           0        0.000000    0.683761   -1.688749
 ---------------------------------------------------------------------

 SCF Done:  E(RHF) =  -5.87361961543     A.U. after   13 cycles
 E2 =    -0.1415327738D+00 EUMP2 =    -0.60151523891938D+01

 The electronic state is 1-AG.
 Alpha  occ. eigenvalues --   -0.96808  -0.76194  -0.68083  -0.44672  -0.44201
 Alpha  occ. eigenvalues --   -0.28192
 Alpha virt. eigenvalues --    0.09854   0.14065   0.20886   0.43451   0.49730
 Alpha virt. eigenvalues --    0.77196

 Mulliken charges:
               1
     1  H    0.049305
     2  H   -0.068120
     3  H    0.002832
     4  H    0.034797
     5  H    0.002832
     6  H    0.049305
     7  H    0.034797
     8  H   -0.068120
     9  H    0.049305
    10  H   -0.068120
    11  H   -0.068120
    12  H    0.049305
 Sum of Mulliken charges =  -0.00000

 Dipole moment (field-independent basis, Debye):
    X=              0.0000    Y=              0.0000    Z=              0.0000  Tot=              0.0000
 Quadrupole moment (field-independent basis, Debye-Ang):
   XX=            -15.2903   YY=            -21.6041   ZZ=            -15.8732
   XY=             -0.0000   XZ=              0.0000   YZ=              0.0000

 Normal termination of Gaussian 09 at Mon Feb 13 17:38:21 2017.
