 Gaussian 09, Revision E.01,
 Gaussian 09:  ES64L-G09RevE.01 30-Nov-2015

 ----------------------------------------------------------------------
 #rhf/gen scf(tight,novaracc,noincfock,fulldiag) stable(crhf) guess=mix
  geom=nocrowd test
 ----------------------------------------------------------------------

 ----------------------------------------------------------------------
 hf stability analysis of h10 triangular lattice, y= 2.0268354180156947
 ----------------------------------------------------------------------
 Symbolic Z-matrix:
 Charge =  0 Multiplicity = 1

                         Standard orientation:
 ---------------------------------------------------------------------
 Center     Atomic      Atomic             Coordinates (Angstroms)
 Number     Number       Type             X           Y           Z
 ---------------------------------------------------------------------
      1          1           0       -0.000000    0.284853    4.053671
      2          1           0       -0.000000    0.569706    2.026835
      3          1           0       -0.000000   -0.000000    2.026835
      4          1           0        0.000000    0.284853    0.000000
      5          1           0        0.000000    0.000000   -2.026835
      6          1           0       -0.000000   -0.284853   -4.053671
      7          1           0       -0.000000   -0.284853   -0.000000
      8          1           0       -0.000000   -0.569706   -2.026835
      9          1           0       -0.000000   -0.284853    4.053671
     10          1           0       -0.000000   -0.569706    2.026835
     11          1           0        0.000000    0.569706   -2.026835
     12          1           0        0.000000    0.284853   -4.053671
 ---------------------------------------------------------------------

 SCF Done:  E(RHF) =  -5.40361778738     A.U. after   15 cycles
 E2 =    -0.1890783837D+00 EUMP2 =    -0.55926961710504D+01

 The electronic state is 1-AG.
 Alpha  occ. eigenvalues --   -0.87932  -0.87209  -0.69068  -0.68343  -0.66855
 Alpha  occ. eigenvalues --   -0.18478
 Alpha virt. eigenvalues --   -0.04720   0.53936   0.55460   0.59615   1.20817
 Alpha virt. eigenvalues --    1.21375

 Mulliken charges:
               1
     1  H   -0.005529
     2  H    0.228564
     3  H   -0.417615
     4  H   -0.028454
     5  H   -0.417615
     6  H   -0.005529
     7  H   -0.028454
     8  H    0.228564
     9  H   -0.005529
    10  H    0.228564
    11  H    0.228564
    12  H   -0.005529
 Sum of Mulliken charges =   0.00000

 Dipole moment (field-independent basis, Debye):
    X=             -0.0000    Y=             -0.0000    Z=              0.0000  Tot=              0.0000
 Quadrupole moment (field-independent basis, Debye-Ang):
   XX=            -15.4716   YY=            -15.7600   ZZ=            -18.4519
   XY=              0.0000   XZ=              0.0000   YZ=             -0.0000

 Normal termination of Gaussian 09 at Mon Feb 13 17:39:41 2017.
