 Gaussian 09, Revision E.01,
 Gaussian 09:  ES64L-G09RevE.01 30-Nov-2015

 ----------------------------------------------------------------------
 #rhf/gen scf(tight,novaracc,noincfock,fulldiag) stable(crhf) guess=mix
  geom=nocrowd test
 ----------------------------------------------------------------------

 ----------------------------------------------------------------------
 hf stability analysis of h10 triangular lattice, y= 1.0644781770328475
 ----------------------------------------------------------------------
 Symbolic Z-matrix:
 Charge =  0 Multiplicity = 1

                         Standard orientation:
 ---------------------------------------------------------------------
 Center     Atomic      Atomic             Coordinates (Angstroms)
 Number     Number       Type             X           Y           Z
 ---------------------------------------------------------------------
      1          1           0        0.000000    0.542379    2.128956
      2          1           0        0.000000    1.084757    1.064478
      3          1           0        0.000000   -0.000000    1.064478
      4          1           0        0.000000    0.542379    0.000000
      5          1           0        0.000000    0.000000   -1.064478
      6          1           0       -0.000000   -0.542379   -2.128956
      7          1           0       -0.000000   -0.542379   -0.000000
      8          1           0       -0.000000   -1.084757   -1.064478
      9          1           0       -0.000000   -0.542379    2.128956
     10          1           0       -0.000000   -1.084757    1.064478
     11          1           0        0.000000    1.084757   -1.064478
     12          1           0        0.000000    0.542379   -2.128956
 ---------------------------------------------------------------------

 SCF Done:  E(RHF) =  -5.96201480669     A.U. after   13 cycles
 E2 =    -0.1162418104D+00 EUMP2 =    -0.60782566171295D+01

 The electronic state is 1-AG.
 Alpha  occ. eigenvalues --   -0.95790  -0.80720  -0.57644  -0.56480  -0.41861
 Alpha  occ. eigenvalues --   -0.30578
 Alpha virt. eigenvalues --    0.15647   0.15680   0.32177   0.32525   0.40121
 Alpha virt. eigenvalues --    0.63552

 Mulliken charges:
               1
     1  H   -0.043613
     2  H   -0.009639
     3  H    0.015100
     4  H    0.091403
     5  H    0.015100
     6  H   -0.043613
     7  H    0.091403
     8  H   -0.009639
     9  H   -0.043613
    10  H   -0.009639
    11  H   -0.009639
    12  H   -0.043613
 Sum of Mulliken charges =  -0.00000

 Dipole moment (field-independent basis, Debye):
    X=             -0.0000    Y=              0.0000    Z=              0.0000  Tot=              0.0000
 Quadrupole moment (field-independent basis, Debye-Ang):
   XX=            -15.3360   YY=            -16.9012   ZZ=            -24.6002
   XY=             -0.0000   XZ=              0.0000   YZ=              0.0000

 Normal termination of Gaussian 09 at Mon Feb 13 17:38:55 2017.
