 Gaussian 09, Revision E.01,
 Gaussian 09:  ES64L-G09RevE.01 30-Nov-2015

 ----------------------------------------------------------------------
 #rhf/gen scf(tight,novaracc,noincfock,fulldiag) stable(crhf) guess=mix
  geom=nocrowd test
 ----------------------------------------------------------------------

 hf stability analysis of h10 triangular lattice, y= 0.4458672966047664
 3
 ----------------------------------------------------------------------
 Symbolic Z-matrix:
 Charge =  0 Multiplicity = 1

                         Standard orientation:
 ---------------------------------------------------------------------
 Center     Atomic      Atomic             Coordinates (Angstroms)
 Number     Number       Type             X           Y           Z
 ---------------------------------------------------------------------
      1          1           0       -0.000000    0.891735    1.294893
      2          1           0        0.000000    0.445867    2.589785
      3          1           0       -0.000000    0.445867   -0.000000
      4          1           0        0.000000    0.000000    1.294893
      5          1           0       -0.000000   -0.445867    0.000000
      6          1           0       -0.000000   -0.891735   -1.294893
      7          1           0        0.000000   -0.000000   -1.294893
      8          1           0       -0.000000   -0.445867   -2.589785
      9          1           0        0.000000    0.891735   -1.294893
     10          1           0        0.000000    0.445867   -2.589785
     11          1           0       -0.000000   -0.445867    2.589785
     12          1           0       -0.000000   -0.891735    1.294893
 ---------------------------------------------------------------------

 SCF Done:  E(RHF) =  -5.97178452815     A.U. after   14 cycles
 E2 =    -0.1046621761D+00 EUMP2 =    -0.60764467042447D+01

 The electronic state is 1-AG.
 Alpha  occ. eigenvalues --   -0.92584  -0.82032  -0.62694  -0.47539  -0.45660
 Alpha  occ. eigenvalues --   -0.37354
 Alpha virt. eigenvalues --   -0.07403   0.23052   0.39767   0.48666   0.54048
 Alpha virt. eigenvalues --    0.56873

 Mulliken charges:
               1
     1  H   -0.114248
     2  H    0.019218
     3  H    0.185221
     4  H    0.004839
     5  H    0.185221
     6  H   -0.114248
     7  H    0.004839
     8  H    0.019218
     9  H   -0.114248
    10  H    0.019218
    11  H    0.019218
    12  H   -0.114248
 Sum of Mulliken charges =  -0.00000

 Dipole moment (field-independent basis, Debye):
    X=              0.0000    Y=             -0.0000    Z=             -0.0000  Tot=              0.0000
 Quadrupole moment (field-independent basis, Debye-Ang):
   XX=            -15.5653   YY=            -19.6470   ZZ=            -19.6315
   XY=             -0.0000   XZ=              0.0000   YZ=              0.0000

 Normal termination of Gaussian 09 at Mon Feb 13 17:36:51 2017.
