 Gaussian 09, Revision E.01,
 Gaussian 09:  ES64L-G09RevE.01 30-Nov-2015

 ----------------------------------------------------------------------
 #rhf/gen scf(tight,novaracc,noincfock,fulldiag) stable(crhf) guess=mix
  geom=nocrowd test
 ----------------------------------------------------------------------

 hf stability analysis of h10 triangular lattice, y= 0.2848531043101661
 9
 ----------------------------------------------------------------------
 Symbolic Z-matrix:
 Charge =  0 Multiplicity = 1

                         Standard orientation:
 ---------------------------------------------------------------------
 Center     Atomic      Atomic             Coordinates (Angstroms)
 Number     Number       Type             X           Y           Z
 ---------------------------------------------------------------------
      1          1           0        0.000000    0.569706    2.026835
      2          1           0        0.000000    0.284853    4.053670
      3          1           0        0.000000    0.284853    0.000000
      4          1           0        0.000000   -0.000000    2.026835
      5          1           0       -0.000000   -0.284853   -0.000000
      6          1           0       -0.000000   -0.569706   -2.026835
      7          1           0        0.000000    0.000000   -2.026835
      8          1           0       -0.000000   -0.284853   -4.053670
      9          1           0        0.000000    0.569706   -2.026835
     10          1           0        0.000000    0.284853   -4.053670
     11          1           0       -0.000000   -0.284853    4.053670
     12          1           0       -0.000000   -0.569706    2.026835
 ---------------------------------------------------------------------

 SCF Done:  E(RHF) =  -5.40361725628     A.U. after   15 cycles
 E2 =    -0.1890783417D+00 EUMP2 =    -0.55926955980130D+01

 The electronic state is 1-AG.
 Alpha  occ. eigenvalues --   -0.87932  -0.87209  -0.69068  -0.68343  -0.66855
 Alpha  occ. eigenvalues --   -0.18478
 Alpha virt. eigenvalues --   -0.04720   0.53936   0.55460   0.59615   1.20817
 Alpha virt. eigenvalues --    1.21375

 Mulliken charges:
               1
     1  H    0.228564
     2  H   -0.005529
     3  H   -0.028454
     4  H   -0.417616
     5  H   -0.028454
     6  H    0.228564
     7  H   -0.417616
     8  H   -0.005529
     9  H    0.228564
    10  H   -0.005529
    11  H   -0.005529
    12  H    0.228564
 Sum of Mulliken charges =  -0.00000

 Dipole moment (field-independent basis, Debye):
    X=             -0.0000    Y=              0.0000    Z=              0.0000  Tot=              0.0000
 Quadrupole moment (field-independent basis, Debye-Ang):
   XX=            -15.4716   YY=            -15.7600   ZZ=            -18.4519
   XY=              0.0000   XZ=              0.0000   YZ=              0.0000

 Normal termination of Gaussian 09 at Mon Feb 13 17:36:21 2017.
