 Gaussian 09, Revision E.01,
 Gaussian 09:  ES64L-G09RevE.01 30-Nov-2015

 ----------------------------------------------------------------------
 #rhf/gen scf(tight,novaracc,noincfock,fulldiag) stable(crhf) guess=mix
  geom=nocrowd test
 ----------------------------------------------------------------------

 ----------------------------------------------------------------------
 hf stability analysis of h10 triangular lattice, y= 1.1662555983306084
 ----------------------------------------------------------------------
 Symbolic Z-matrix:
 Charge =  0 Multiplicity = 1

                         Standard orientation:
 ---------------------------------------------------------------------
 Center     Atomic      Atomic             Coordinates (Angstroms)
 Number     Number       Type             X           Y           Z
 ---------------------------------------------------------------------
      1          1           0       -0.000000    0.495046    2.332511
      2          1           0       -0.000000    0.990092    1.166256
      3          1           0       -0.000000    0.000000    1.166256
      4          1           0       -0.000000    0.495046    0.000000
      5          1           0        0.000000    0.000000   -1.166256
      6          1           0       -0.000000   -0.495046   -2.332511
      7          1           0       -0.000000   -0.495046    0.000000
      8          1           0       -0.000000   -0.990092   -1.166256
      9          1           0       -0.000000   -0.495046    2.332511
     10          1           0       -0.000000   -0.990092    1.166256
     11          1           0        0.000000    0.990092   -1.166256
     12          1           0        0.000000    0.495046   -2.332511
 ---------------------------------------------------------------------

 SCF Done:  E(RHF) =  -6.02057088151     A.U. after   12 cycles
 E2 =    -0.1089284314D+00 EUMP2 =    -0.61294993128781D+01

 The electronic state is 1-AG.
 Alpha  occ. eigenvalues --   -0.94496  -0.81710  -0.59737  -0.52999  -0.39973
 Alpha  occ. eigenvalues --   -0.38193
 Alpha virt. eigenvalues --    0.07794   0.18798   0.35064   0.39544   0.41668
 Alpha virt. eigenvalues --    0.61352

 Mulliken charges:
               1
     1  H   -0.012013
     2  H   -0.059230
     3  H    0.006009
     4  H    0.136476
     5  H    0.006009
     6  H   -0.012013
     7  H    0.136476
     8  H   -0.059230
     9  H   -0.012013
    10  H   -0.059230
    11  H   -0.059230
    12  H   -0.012013
 Sum of Mulliken charges =   0.00000

 Dipole moment (field-independent basis, Debye):
    X=             -0.0000    Y=              0.0000    Z=              0.0000  Tot=              0.0000
 Quadrupole moment (field-independent basis, Debye-Ang):
   XX=            -15.4608   YY=            -18.3452   ZZ=            -22.4532
   XY=             -0.0000   XZ=              0.0000   YZ=              0.0000

 Normal termination of Gaussian 09 at Mon Feb 13 17:39:06 2017.
