 Gaussian 09, Revision E.01,
 Gaussian 09:  ES64L-G09RevE.01 30-Nov-2015

 ----------------------------------------------------------------------
 #rhf/gen scf(tight,novaracc,noincfock,fulldiag) stable(crhf) guess=mix
  geom=nocrowd test
 ----------------------------------------------------------------------

 hf stability analysis of h10 triangular lattice, y= 0.5540600992415728
 5
 ----------------------------------------------------------------------
 Symbolic Z-matrix:
 Charge =  0 Multiplicity = 1

                         Standard orientation:
 ---------------------------------------------------------------------
 Center     Atomic      Atomic             Coordinates (Angstroms)
 Number     Number       Type             X           Y           Z
 ---------------------------------------------------------------------
      1          1           0        0.000000    1.108120    1.042035
      2          1           0        0.000000    0.554060    2.084071
      3          1           0       -0.000000    0.554060    0.000000
      4          1           0       -0.000000    0.000000    1.042035
      5          1           0       -0.000000   -0.554060    0.000000
      6          1           0       -0.000000   -1.108120   -1.042035
      7          1           0        0.000000    0.000000   -1.042035
      8          1           0       -0.000000   -0.554060   -2.084071
      9          1           0        0.000000    1.108120   -1.042035
     10          1           0        0.000000    0.554060   -2.084071
     11          1           0       -0.000000   -0.554060    2.084071
     12          1           0       -0.000000   -1.108120    1.042035
 ---------------------------------------------------------------------

 SCF Done:  E(RHF) =  -5.93493892328     A.U. after   13 cycles
 E2 =    -0.1185307623D+00 EUMP2 =    -0.60534696855541D+01

 The electronic state is 1-AG.
 Alpha  occ. eigenvalues --   -0.96035  -0.80388  -0.58700  -0.55618  -0.42242
 Alpha  occ. eigenvalues --   -0.28638
 Alpha virt. eigenvalues --    0.14741   0.15064   0.30620   0.34714   0.40329
 Alpha virt. eigenvalues --    0.63598

 Mulliken charges:
               1
     1  H    0.001565
     2  H   -0.051445
     3  H    0.080519
     4  H    0.019242
     5  H    0.080519
     6  H    0.001565
     7  H    0.019242
     8  H   -0.051445
     9  H    0.001565
    10  H   -0.051445
    11  H   -0.051445
    12  H    0.001565
 Sum of Mulliken charges =  -0.00000

 Dipole moment (field-independent basis, Debye):
    X=             -0.0000    Y=              0.0000    Z=              0.0000  Tot=              0.0000
 Quadrupole moment (field-independent basis, Debye-Ang):
   XX=            -15.3030   YY=            -16.5329   ZZ=            -25.0465
   XY=             -0.0000   XZ=              0.0000   YZ=             -0.0000

 Normal termination of Gaussian 09 at Mon Feb 13 17:37:17 2017.
