 Gaussian 09, Revision E.01,
 Gaussian 09:  ES64L-G09RevE.01 30-Nov-2015

 ----------------------------------------------------------------------
 #rhf/gen scf(tight,novaracc,noincfock,fulldiag) stable(crhf) guess=mix
  geom=nocrowd test
 ----------------------------------------------------------------------

 hf stability analysis of h10 triangular lattice, y= 0.7466864790071482
 4
 ----------------------------------------------------------------------
 Symbolic Z-matrix:
 Charge =  0 Multiplicity = 1

                         Standard orientation:
 ---------------------------------------------------------------------
 Center     Atomic      Atomic             Coordinates (Angstroms)
 Number     Number       Type             X           Y           Z
 ---------------------------------------------------------------------
      1          1           0        0.000000    1.493373    0.773216
      2          1           0        0.000000    0.746686    1.546433
      3          1           0        0.000000    0.746686    0.000000
      4          1           0        0.000000    0.000000    0.773216
      5          1           0       -0.000000   -0.746686   -0.000000
      6          1           0       -0.000000   -1.493373   -0.773216
      7          1           0        0.000000   -0.000000   -0.773216
      8          1           0       -0.000000   -0.746686   -1.546433
      9          1           0        0.000000    1.493373   -0.773216
     10          1           0        0.000000    0.746686   -1.546433
     11          1           0       -0.000000   -0.746686    1.546433
     12          1           0       -0.000000   -1.493373    0.773216
 ---------------------------------------------------------------------

 SCF Done:  E(RHF) =  -5.91648092850     A.U. after   13 cycles
 E2 =    -0.1384819892D+00 EUMP2 =    -0.60549629176807D+01

 The electronic state is 1-AG.
 Alpha  occ. eigenvalues --   -0.97229  -0.73346  -0.71995  -0.45145  -0.38445
 Alpha  occ. eigenvalues --   -0.35279
 Alpha virt. eigenvalues --    0.10770   0.11504   0.32859   0.37834   0.44292
 Alpha virt. eigenvalues --    0.85309

 Mulliken charges:
               1
     1  H   -0.015436
     2  H    0.004102
     3  H    0.014200
     4  H    0.008469
     5  H    0.014200
     6  H   -0.015436
     7  H    0.008469
     8  H    0.004102
     9  H   -0.015436
    10  H    0.004102
    11  H    0.004102
    12  H   -0.015436
 Sum of Mulliken charges =  -0.00000

 Dipole moment (field-independent basis, Debye):
    X=              0.0000    Y=             -0.0000    Z=              0.0000  Tot=              0.0000
 Quadrupole moment (field-independent basis, Debye-Ang):
   XX=            -15.2943   YY=            -19.4622   ZZ=            -18.5123
   XY=             -0.0000   XZ=              0.0000   YZ=             -0.0000

 Normal termination of Gaussian 09 at Mon Feb 13 17:38:01 2017.
