 Gaussian 09, Revision E.01,
 Gaussian 09:  ES64L-G09RevE.01 30-Nov-2015

 ----------------------------------------------------------------------
 #rhf/gen scf(tight,novaracc,noincfock,fulldiag) stable(crhf) guess=mix
  geom=nocrowd test
 ----------------------------------------------------------------------

 hf stability analysis of h10 triangular lattice, y= 0.9802409242172439
 6
 ----------------------------------------------------------------------
 Symbolic Z-matrix:
 Charge =  0 Multiplicity = 1

                         Standard orientation:
 ---------------------------------------------------------------------
 Center     Atomic      Atomic             Coordinates (Angstroms)
 Number     Number       Type             X           Y           Z
 ---------------------------------------------------------------------
      1          1           0        0.000000    0.588988    1.960482
      2          1           0        0.000000    1.177976    0.980241
      3          1           0        0.000000    0.000000    0.980241
      4          1           0       -0.000000    0.588988    0.000000
      5          1           0        0.000000   -0.000000   -0.980241
      6          1           0       -0.000000   -0.588988   -1.960482
      7          1           0       -0.000000   -0.588988   -0.000000
      8          1           0       -0.000000   -1.177976   -0.980241
      9          1           0       -0.000000   -0.588988    1.960482
     10          1           0       -0.000000   -1.177976    0.980241
     11          1           0        0.000000    1.177976   -0.980241
     12          1           0        0.000000    0.588988   -1.960482
 ---------------------------------------------------------------------

 SCF Done:  E(RHF) =  -5.82998444382     A.U. after   14 cycles
 E2 =    -0.1267701821D+00 EUMP2 =    -0.59567546258972D+01

 The electronic state is 1-AG.
 Alpha  occ. eigenvalues --   -0.96641  -0.79243  -0.61643  -0.52937  -0.43195
 Alpha  occ. eigenvalues --   -0.22709
 Alpha virt. eigenvalues --    0.09668   0.13565   0.25647   0.40978   0.45295
 Alpha virt. eigenvalues --    0.62362

 Mulliken charges:
               1
     1  H   -0.074310
     2  H    0.031319
     3  H    0.037869
     4  H    0.048113
     5  H    0.037869
     6  H   -0.074310
     7  H    0.048113
     8  H    0.031319
     9  H   -0.074310
    10  H    0.031319
    11  H    0.031319
    12  H   -0.074310
 Sum of Mulliken charges =   0.00000

 Dipole moment (field-independent basis, Debye):
    X=             -0.0000    Y=              0.0000    Z=             -0.0000  Tot=              0.0000
 Quadrupole moment (field-independent basis, Debye-Ang):
   XX=            -15.2006   YY=            -15.4623   ZZ=            -26.1733
   XY=             -0.0000   XZ=              0.0000   YZ=             -0.0000

 Normal termination of Gaussian 09 at Mon Feb 13 17:38:44 2017.
