 Gaussian 09, Revision E.01,
 Gaussian 09:  ES64L-G09RevE.01 30-Nov-2015

 ----------------------------------------------------------------------
 #rhf/gen scf(tight,novaracc,noincfock,fulldiag) stable(crhf) guess=mix
  geom=nocrowd test
 ----------------------------------------------------------------------

 hf stability analysis of h10 triangular lattice, y= 0.4707695940863088
 6
 ----------------------------------------------------------------------
 Symbolic Z-matrix:
 Charge =  0 Multiplicity = 1

                         Standard orientation:
 ---------------------------------------------------------------------
 Center     Atomic      Atomic             Coordinates (Angstroms)
 Number     Number       Type             X           Y           Z
 ---------------------------------------------------------------------
      1          1           0        0.000000    0.941539    1.226397
      2          1           0        0.000000    0.470770    2.452793
      3          1           0       -0.000000    0.470770   -0.000000
      4          1           0       -0.000000    0.000000    1.226397
      5          1           0       -0.000000   -0.470770    0.000000
      6          1           0       -0.000000   -0.941539   -1.226397
      7          1           0        0.000000   -0.000000   -1.226397
      8          1           0       -0.000000   -0.470770   -2.452793
      9          1           0        0.000000    0.941539   -1.226397
     10          1           0        0.000000    0.470770   -2.452793
     11          1           0       -0.000000   -0.470770    2.452793
     12          1           0       -0.000000   -0.941539    1.226397
 ---------------------------------------------------------------------

 SCF Done:  E(RHF) =  -6.01255766571     A.U. after   12 cycles
 E2 =    -0.1063617279D+00 EUMP2 =    -0.61189193935943D+01

 The electronic state is 1-AG.
 Alpha  occ. eigenvalues --   -0.93626  -0.81965  -0.61250  -0.50386  -0.41937
 Alpha  occ. eigenvalues --   -0.38771
 Alpha virt. eigenvalues --    0.00394   0.20777   0.39520   0.41165   0.47369
 Alpha virt. eigenvalues --    0.59302

 Mulliken charges:
               1
     1  H   -0.086273
     2  H    0.003714
     3  H    0.160311
     4  H    0.004807
     5  H    0.160311
     6  H   -0.086273
     7  H    0.004807
     8  H    0.003714
     9  H   -0.086273
    10  H    0.003714
    11  H    0.003714
    12  H   -0.086273
 Sum of Mulliken charges =  -0.00000

 Dipole moment (field-independent basis, Debye):
    X=             -0.0000    Y=             -0.0000    Z=             -0.0000  Tot=              0.0000
 Quadrupole moment (field-independent basis, Debye-Ang):
   XX=            -15.5166   YY=            -19.0210   ZZ=            -21.1375
   XY=             -0.0000   XZ=              0.0000   YZ=              0.0000

 Normal termination of Gaussian 09 at Mon Feb 13 17:36:57 2017.
