 Gaussian 09, Revision E.01,
 Gaussian 09:  ES64L-G09RevE.01 30-Nov-2015

 ----------------------------------------------------------------------
 #rhf/gen scf(tight,novaracc,noincfock,fulldiag) stable(crhf) guess=mix
  geom=nocrowd test
 ----------------------------------------------------------------------

 hf stability analysis of h10 triangular lattice, y= 0.7868496627299574
 9
 ----------------------------------------------------------------------
 Symbolic Z-matrix:
 Charge =  0 Multiplicity = 1

                         Standard orientation:
 ---------------------------------------------------------------------
 Center     Atomic      Atomic             Coordinates (Angstroms)
 Number     Number       Type             X           Y           Z
 ---------------------------------------------------------------------
      1          1           0        0.000000    0.733749    1.573699
      2          1           0       -0.000000    1.467498    0.786850
      3          1           0        0.000000    0.000000    0.786850
      4          1           0       -0.000000    0.733749    0.000000
      5          1           0        0.000000   -0.000000   -0.786850
      6          1           0       -0.000000   -0.733749   -1.573699
      7          1           0       -0.000000   -0.733749   -0.000000
      8          1           0       -0.000000   -1.467498   -0.786850
      9          1           0       -0.000000   -0.733749    1.573699
     10          1           0       -0.000000   -1.467498    0.786850
     11          1           0        0.000000    1.467498   -0.786850
     12          1           0        0.000000    0.733749   -1.573699
 ---------------------------------------------------------------------

 SCF Done:  E(RHF) =  -5.91288925481     A.U. after   13 cycles
 E2 =    -0.1387395345D+00 EUMP2 =    -0.60516287893496D+01

 The electronic state is 1-AG.
 Alpha  occ. eigenvalues --   -0.97193  -0.73976  -0.71273  -0.45105  -0.39578
 Alpha  occ. eigenvalues --   -0.34033
 Alpha virt. eigenvalues --    0.10482   0.11948   0.30380   0.40306   0.44218
 Alpha virt. eigenvalues --    0.84570

 Mulliken charges:
               1
     1  H    0.013558
     2  H   -0.025521
     3  H    0.006266
     4  H    0.017660
     5  H    0.006266
     6  H    0.013558
     7  H    0.017660
     8  H   -0.025521
     9  H    0.013558
    10  H   -0.025521
    11  H   -0.025521
    12  H    0.013558
 Sum of Mulliken charges =   0.00000

 Dipole moment (field-independent basis, Debye):
    X=              0.0000    Y=             -0.0000    Z=             -0.0000  Tot=              0.0000
 Quadrupole moment (field-independent basis, Debye-Ang):
   XX=            -15.2940   YY=            -19.9164   ZZ=            -18.0156
   XY=             -0.0000   XZ=              0.0000   YZ=             -0.0000

 Normal termination of Gaussian 09 at Mon Feb 13 17:38:09 2017.
