 Gaussian 09, Revision E.01,
 Gaussian 09:  ES64L-G09RevE.01 30-Nov-2015

 ----------------------------------------------------------------------
 #rhf/gen scf(tight,novaracc,noincfock,fulldiag) stable(crhf) guess=mix
  geom=nocrowd test
 ----------------------------------------------------------------------

 ----------------------------------------------------------------------
 hf stability analysis of h10 triangular lattice, y= 1.4189643903365978
 ----------------------------------------------------------------------
 Symbolic Z-matrix:
 Charge =  0 Multiplicity = 1

                         Standard orientation:
 ---------------------------------------------------------------------
 Center     Atomic      Atomic             Coordinates (Angstroms)
 Number     Number       Type             X           Y           Z
 ---------------------------------------------------------------------
      1          1           0        0.000000    0.406881    2.837929
      2          1           0        0.000000    0.813763    1.418964
      3          1           0       -0.000000   -0.000000    1.418964
      4          1           0       -0.000000    0.406881    0.000000
      5          1           0        0.000000    0.000000   -1.418964
      6          1           0       -0.000000   -0.406881   -2.837929
      7          1           0       -0.000000   -0.406881   -0.000000
      8          1           0       -0.000000   -0.813763   -1.418964
      9          1           0       -0.000000   -0.406881    2.837929
     10          1           0       -0.000000   -0.813763    1.418964
     11          1           0        0.000000    0.813763   -1.418964
     12          1           0        0.000000    0.406881   -2.837929
 ---------------------------------------------------------------------

 SCF Done:  E(RHF) =  -5.95888952697     A.U. after   14 cycles
 E2 =    -0.1233550269D+00 EUMP2 =    -0.60822445538940D+01

 The electronic state is 1-AG.
 Alpha  occ. eigenvalues --   -0.84383  -0.79414  -0.61632  -0.53289  -0.39438
 Alpha  occ. eigenvalues --   -0.33821
 Alpha virt. eigenvalues --   -0.11502   0.35920   0.43897   0.61466   0.64677
 Alpha virt. eigenvalues --    0.69261

 Mulliken charges:
               1
     1  H   -0.020381
     2  H    0.167462
     3  H   -0.182722
     4  H   -0.111441
     5  H   -0.182722
     6  H   -0.020381
     7  H   -0.111441
     8  H    0.167462
     9  H   -0.020381
    10  H    0.167462
    11  H    0.167462
    12  H   -0.020381
 Sum of Mulliken charges =  -0.00000

 Dipole moment (field-independent basis, Debye):
    X=             -0.0000    Y=             -0.0000    Z=              0.0000  Tot=              0.0000
 Quadrupole moment (field-independent basis, Debye-Ang):
   XX=            -15.1221   YY=            -13.3441   ZZ=            -21.7529
   XY=              0.0000   XZ=              0.0000   YZ=             -0.0000

 Normal termination of Gaussian 09 at Mon Feb 13 17:39:24 2017.
