 Gaussian 09, Revision E.01,
 Gaussian 09:  ES64L-G09RevE.01 30-Nov-2015

 ----------------------------------------------------------------------
 #rhf/gen scf(tight,novaracc,noincfock,fulldiag) stable(crhf) guess=mix
  geom=nocrowd test
 ----------------------------------------------------------------------

 ----------------------------------------------------------------------
 hf stability analysis of h10 triangular lattice, y= 2.1684423371644423
 ----------------------------------------------------------------------
 Symbolic Z-matrix:
 Charge =  0 Multiplicity = 1

                         Standard orientation:
 ---------------------------------------------------------------------
 Center     Atomic      Atomic             Coordinates (Angstroms)
 Number     Number       Type             X           Y           Z
 ---------------------------------------------------------------------
      1          1           0       -0.000000    0.266251    4.336885
      2          1           0       -0.000000    0.532502    2.168442
      3          1           0       -0.000000   -0.000000    2.168442
      4          1           0       -0.000000    0.266251    0.000000
      5          1           0        0.000000    0.000000   -2.168442
      6          1           0       -0.000000   -0.266251   -4.336885
      7          1           0       -0.000000   -0.266251   -0.000000
      8          1           0       -0.000000   -0.532502   -2.168442
      9          1           0       -0.000000   -0.266251    4.336885
     10          1           0       -0.000000   -0.532502    2.168442
     11          1           0        0.000000    0.532502   -2.168442
     12          1           0        0.000000    0.266251   -4.336885
 ---------------------------------------------------------------------

 SCF Done:  E(RHF) =  -5.12235534152     A.U. after   14 cycles
 E2 =    -0.2154332624D+00 EUMP2 =    -0.53377886039589D+01

 The electronic state is 1-AG.
 Alpha  occ. eigenvalues --   -0.89748  -0.89285  -0.70330  -0.69971  -0.69294
 Alpha  occ. eigenvalues --   -0.15925
 Alpha virt. eigenvalues --   -0.03313   0.57438   0.58466   0.61300   1.33101
 Alpha virt. eigenvalues --    1.33370

 Mulliken charges:
               1
     1  H   -0.003798
     2  H    0.261844
     3  H   -0.496895
     4  H   -0.019199
     5  H   -0.496895
     6  H   -0.003798
     7  H   -0.019199
     8  H    0.261844
     9  H   -0.003798
    10  H    0.261844
    11  H    0.261844
    12  H   -0.003798
 Sum of Mulliken charges =   0.00000

 Dipole moment (field-independent basis, Debye):
    X=             -0.0000    Y=             -0.0000    Z=              0.0000  Tot=              0.0000
 Quadrupole moment (field-independent basis, Debye-Ang):
   XX=            -15.4865   YY=            -16.0043   ZZ=            -17.8919
   XY=              0.0000   XZ=              0.0000   YZ=             -0.0000

 Normal termination of Gaussian 09 at Mon Feb 13 17:39:44 2017.
