 Gaussian 09, Revision E.01,
 Gaussian 09:  ES64L-G09RevE.01 30-Nov-2015

 ----------------------------------------------------------------------
 #rhf/gen scf(tight,novaracc,noincfock,fulldiag) stable(crhf) guess=mix
  geom=nocrowd test
 ----------------------------------------------------------------------

 ----------------------------------------------------------------------
 hf stability analysis of h10 triangular lattice, y= 1.2948927059181552
 ----------------------------------------------------------------------
 Symbolic Z-matrix:
 Charge =  0 Multiplicity = 1

                         Standard orientation:
 ---------------------------------------------------------------------
 Center     Atomic      Atomic             Coordinates (Angstroms)
 Number     Number       Type             X           Y           Z
 ---------------------------------------------------------------------
      1          1           0       -0.000000    0.445867    2.589785
      2          1           0       -0.000000    0.891735    1.294893
      3          1           0       -0.000000    0.000000    1.294893
      4          1           0        0.000000    0.445867   -0.000000
      5          1           0        0.000000   -0.000000   -1.294893
      6          1           0       -0.000000   -0.445867   -2.589785
      7          1           0       -0.000000   -0.445867    0.000000
      8          1           0       -0.000000   -0.891735   -1.294893
      9          1           0       -0.000000   -0.445867    2.589785
     10          1           0       -0.000000   -0.891735    1.294893
     11          1           0        0.000000    0.891735   -1.294893
     12          1           0        0.000000    0.445867   -2.589785
 ---------------------------------------------------------------------

 SCF Done:  E(RHF) =  -5.97178458611     A.U. after   14 cycles
 E2 =    -0.1046621801D+00 EUMP2 =    -0.60764467662014D+01

 The electronic state is 1-AG.
 Alpha  occ. eigenvalues --   -0.92584  -0.82032  -0.62694  -0.47539  -0.45660
 Alpha  occ. eigenvalues --   -0.37354
 Alpha virt. eigenvalues --   -0.07403   0.23052   0.39767   0.48666   0.54048
 Alpha virt. eigenvalues --    0.56873

 Mulliken charges:
               1
     1  H    0.019218
     2  H   -0.114248
     3  H    0.004839
     4  H    0.185221
     5  H    0.004839
     6  H    0.019218
     7  H    0.185221
     8  H   -0.114248
     9  H    0.019218
    10  H   -0.114248
    11  H   -0.114248
    12  H    0.019218
 Sum of Mulliken charges =  -0.00000

 Dipole moment (field-independent basis, Debye):
    X=              0.0000    Y=             -0.0000    Z=              0.0000  Tot=              0.0000
 Quadrupole moment (field-independent basis, Debye-Ang):
   XX=            -15.5653   YY=            -19.6470   ZZ=            -19.6315
   XY=             -0.0000   XZ=              0.0000   YZ=              0.0000

 Normal termination of Gaussian 09 at Mon Feb 13 17:39:17 2017.
