 Gaussian 09, Revision E.01,
 Gaussian 09:  ES64L-G09RevE.01 30-Nov-2015

 ----------------------------------------------------------------------
 #rhf/gen scf(tight,novaracc,noincfock,fulldiag) stable(crhf) guess=mix
  geom=nocrowd test
 ----------------------------------------------------------------------

 hf stability analysis of h10 triangular lattice, y= 0.9080427759821990
 7
 ----------------------------------------------------------------------
 Symbolic Z-matrix:
 Charge =  0 Multiplicity = 1

                         Standard orientation:
 ---------------------------------------------------------------------
 Center     Atomic      Atomic             Coordinates (Angstroms)
 Number     Number       Type             X           Y           Z
 ---------------------------------------------------------------------
      1          1           0        0.000000    0.635818    1.816086
      2          1           0        0.000000    1.271637    0.908043
      3          1           0       -0.000000    0.000000    0.908043
      4          1           0       -0.000000    0.635818   -0.000000
      5          1           0        0.000000   -0.000000   -0.908043
      6          1           0       -0.000000   -0.635818   -1.816086
      7          1           0       -0.000000   -0.635818    0.000000
      8          1           0       -0.000000   -1.271637   -0.908043
      9          1           0       -0.000000   -0.635818    1.816086
     10          1           0       -0.000000   -1.271637    0.908043
     11          1           0        0.000000    1.271637   -0.908043
     12          1           0        0.000000    0.635818   -1.816086
 ---------------------------------------------------------------------

 SCF Done:  E(RHF) =  -5.78984296951     A.U. after   16 cycles
 E2 =    -0.1473970862D+00 EUMP2 =    -0.59372400557450D+01

 The electronic state is 1-AG.
 Alpha  occ. eigenvalues --   -0.96053  -0.77945  -0.64398  -0.48484  -0.43794
 Alpha  occ. eigenvalues --   -0.21422
 Alpha virt. eigenvalues --    0.10078   0.10452   0.18588   0.42028   0.57530
 Alpha virt. eigenvalues --    0.64667

 Mulliken charges:
               1
     1  H    0.081730
     2  H   -0.115372
     3  H    0.011248
     4  H    0.056038
     5  H    0.011248
     6  H    0.081730
     7  H    0.056038
     8  H   -0.115372
     9  H    0.081730
    10  H   -0.115372
    11  H   -0.115372
    12  H    0.081730
 Sum of Mulliken charges =   0.00000

 Dipole moment (field-independent basis, Debye):
    X=              0.0000    Y=             -0.0000    Z=             -0.0000  Tot=              0.0000
 Quadrupole moment (field-independent basis, Debye-Ang):
   XX=            -15.2820   YY=            -23.1133   ZZ=            -13.4541
   XY=             -0.0000   XZ=             -0.0000   YZ=              0.0000

 Normal termination of Gaussian 09 at Mon Feb 13 17:38:32 2017.
