 Gaussian 09, Revision E.01,
 Gaussian 09:  ES64L-G09RevE.01 30-Nov-2015

 ----------------------------------------------------------------------
 #rhf/gen scf(tight,novaracc,noincfock,fulldiag) stable(crhf) guess=mix
  geom=nocrowd test
 ----------------------------------------------------------------------

 hf stability analysis of h10 triangular lattice, y= 0.9428899751596989
 7
 ----------------------------------------------------------------------
 Symbolic Z-matrix:
 Charge =  0 Multiplicity = 1

                         Standard orientation:
 ---------------------------------------------------------------------
 Center     Atomic      Atomic             Coordinates (Angstroms)
 Number     Number       Type             X           Y           Z
 ---------------------------------------------------------------------
      1          1           0        0.000000    0.612320    1.885780
      2          1           0        0.000000    1.224640    0.942890
      3          1           0        0.000000    0.000000    0.942890
      4          1           0        0.000000    0.612320    0.000000
      5          1           0        0.000000   -0.000000   -0.942890
      6          1           0       -0.000000   -0.612320   -1.885780
      7          1           0       -0.000000   -0.612320   -0.000000
      8          1           0       -0.000000   -1.224640   -0.942890
      9          1           0       -0.000000   -0.612320    1.885780
     10          1           0       -0.000000   -1.224640    0.942890
     11          1           0        0.000000    1.224640   -0.942890
     12          1           0        0.000000    0.612320   -1.885780
 ---------------------------------------------------------------------

 SCF Done:  E(RHF) =  -5.72588963497     A.U. after   20 cycles
 E2 =    -0.1444300395D+00 EUMP2 =    -0.58703196744419D+01

 Unable to determine electronic state:  partially filled degenerate orbitals.
 Alpha  occ. eigenvalues --   -0.95369  -0.78283  -0.62237  -0.50454  -0.43161
 Alpha  occ. eigenvalues --   -0.17166
 Alpha virt. eigenvalues --    0.05544   0.11385   0.21726   0.41167   0.56814
 Alpha virt. eigenvalues --    0.60672

 Mulliken charges:
               1
     1  H    0.045164
     2  H    0.065575
     3  H   -0.156837
     4  H    0.064392
     5  H    0.158779
     6  H    0.083411
     7  H    0.064392
     8  H   -0.259514
     9  H    0.045164
    10  H    0.065575
    11  H   -0.259514
    12  H    0.083411
 Sum of Mulliken charges =   0.00000

 Dipole moment (field-independent basis, Debye):
    X=              0.0000    Y=             -0.0000    Z=              0.8223  Tot=              0.8223
 Quadrupole moment (field-independent basis, Debye-Ang):
   XX=            -15.2284   YY=            -21.5643   ZZ=            -15.1092
   XY=             -0.0000   XZ=             -0.0000   YZ=             -0.0000

 Normal termination of Gaussian 09 at Mon Feb 13 17:38:38 2017.
