 Gaussian 09, Revision E.01,
 Gaussian 09:  ES64L-G09RevE.01 30-Nov-2015

 ----------------------------------------------------------------------
 #rhf/gen scf(tight,novaracc,noincfock,fulldiag) stable(crhf) guess=mix
  geom=nocrowd test
 ----------------------------------------------------------------------

 hf stability analysis of h10 triangular lattice, y= 0.5773502789032680
 7
 ----------------------------------------------------------------------
 Symbolic Z-matrix:
 Charge =  0 Multiplicity = 1

                         Standard orientation:
 ---------------------------------------------------------------------
 Center     Atomic      Atomic             Coordinates (Angstroms)
 Number     Number       Type             X           Y           Z
 ---------------------------------------------------------------------
      1          1           0        0.000000    1.154701    1.000000
      2          1           0        0.000000    0.577350    2.000000
      3          1           0        0.000000    0.577350    0.000000
      4          1           0       -0.000000    0.000000    1.000000
      5          1           0       -0.000000   -0.577350    0.000000
      6          1           0       -0.000000   -1.154701   -1.000000
      7          1           0        0.000000   -0.000000   -1.000000
      8          1           0       -0.000000   -0.577350   -2.000000
      9          1           0        0.000000    1.154701   -1.000000
     10          1           0        0.000000    0.577350   -2.000000
     11          1           0       -0.000000   -0.577350    2.000000
     12          1           0       -0.000000   -1.154701    1.000000
 ---------------------------------------------------------------------

 SCF Done:  E(RHF) =  -5.86861259448     A.U. after   14 cycles
 E2 =    -0.1237630425D+00 EUMP2 =    -0.59923756369663D+01

 The electronic state is 1-AG.
 Alpha  occ. eigenvalues --   -0.96456  -0.79645  -0.60699  -0.53844  -0.42908
 Alpha  occ. eigenvalues --   -0.24703
 Alpha virt. eigenvalues --    0.11503   0.14009   0.27190   0.40766   0.41545
 Alpha virt. eigenvalues --    0.63007

 Mulliken charges:
               1
     1  H    0.022143
     2  H   -0.066847
     3  H    0.058940
     4  H    0.030468
     5  H    0.058940
     6  H    0.022143
     7  H    0.030468
     8  H   -0.066847
     9  H    0.022143
    10  H   -0.066847
    11  H   -0.066847
    12  H    0.022143
 Sum of Mulliken charges =  -0.00000

 Dipole moment (field-independent basis, Debye):
    X=             -0.0000    Y=              0.0000    Z=             -0.0000  Tot=              0.0000
 Quadrupole moment (field-independent basis, Debye-Ang):
   XX=            -15.2353   YY=            -15.8084   ZZ=            -25.8346
   XY=             -0.0000   XZ=              0.0000   YZ=             -0.0000

 Normal termination of Gaussian 09 at Mon Feb 13 17:37:22 2017.
