 Gaussian 09, Revision E.01,
 Gaussian 09:  ES64L-G09RevE.01 30-Nov-2015

 ----------------------------------------------------------------------
 #rhf/gen scf(symm,tight,novaracc,noincfock,fulldiag) stable(crhf) gues
 s=read geom=nocrowd test
 ----------------------------------------------------------------------

 hf stability analysis of h10 triangular lattice, y= 0.6960275979088506
 0
 ----------------------------------------------------------------------
 Symbolic Z-matrix:
 Charge =  0 Multiplicity = 1

                         Standard orientation:
 ---------------------------------------------------------------------
 Center     Atomic      Atomic             Coordinates (Angstroms)
 Number     Number       Type             X           Y           Z
 ---------------------------------------------------------------------
      1          1           0        0.000000    1.392055    0.829493
      2          1           0        0.000000    0.696028    1.658987
      3          1           0       -0.000000    0.696028   -0.000000
      4          1           0        0.000000    0.000000    0.829493
      5          1           0       -0.000000   -0.696028    0.000000
      6          1           0       -0.000000   -1.392055   -0.829493
      7          1           0        0.000000    0.000000   -0.829493
      8          1           0       -0.000000   -0.696028   -1.658987
      9          1           0        0.000000    1.392055   -0.829493
     10          1           0        0.000000    0.696028   -1.658987
     11          1           0       -0.000000   -0.696028    1.658987
     12          1           0       -0.000000   -1.392055    0.829493
 ---------------------------------------------------------------------

 SCF Done:  E(RHF) =  -5.88731629699     A.U. after    7 cycles
 E2 =    -0.1405628828D+00 EUMP2 =    -0.60278791797948D+01

 The electronic state is 1-AG.
 Alpha  occ. eigenvalues --   -0.96940  -0.75685  -0.68926  -0.44822  -0.43075
 Alpha  occ. eigenvalues --   -0.29739
 Alpha virt. eigenvalues --    0.09932   0.13529   0.23138   0.43710   0.47477
 Alpha virt. eigenvalues --    0.79633

 Mulliken charges:
               1
     1  H   -0.057108
     2  H    0.040681
     3  H    0.030071
     4  H    0.002782
     5  H    0.030071
     6  H   -0.057108
     7  H    0.002782
     8  H    0.040681
     9  H   -0.057108
    10  H    0.040681
    11  H    0.040681
    12  H   -0.057108
 Sum of Mulliken charges =  -0.00000

 Dipole moment (field-independent basis, Debye):
    X=              0.0000    Y=             -0.0000    Z=             -0.0000  Tot=              0.0000
 Quadrupole moment (field-independent basis, Debye-Ang):
   XX=            -15.2916   YY=            -21.2005   ZZ=            -16.4332
   XY=             -0.0000   XZ=              0.0000   YZ=             -0.0000

 Normal termination of Gaussian 09 at Thu Feb  9 19:31:23 2017.
