 Gaussian 09, Revision E.01,
 Gaussian 09:  ES64L-G09RevE.01 30-Nov-2015

 ----------------------------------------------------------------------
 #rhf/gen scf(symm,tight,novaracc,noincfock,fulldiag) stable(crhf) gues
 s=read geom=nocrowd test
 ----------------------------------------------------------------------

 hf stability analysis of h10 triangular lattice, y= 0.4331194750473593
 1
 ----------------------------------------------------------------------
 Symbolic Z-matrix:
 Charge =  0 Multiplicity = 1

                         Standard orientation:
 ---------------------------------------------------------------------
 Center     Atomic      Atomic             Coordinates (Angstroms)
 Number     Number       Type             X           Y           Z
 ---------------------------------------------------------------------
      1          1           0       -0.000000    0.866239    1.333005
      2          1           0       -0.000000    0.433119    2.666009
      3          1           0        0.000000    0.433119   -0.000000
      4          1           0       -0.000000    0.000000    1.333005
      5          1           0       -0.000000   -0.433119   -0.000000
      6          1           0       -0.000000   -0.866239   -1.333005
      7          1           0        0.000000    0.000000   -1.333005
      8          1           0       -0.000000   -0.433119   -2.666009
      9          1           0        0.000000    0.866239   -1.333005
     10          1           0        0.000000    0.433119   -2.666009
     11          1           0       -0.000000   -0.433119    2.666009
     12          1           0       -0.000000   -0.866239    1.333005
 ---------------------------------------------------------------------

 SCF Done:  E(RHF) =  -5.54663149300     A.U. after    8 cycles
 E2 =     0.6870494523D-01 EUMP2 =    -0.54779265477726D+01

 The electronic state is 1-AG.
 Alpha  occ. eigenvalues --   -0.83274  -0.78359  -0.58635  -0.39636  -0.33649
 Alpha  occ. eigenvalues --   -0.26983
 Alpha virt. eigenvalues --   -0.29202   0.27391   0.37344   0.58355   0.63235
 Alpha virt. eigenvalues --    0.63970

 Mulliken charges:
               1
     1  H   -0.137962
     2  H    0.142074
     3  H   -0.086796
     4  H    0.078572
     5  H   -0.086796
     6  H   -0.137962
     7  H    0.078572
     8  H    0.142074
     9  H   -0.137962
    10  H    0.142074
    11  H    0.142074
    12  H   -0.137962
 Sum of Mulliken charges =   0.00000

 Dipole moment (field-independent basis, Debye):
    X=              0.0000    Y=             -0.0000    Z=              0.0000  Tot=              0.0000
 Quadrupole moment (field-independent basis, Debye-Ang):
   XX=            -15.1241   YY=            -19.8453   ZZ=             -2.3618
   XY=             -0.0000   XZ=             -0.0000   YZ=             -0.0000

 Normal termination of Gaussian 09 at Thu Feb  9 19:32:10 2017.
