 Gaussian 09, Revision E.01,
 Gaussian 09:  ES64L-G09RevE.01 30-Nov-2015

 ----------------------------------------------------------------------
 #rhf/gen scf(symm,tight,novaracc,noincfock,fulldiag) stable(crhf) gues
 s=read geom=nocrowd test
 ----------------------------------------------------------------------

 hf stability analysis of h10 triangular lattice, y= 0.3794068973118231
 4
 ----------------------------------------------------------------------
 Symbolic Z-matrix:
 Charge =  0 Multiplicity = 1

                         Standard orientation:
 ---------------------------------------------------------------------
 Center     Atomic      Atomic             Coordinates (Angstroms)
 Number     Number       Type             X           Y           Z
 ---------------------------------------------------------------------
      1          1           0        0.000000    0.758814    1.521718
      2          1           0        0.000000    0.379407    3.043436
      3          1           0        0.000000    0.379407    0.000000
      4          1           0        0.000000   -0.000000    1.521718
      5          1           0       -0.000000   -0.379407   -0.000000
      6          1           0       -0.000000   -0.758814   -1.521718
      7          1           0        0.000000    0.000000   -1.521718
      8          1           0       -0.000000   -0.379407   -3.043436
      9          1           0        0.000000    0.758814   -1.521718
     10          1           0        0.000000    0.379407   -3.043436
     11          1           0       -0.000000   -0.379407    3.043436
     12          1           0       -0.000000   -0.758814    1.521718
 ---------------------------------------------------------------------

 SCF Done:  E(RHF) =  -5.38890109407     A.U. after    8 cycles
 E2 =    -0.4773374389D+00 EUMP2 =    -0.58662385329888D+01

 The electronic state is 1-AG.
 Alpha  occ. eigenvalues --   -0.81011  -0.78067  -0.61214  -0.40710  -0.33073
 Alpha  occ. eigenvalues --   -0.29244
 Alpha virt. eigenvalues --   -0.39075   0.32733   0.37581   0.61373   0.78861
 Alpha virt. eigenvalues --    0.81692

 Mulliken charges:
               1
     1  H   -0.177599
     2  H    0.170072
     3  H   -0.059777
     4  H    0.074830
     5  H   -0.059777
     6  H   -0.177599
     7  H    0.074830
     8  H    0.170072
     9  H   -0.177599
    10  H    0.170072
    11  H    0.170072
    12  H   -0.177599
 Sum of Mulliken charges =   0.00000

 Dipole moment (field-independent basis, Debye):
    X=              0.0000    Y=              0.0000    Z=             -0.0000  Tot=              0.0000
 Quadrupole moment (field-independent basis, Debye-Ang):
   XX=            -15.1983   YY=            -20.5794   ZZ=              6.7740
   XY=             -0.0000   XZ=             -0.0000   YZ=              0.0000

 Normal termination of Gaussian 09 at Thu Feb  9 19:32:18 2017.
