 Gaussian 09, Revision E.01,
 Gaussian 09:  ES64L-G09RevE.01 30-Nov-2015

 ----------------------------------------------------------------------
 #rhf/gen scf(symm,tight,novaracc,noincfock,fulldiag) stable(crhf) gues
 s=read geom=nocrowd test
 ----------------------------------------------------------------------

 hf stability analysis of h10 triangular lattice, y= 0.6240414150047446
 4
 ----------------------------------------------------------------------
 Symbolic Z-matrix:
 Charge =  0 Multiplicity = 1

                         Standard orientation:
 ---------------------------------------------------------------------
 Center     Atomic      Atomic             Coordinates (Angstroms)
 Number     Number       Type             X           Y           Z
 ---------------------------------------------------------------------
      1          1           0        0.000000    1.248083    0.925179
      2          1           0        0.000000    0.624041    1.850359
      3          1           0       -0.000000    0.624041    0.000000
      4          1           0        0.000000   -0.000000    0.925179
      5          1           0       -0.000000   -0.624041   -0.000000
      6          1           0       -0.000000   -1.248083   -0.925179
      7          1           0        0.000000    0.000000   -0.925179
      8          1           0       -0.000000   -0.624041   -1.850359
      9          1           0        0.000000    1.248083   -0.925179
     10          1           0        0.000000    0.624041   -1.850359
     11          1           0       -0.000000   -0.624041    1.850359
     12          1           0       -0.000000   -1.248083    0.925179
 ---------------------------------------------------------------------

 SCF Done:  E(RHF) =  -5.76086102073     A.U. after    8 cycles
 E2 =    -0.1494142659D+00 EUMP2 =    -0.59102752866725D+01

 The electronic state is 1-AG.
 Alpha  occ. eigenvalues --   -0.95813  -0.78317  -0.63397  -0.49507  -0.43503
 Alpha  occ. eigenvalues --   -0.19575
 Alpha virt. eigenvalues --    0.08289   0.10269   0.19520   0.41590   0.59075
 Alpha virt. eigenvalues --    0.61062

 Mulliken charges:
               1
     1  H   -0.128316
     2  H    0.089331
     3  H    0.061836
     4  H    0.016133
     5  H    0.061836
     6  H   -0.128316
     7  H    0.016133
     8  H    0.089331
     9  H   -0.128316
    10  H    0.089331
    11  H    0.089331
    12  H   -0.128316
 Sum of Mulliken charges =   0.00000

 Dipole moment (field-independent basis, Debye):
    X=              0.0000    Y=             -0.0000    Z=             -0.0000  Tot=              0.0000
 Quadrupole moment (field-independent basis, Debye-Ang):
   XX=            -15.2790   YY=            -23.4697   ZZ=            -12.8014
   XY=             -0.0000   XZ=             -0.0000   YZ=              0.0000

 Normal termination of Gaussian 09 at Thu Feb  9 19:31:36 2017.
