 Gaussian 09, Revision E.01,
 Gaussian 09:  ES64L-G09RevE.01 30-Nov-2015

 ----------------------------------------------------------------------
 #rhf/gen scf(symm,tight,novaracc,noincfock,fulldiag) stable(crhf) gues
 s=read geom=nocrowd test
 ----------------------------------------------------------------------

 hf stability analysis of h10 triangular lattice, y= 0.3023959355609886
 5
 ----------------------------------------------------------------------
 Symbolic Z-matrix:
 Charge =  0 Multiplicity = 1

                         Standard orientation:
 ---------------------------------------------------------------------
 Center     Atomic      Atomic             Coordinates (Angstroms)
 Number     Number       Type             X           Y           Z
 ---------------------------------------------------------------------
      1          1           0       -0.000000    0.604792    1.909253
      2          1           0        0.000000    0.302396    3.818505
      3          1           0       -0.000000    0.302396   -0.000000
      4          1           0        0.000000    0.000000    1.909253
      5          1           0       -0.000000   -0.302396    0.000000
      6          1           0       -0.000000   -0.604792   -1.909253
      7          1           0        0.000000   -0.000000   -1.909253
      8          1           0       -0.000000   -0.302396   -3.818505
      9          1           0        0.000000    0.604792   -1.909253
     10          1           0        0.000000    0.302396   -3.818505
     11          1           0       -0.000000   -0.302396    3.818505
     12          1           0       -0.000000   -0.604792    1.909253
 ---------------------------------------------------------------------

 SCF Done:  E(RHF) =  -4.63185717301     A.U. after    8 cycles
 E2 =    -0.2471594795D+00 EUMP2 =    -0.48790166524594D+01

 The electronic state is 1-AG.
 Alpha  occ. eigenvalues --   -0.78970  -0.77752  -0.65882  -0.57812  -0.24271
 Alpha  occ. eigenvalues --   -0.22801
 Alpha virt. eigenvalues --   -0.52618   0.42017   0.42807   0.62153   1.16514
 Alpha virt. eigenvalues --    1.17141

 Mulliken charges:
               1
     1  H   -0.202178
     2  H    0.176309
     3  H   -0.024848
     4  H    0.076585
     5  H   -0.024848
     6  H   -0.202178
     7  H    0.076585
     8  H    0.176309
     9  H   -0.202178
    10  H    0.176309
    11  H    0.176309
    12  H   -0.202178
 Sum of Mulliken charges =  -0.00000

 Dipole moment (field-independent basis, Debye):
    X=              0.0000    Y=              0.0000    Z=             -0.0000  Tot=              0.0000
 Quadrupole moment (field-independent basis, Debye-Ang):
   XX=            -15.1536   YY=            -21.0603   ZZ=             22.2212
   XY=             -0.0000   XZ=             -0.0000   YZ=              0.0000

 Normal termination of Gaussian 09 at Thu Feb  9 19:32:28 2017.
