 Gaussian 09, Revision E.01,
 Gaussian 09:  ES64L-G09RevE.01 30-Nov-2015

 ----------------------------------------------------------------------
 #rhf/gen scf(symm,tight,novaracc,noincfock,fulldiag) stable(crhf) gues
 s=read geom=nocrowd test
 ----------------------------------------------------------------------

 hf stability analysis of h10 triangular lattice, y= 0.4458672966047664
 3
 ----------------------------------------------------------------------
 Symbolic Z-matrix:
 Charge =  0 Multiplicity = 1

                         Standard orientation:
 ---------------------------------------------------------------------
 Center     Atomic      Atomic             Coordinates (Angstroms)
 Number     Number       Type             X           Y           Z
 ---------------------------------------------------------------------
      1          1           0       -0.000000    0.891735    1.294893
      2          1           0        0.000000    0.445867    2.589785
      3          1           0       -0.000000    0.445867   -0.000000
      4          1           0        0.000000    0.000000    1.294893
      5          1           0       -0.000000   -0.445867    0.000000
      6          1           0       -0.000000   -0.891735   -1.294893
      7          1           0        0.000000   -0.000000   -1.294893
      8          1           0       -0.000000   -0.445867   -2.589785
      9          1           0        0.000000    0.891735   -1.294893
     10          1           0        0.000000    0.445867   -2.589785
     11          1           0       -0.000000   -0.445867    2.589785
     12          1           0       -0.000000   -0.891735    1.294893
 ---------------------------------------------------------------------

 SCF Done:  E(RHF) =  -5.55105014972     A.U. after    8 cycles
 E2 =    -0.9361105526D-02 EUMP2 =    -0.55604112552461D+01

 The electronic state is 1-AG.
 Alpha  occ. eigenvalues --   -0.83847  -0.78392  -0.58034  -0.41148  -0.34594
 Alpha  occ. eigenvalues --   -0.23570
 Alpha virt. eigenvalues --   -0.26854   0.26187   0.37495   0.54098   0.59464
 Alpha virt. eigenvalues --    0.64746

 Mulliken charges:
               1
     1  H   -0.129773
     2  H    0.134691
     3  H   -0.092934
     4  H    0.083098
     5  H   -0.092934
     6  H   -0.129773
     7  H    0.083098
     8  H    0.134691
     9  H   -0.129773
    10  H    0.134691
    11  H    0.134691
    12  H   -0.129773
 Sum of Mulliken charges =  -0.00000

 Dipole moment (field-independent basis, Debye):
    X=              0.0000    Y=              0.0000    Z=              0.0000  Tot=              0.0000
 Quadrupole moment (field-independent basis, Debye-Ang):
   XX=            -15.1008   YY=            -19.6746   ZZ=             -4.1292
   XY=             -0.0000   XZ=             -0.0000   YZ=              0.0000

 Normal termination of Gaussian 09 at Thu Feb  9 19:32:08 2017.
