 Gaussian 09, Revision E.01,
 Gaussian 09:  ES64L-G09RevE.01 30-Nov-2015

 ----------------------------------------------------------------------
 #rhf/gen scf(symm,tight,novaracc,noincfock,fulldiag) stable(crhf) gues
 s=read geom=nocrowd test
 ----------------------------------------------------------------------

 hf stability analysis of h10 triangular lattice, y= 0.6476646814092581
 5
 ----------------------------------------------------------------------
 Symbolic Z-matrix:
 Charge =  0 Multiplicity = 1

                         Standard orientation:
 ---------------------------------------------------------------------
 Center     Atomic      Atomic             Coordinates (Angstroms)
 Number     Number       Type             X           Y           Z
 ---------------------------------------------------------------------
      1          1           0        0.000000    1.295329    0.891434
      2          1           0        0.000000    0.647665    1.782868
      3          1           0        0.000000    0.647665    0.000000
      4          1           0        0.000000    0.000000    0.891434
      5          1           0       -0.000000   -0.647665   -0.000000
      6          1           0       -0.000000   -1.295329   -0.891434
      7          1           0        0.000000   -0.000000   -0.891434
      8          1           0       -0.000000   -0.647665   -1.782868
      9          1           0        0.000000    1.295329   -0.891434
     10          1           0        0.000000    0.647665   -1.782868
     11          1           0       -0.000000   -0.647665    1.782868
     12          1           0       -0.000000   -1.295329    0.891434
 ---------------------------------------------------------------------

 SCF Done:  E(RHF) =  -5.81543681846     A.U. after    8 cycles
 E2 =    -0.1456142638D+00 EUMP2 =    -0.59610510822090D+01

 The electronic state is 1-AG.
 Alpha  occ. eigenvalues --   -0.96275  -0.77548  -0.65367  -0.47444  -0.44056
 Alpha  occ. eigenvalues --   -0.23206
 Alpha virt. eigenvalues --    0.09941   0.12480   0.17890   0.42436   0.55802
 Alpha virt. eigenvalues --    0.68125

 Mulliken charges:
               1
     1  H   -0.102972
     2  H    0.073930
     3  H    0.050417
     4  H    0.007667
     5  H    0.050417
     6  H   -0.102972
     7  H    0.007667
     8  H    0.073930
     9  H   -0.102972
    10  H    0.073930
    11  H    0.073930
    12  H   -0.102972
 Sum of Mulliken charges =  -0.00000

 Dipole moment (field-independent basis, Debye):
    X=              0.0000    Y=             -0.0000    Z=             -0.0000  Tot=              0.0000
 Quadrupole moment (field-independent basis, Debye-Ang):
   XX=            -15.2846   YY=            -22.7499   ZZ=            -14.0870
   XY=             -0.0000   XZ=             -0.0000   YZ=             -0.0000

 Normal termination of Gaussian 09 at Thu Feb  9 19:31:31 2017.
