 Gaussian 09, Revision E.01,
 Gaussian 09:  ES64L-G09RevE.01 30-Nov-2015

 ----------------------------------------------------------------------
 # rhf/gen scf(tight,novaracc,noincfock,fulldiag) stable(crhf) guess=mi
 x geom=nocrowd test
 ----------------------------------------------------------------------

 scf stability calculation for a triangular configuration of 10 H atoms
  (made up of 8 iscosceles triangles)
 ----------------------------------------------------------------------
 Symbolic Z-matrix:
 Charge =  0 Multiplicity = 1

                         Standard orientation:
 ---------------------------------------------------------------------
 Center     Atomic      Atomic             Coordinates (Angstroms)
 Number     Number       Type             X           Y           Z
 ---------------------------------------------------------------------
      1          1           0        1.948432    1.942810    0.000000
      2          1           0        0.974216    1.267720    0.000000
      3          1           0        1.948432    0.757549    0.000000
      4          1           0        0.000000    0.592630    0.000000
      5          1           0        0.974216    0.082459    0.000000
      6          1           0       -0.974216   -0.082459    0.000000
      7          1           0       -0.000000   -0.592630   -0.000000
      8          1           0       -1.948432   -0.757549    0.000000
      9          1           0       -0.974216   -1.267720   -0.000000
     10          1           0       -1.948432   -1.942810   -0.000000
 ---------------------------------------------------------------------

 SCF Done:  E(RHF) =  -4.86077894000     A.U. after   16 cycles
 E2 =    -0.1150659318D+00 EUMP2 =    -0.49758448717617D+01

 The electronic state is 1-AG.
 Alpha  occ. eigenvalues --   -0.83150  -0.73846  -0.55257  -0.32329  -0.30347
 Alpha virt. eigenvalues --    0.01171   0.18831   0.24373   0.50730   0.57469

 Mulliken charges:
               1
     1  H   -0.073634
     2  H    0.112512
     3  H    0.140098
     4  H   -0.057701
     5  H   -0.121274
     6  H   -0.121274
     7  H   -0.057701
     8  H    0.140098
     9  H    0.112512
    10  H   -0.073634
 Sum of Mulliken charges =  -0.00000

 Dipole moment (field-independent basis, Debye):
    X=              0.0000    Y=              0.0000    Z=              0.0000  Tot=              0.0000
 Quadrupole moment (field-independent basis, Debye-Ang):
   XX=            -12.9231   YY=            -15.1104   ZZ=            -13.0411
   XY=             -0.0726   XZ=             -0.0000   YZ=             -0.0000

 Normal termination of Gaussian 09 at Fri Feb 10 13:51:46 2017.
