 Gaussian 09, Revision E.01,
 Gaussian 09:  ES64L-G09RevE.01 30-Nov-2015

 ----------------------------------------------------------------------
 # rhf/gen scf(tight,novaracc,noincfock,fulldiag) stable(crhf) guess=mi
 x geom=nocrowd test
 ----------------------------------------------------------------------

 scf stability calculation for a triangular configuration of 10 H atoms
  (made up of 8 iscosceles triangles)
 ----------------------------------------------------------------------
 Symbolic Z-matrix:
 Charge =  0 Multiplicity = 1

                         Standard orientation:
 ---------------------------------------------------------------------
 Center     Atomic      Atomic             Coordinates (Angstroms)
 Number     Number       Type             X           Y           Z
 ---------------------------------------------------------------------
      1          1           0        2.148775    0.481378   -0.000000
      2          1           0        1.074387    0.509377   -0.000000
      3          1           0        2.148775   -0.593374   -0.000000
      4          1           0        0.000000    0.537376    0.000000
      5          1           0        1.074387   -0.565375   -0.000000
      6          1           0       -1.074387    0.565375   -0.000000
      7          1           0       -0.000000   -0.537376    0.000000
      8          1           0       -2.148775    0.593374    0.000000
      9          1           0       -1.074387   -0.509377    0.000000
     10          1           0       -2.148775   -0.481378    0.000000
 ---------------------------------------------------------------------

 SCF Done:  E(RHF) =  -4.88635678802     A.U. after   22 cycles
 E2 =    -0.1049889275D+00 EUMP2 =    -0.49913457155567D+01

 The electronic state is 1-AG.
 Alpha  occ. eigenvalues --   -0.87763  -0.74527  -0.52642  -0.46858  -0.31206
 Alpha virt. eigenvalues --   -0.01313   0.15348   0.36786   0.51305   0.90265

 Mulliken charges:
               1
     1  H    0.032312
     2  H   -0.033610
     3  H    0.048603
     4  H   -0.014136
     5  H   -0.033169
     6  H   -0.033169
     7  H   -0.014136
     8  H    0.048603
     9  H   -0.033610
    10  H    0.032312
 Sum of Mulliken charges =   0.00000

 Dipole moment (field-independent basis, Debye):
    X=              0.0000    Y=              0.0000    Z=             -0.0000  Tot=              0.0000
 Quadrupole moment (field-independent basis, Debye-Ang):
   XX=            -10.0693   YY=            -17.3946   ZZ=            -12.9545
   XY=             -0.3846   XZ=             -0.0000   YZ=              0.0000

 Normal termination of Gaussian 09 at Fri Feb 10 13:51:30 2017.
