 Gaussian 09, Revision E.01,
 Gaussian 09:  ES64L-G09RevE.01 30-Nov-2015

 ----------------------------------------------------------------------
 # rhf/gen scf(tight,novaracc,noincfock,fulldiag) stable(crhf) guess=mi
 x geom=nocrowd test
 ----------------------------------------------------------------------

 scf stability calculation for a triangular configuration of 10 H atoms
  (made up of 8 iscosceles triangles)
 ----------------------------------------------------------------------
 Symbolic Z-matrix:
 Charge =  0 Multiplicity = 1

                         Standard orientation:
 ---------------------------------------------------------------------
 Center     Atomic      Atomic             Coordinates (Angstroms)
 Number     Number       Type             X           Y           Z
 ---------------------------------------------------------------------
      1          1           0        1.948720   -0.756604   -0.000000
      2          1           0        0.974360   -0.082031   -0.000000
      3          1           0        1.948720   -1.941689   -0.000000
      4          1           0        0.000000    0.592543    0.000000
      5          1           0        0.974360   -1.267116   -0.000000
      6          1           0       -0.974360    1.267116   -0.000000
      7          1           0       -0.000000   -0.592543    0.000000
      8          1           0       -1.948720    1.941689   -0.000000
      9          1           0       -0.974360    0.082031   -0.000000
     10          1           0       -1.948720    0.756604   -0.000000
 ---------------------------------------------------------------------

 SCF Done:  E(RHF) =  -4.86084123306     A.U. after   16 cycles
 E2 =    -0.1150520700D+00 EUMP2 =    -0.49758933030805D+01

 The electronic state is 1-AG.
 Alpha  occ. eigenvalues --   -0.83156  -0.73847  -0.55256  -0.32331  -0.30357
 Alpha virt. eigenvalues --    0.01164   0.18848   0.24372   0.50767   0.57461

 Mulliken charges:
               1
     1  H    0.140149
     2  H   -0.121282
     3  H   -0.073753
     4  H   -0.057613
     5  H    0.112500
     6  H    0.112500
     7  H   -0.057613
     8  H   -0.073753
     9  H   -0.121282
    10  H    0.140149
 Sum of Mulliken charges =  -0.00000

 Dipole moment (field-independent basis, Debye):
    X=             -0.0000    Y=              0.0000    Z=             -0.0000  Tot=              0.0000
 Quadrupole moment (field-independent basis, Debye-Ang):
   XX=            -12.9264   YY=            -15.1140   ZZ=            -13.0408
   XY=              0.0785   XZ=              0.0000   YZ=              0.0000

 Normal termination of Gaussian 09 at Fri Feb 10 13:51:20 2017.
