 Gaussian 09, Revision E.01,
 Gaussian 09:  ES64L-G09RevE.01 30-Nov-2015

 ----------------------------------------------------------------------
 # rhf/gen scf(tight,novaracc,noincfock,fulldiag) stable(crhf) guess=mi
 x geom=nocrowd test
 ----------------------------------------------------------------------

 scf stability calculation for a triangular configuration of 10 H atoms
  (made up of 8 iscosceles triangles)
 ----------------------------------------------------------------------
 Symbolic Z-matrix:
 Charge =  0 Multiplicity = 1

                         Standard orientation:
 ---------------------------------------------------------------------
 Center     Atomic      Atomic             Coordinates (Angstroms)
 Number     Number       Type             X           Y           Z
 ---------------------------------------------------------------------
      1          1           0        1.019790    5.545160   -0.000000
      2          1           0        0.509895    3.338726   -0.000000
      3          1           0        1.019790    3.280576   -0.000000
      4          1           0        0.000000    1.132292   -0.000000
      5          1           0        0.509895    1.074142   -0.000000
      6          1           0       -0.509895   -1.074142   -0.000000
      7          1           0       -0.000000   -1.132292   -0.000000
      8          1           0       -1.019790   -3.280576   -0.000000
      9          1           0       -0.509895   -3.338726   -0.000000
     10          1           0       -1.019790   -5.545160   -0.000000
 ---------------------------------------------------------------------

 SCF Done:  E(RHF) =  -4.59002447302     A.U. after   62 cycles
 E2 =    -0.9313945803D+00 EUMP2 =    -0.55214190533686D+01

 The electronic state is 1-AG.
 Alpha  occ. eigenvalues --   -0.73471  -0.71903  -0.69664  -0.67533  -0.20412
 Alpha virt. eigenvalues --   -0.15710   0.50762   0.56183   0.63776   0.70747

 Mulliken charges:
               1
     1  H    0.000652
     2  H   -0.001050
     3  H    0.000329
     4  H    0.000219
     5  H   -0.000150
     6  H   -0.000150
     7  H    0.000219
     8  H    0.000329
     9  H   -0.001050
    10  H    0.000652
 Sum of Mulliken charges =   0.00000

 Dipole moment (field-independent basis, Debye):
    X=              0.0000    Y=             -0.0000    Z=             -0.0000  Tot=              0.0000
 Quadrupole moment (field-independent basis, Debye-Ang):
   XX=            -12.5744   YY=            -15.4706   ZZ=            -13.4215
   XY=             -0.4941   XZ=              0.0000   YZ=             -0.0000

 Normal termination of Gaussian 09 at Fri Feb 10 13:52:44 2017.
