 Gaussian 09, Revision E.01,
 Gaussian 09:  ES64L-G09RevE.01 30-Nov-2015

 ----------------------------------------------------------------------
 # rhf/gen scf(tight,novaracc,noincfock,fulldiag) stable(crhf) guess=mi
 x geom=nocrowd test
 ----------------------------------------------------------------------

 scf stability calculation for a triangular configuration of 10 H atoms
  (made up of 8 iscosceles triangles)
 ----------------------------------------------------------------------
 Symbolic Z-matrix:
 Charge =  0 Multiplicity = 1

                         Standard orientation:
 ---------------------------------------------------------------------
 Center     Atomic      Atomic             Coordinates (Angstroms)
 Number     Number       Type             X           Y           Z
 ---------------------------------------------------------------------
      1          1           0        2.089529    1.273692   -0.000000
      2          1           0        1.044765    0.913152   -0.000000
      3          1           0        2.089529    0.168467   -0.000000
      4          1           0        0.000000    0.552612    0.000000
      5          1           0        1.044765   -0.192073   -0.000000
      6          1           0       -1.044765    0.192073   -0.000000
      7          1           0       -0.000000   -0.552612    0.000000
      8          1           0       -2.089529   -0.168467   -0.000000
      9          1           0       -1.044765   -0.913152   -0.000000
     10          1           0       -2.089529   -1.273692   -0.000000
 ---------------------------------------------------------------------

 SCF Done:  E(RHF) =  -4.82767879845     A.U. after   26 cycles
 E2 =    -0.1000604818D+00 EUMP2 =    -0.49277392802609D+01

 Unable to determine electronic state:  partially filled degenerate orbitals.
 Alpha  occ. eigenvalues --   -0.86319  -0.73853  -0.53614  -0.42221  -0.27430
 Alpha virt. eigenvalues --   -0.04824   0.19626   0.30169   0.53484   0.75310

 Mulliken charges:
               1
     1  H    0.264335
     2  H   -0.203033
     3  H   -0.173858
     4  H    0.034960
     5  H    0.173223
     6  H   -0.263555
     7  H   -0.059282
     8  H    0.227380
     9  H    0.177424
    10  H   -0.177593
 Sum of Mulliken charges =  -0.00000

 Dipole moment (field-independent basis, Debye):
    X=              0.6910    Y=              0.5574    Z=             -0.0000  Tot=              0.8878
 Quadrupole moment (field-independent basis, Debye-Ang):
   XX=            -11.7636   YY=            -15.6123   ZZ=            -12.9418
   XY=              1.8626   XZ=              0.0000   YZ=             -0.0000

 Normal termination of Gaussian 09 at Fri Feb 10 13:51:39 2017.
