 Gaussian 09, Revision E.01,
 Gaussian 09:  ES64L-G09RevE.01 30-Nov-2015

 ----------------------------------------------------------------------
 # rhf/gen scf(tight,novaracc,noincfock,fulldiag) stable(crhf) guess=mi
 x geom=nocrowd test
 ----------------------------------------------------------------------

 scf stability calculation for a triangular configuration of 10 H atoms
  (made up of 8 iscosceles triangles)
 ----------------------------------------------------------------------
 Symbolic Z-matrix:
 Charge =  0 Multiplicity = 1

                         Standard orientation:
 ---------------------------------------------------------------------
 Center     Atomic      Atomic             Coordinates (Angstroms)
 Number     Number       Type             X           Y           Z
 ---------------------------------------------------------------------
      1          1           0        1.263103    4.345809   -0.000000
      2          1           0        0.631551    2.629993   -0.000000
      3          1           0        1.263103    2.517454   -0.000000
      4          1           0        0.000000    0.914177   -0.000000
      5          1           0        0.631551    0.801638   -0.000000
      6          1           0       -0.631551   -0.801638   -0.000000
      7          1           0       -0.000000   -0.914177   -0.000000
      8          1           0       -1.263103   -2.517454   -0.000000
      9          1           0       -0.631551   -2.629993   -0.000000
     10          1           0       -1.263103   -4.345809   -0.000000
 ---------------------------------------------------------------------

 SCF Done:  E(RHF) =  -4.90012226155     A.U. after   14 cycles
 E2 =    -0.6918415464D+00 EUMP2 =    -0.55919638079565D+01

 The electronic state is 1-AG.
 Alpha  occ. eigenvalues --   -0.74008  -0.70283  -0.64337  -0.57572  -0.18824
 Alpha virt. eigenvalues --   -0.12745   0.34065   0.42333   0.54694   0.66783

 Mulliken charges:
               1
     1  H   -0.020305
     2  H    0.008872
     3  H    0.007667
     4  H    0.003171
     5  H    0.000596
     6  H    0.000596
     7  H    0.003171
     8  H    0.007667
     9  H    0.008872
    10  H   -0.020305
 Sum of Mulliken charges =   0.00000

 Dipole moment (field-independent basis, Debye):
    X=              0.0000    Y=             -0.0000    Z=              0.0000  Tot=              0.0000
 Quadrupole moment (field-independent basis, Debye-Ang):
   XX=            -12.3496   YY=            -19.5621   ZZ=            -13.1388
   XY=             -2.1389   XZ=              0.0000   YZ=             -0.0000

 Normal termination of Gaussian 09 at Fri Feb 10 13:52:22 2017.
