 Gaussian 09, Revision E.01,
 Gaussian 09:  ES64L-G09RevE.01 30-Nov-2015

 ----------------------------------------------------------------------
 # rhf/gen scf(tight,novaracc,noincfock,fulldiag) stable(crhf) guess=mi
 x geom=nocrowd test
 ----------------------------------------------------------------------

 scf stability calculation for a triangular configuration of 10 H atoms
  (made up of 8 iscosceles triangles)
 ----------------------------------------------------------------------
 Symbolic Z-matrix:
 Charge =  0 Multiplicity = 1

                         Standard orientation:
 ---------------------------------------------------------------------
 Center     Atomic      Atomic             Coordinates (Angstroms)
 Number     Number       Type             X           Y           Z
 ---------------------------------------------------------------------
      1          1           0        1.582350    3.182581    0.000000
      2          1           0        0.791175    1.956159    0.000000
      3          1           0        1.582350    1.723106   -0.000000
      4          1           0        0.000000    0.729738    0.000000
      5          1           0        0.791175    0.496684   -0.000000
      6          1           0       -0.791175   -0.496684   -0.000000
      7          1           0       -0.000000   -0.729738    0.000000
      8          1           0       -1.582350   -1.723106   -0.000000
      9          1           0       -0.791175   -1.956159    0.000000
     10          1           0       -1.582350   -3.182581   -0.000000
 ---------------------------------------------------------------------

 SCF Done:  E(RHF) =  -4.82041734296     A.U. after   17 cycles
 E2 =    -0.3041752116D+00 EUMP2 =    -0.51245925545246D+01

 The electronic state is 1-AG.
 Alpha  occ. eigenvalues --   -0.80609  -0.72584  -0.60338  -0.44902  -0.12645
 Alpha virt. eigenvalues --   -0.01630   0.12720   0.24912   0.42350   0.58626

 Mulliken charges:
               1
     1  H   -0.185034
     2  H    0.080090
     3  H    0.043906
     4  H    0.034271
     5  H    0.026766
     6  H    0.026766
     7  H    0.034271
     8  H    0.043906
     9  H    0.080090
    10  H   -0.185034
 Sum of Mulliken charges =  -0.00000

 Dipole moment (field-independent basis, Debye):
    X=              0.0000    Y=              0.0000    Z=             -0.0000  Tot=              0.0000
 Quadrupole moment (field-independent basis, Debye-Ang):
   XX=            -15.3800   YY=            -30.9294   ZZ=            -12.8371
   XY=             -9.6275   XZ=              0.0000   YZ=             -0.0000

 Normal termination of Gaussian 09 at Fri Feb 10 13:52:04 2017.
