 Gaussian 09, Revision E.01,
 Gaussian 09:  ES64L-G09RevE.01 30-Nov-2015

 ----------------------------------------------------------------------
 # rhf/gen scf(tight,novaracc,noincfock,fulldiag) stable(crhf) guess=mi
 x geom=nocrowd test
 ----------------------------------------------------------------------

 scf stability calculation for a triangular configuration of 10 H atoms
  (made up of 8 iscosceles triangles)
 ----------------------------------------------------------------------
 Symbolic Z-matrix:
 Charge =  0 Multiplicity = 1

                         Standard orientation:
 ---------------------------------------------------------------------
 Center     Atomic      Atomic             Coordinates (Angstroms)
 Number     Number       Type             X           Y           Z
 ---------------------------------------------------------------------
      1          1           0        1.408009    3.782919   -0.000000
      2          1           0        0.704004    2.301506   -0.000000
      3          1           0        1.408009    2.142734   -0.000000
      4          1           0        0.000000    0.820093    0.000000
      5          1           0        0.704004    0.661321   -0.000000
      6          1           0       -0.704004   -0.661321    0.000000
      7          1           0       -0.000000   -0.820093    0.000000
      8          1           0       -1.408009   -2.142734    0.000000
      9          1           0       -0.704004   -2.301506    0.000000
     10          1           0       -1.408009   -3.782919    0.000000
 ---------------------------------------------------------------------

 SCF Done:  E(RHF) =  -4.91578459867     A.U. after   16 cycles
 E2 =    -0.5213879542D+00 EUMP2 =    -0.54371725528928D+01

 The electronic state is 1-AG.
 Alpha  occ. eigenvalues --   -0.76036  -0.70661  -0.62024  -0.51465  -0.16542
 Alpha virt. eigenvalues --   -0.09034   0.24556   0.34469   0.49334   0.63956

 Mulliken charges:
               1
     1  H   -0.068924
     2  H    0.030086
     3  H    0.020600
     4  H    0.011940
     5  H    0.006299
     6  H    0.006299
     7  H    0.011940
     8  H    0.020600
     9  H    0.030086
    10  H   -0.068924
 Sum of Mulliken charges =   0.00000

 Dipole moment (field-independent basis, Debye):
    X=              0.0000    Y=              0.0000    Z=             -0.0000  Tot=              0.0000
 Quadrupole moment (field-independent basis, Debye-Ang):
   XX=            -12.9400   YY=            -24.3345   ZZ=            -12.9805
   XY=             -4.6305   XZ=              0.0000   YZ=              0.0000

 Normal termination of Gaussian 09 at Fri Feb 10 13:52:13 2017.
