 Gaussian 09, Revision E.01,
 Gaussian 09:  ES64L-G09RevE.01 30-Nov-2015

 ----------------------------------------------------------------------
 # rhf/gen scf(tight,novaracc,noincfock,fulldiag) stable(crhf) guess=mi
 x geom=nocrowd test
 ----------------------------------------------------------------------

 scf stability calculation for a triangular configuration of 10 H atoms
  (made up of 8 iscosceles triangles)
 ----------------------------------------------------------------------
 Symbolic Z-matrix:
 Charge =  0 Multiplicity = 1

                         Standard orientation:
 ---------------------------------------------------------------------
 Center     Atomic      Atomic             Coordinates (Angstroms)
 Number     Number       Type             X           Y           Z
 ---------------------------------------------------------------------
      1          1           0        1.541887   -1.819363   -0.000000
      2          1           0        0.770943   -0.535238   -0.000000
      3          1           0        1.541887   -3.317138   -0.000000
      4          1           0        0.000000    0.748888    0.000000
      5          1           0        0.770943   -2.033013   -0.000000
      6          1           0       -0.770943    2.033013   -0.000000
      7          1           0       -0.000000   -0.748888    0.000000
      8          1           0       -1.541887    3.317138   -0.000000
      9          1           0       -0.770943    0.535238   -0.000000
     10          1           0       -1.541887    1.819363   -0.000000
 ---------------------------------------------------------------------

 SCF Done:  E(RHF) =  -4.85112307903     A.U. after   16 cycles
 E2 =    -0.3515805999D+00 EUMP2 =    -0.52027036788912D+01

 The electronic state is 1-AG.
 Alpha  occ. eigenvalues --   -0.79385  -0.72027  -0.60656  -0.46360  -0.13576
 Alpha virt. eigenvalues --   -0.03612   0.15433   0.27110   0.43992   0.60035

 Mulliken charges:
               1
     1  H    0.038598
     2  H    0.020956
     3  H   -0.153613
     4  H    0.028658
     5  H    0.065402
     6  H    0.065402
     7  H    0.028658
     8  H   -0.153613
     9  H    0.020956
    10  H    0.038598
 Sum of Mulliken charges =   0.00000

 Dipole moment (field-independent basis, Debye):
    X=              0.0000    Y=             -0.0000    Z=              0.0000  Tot=              0.0000
 Quadrupole moment (field-independent basis, Debye-Ang):
   XX=            -14.6083   YY=            -29.6344   ZZ=            -12.8655
   XY=              8.3636   XZ=              0.0000   YZ=             -0.0000

 Normal termination of Gaussian 09 at Fri Feb 10 13:51:12 2017.
