 Gaussian 09, Revision E.01,
 Gaussian 09:  ES64L-G09RevE.01 30-Nov-2015

 ----------------------------------------------------------------------
 # rhf/gen scf(tight,novaracc,noincfock,fulldiag) stable(crhf) guess=mi
 x geom=nocrowd test
 ----------------------------------------------------------------------

 scf stability calculation for a triangular configuration of 10 H atoms
  (made up of 8 iscosceles triangles)
 ----------------------------------------------------------------------
 Symbolic Z-matrix:
 Charge =  0 Multiplicity = 1

                         Standard orientation:
 ---------------------------------------------------------------------
 Center     Atomic      Atomic             Coordinates (Angstroms)
 Number     Number       Type             X           Y           Z
 ---------------------------------------------------------------------
      1          1           0        0.994192   -3.376715    0.000000
      2          1           0        0.497096   -1.107634    0.000000
      3          1           0        0.994192   -5.699609    0.000000
      4          1           0        0.000000    1.161447   -0.000000
      5          1           0        0.497096   -3.430528    0.000000
      6          1           0       -0.497096    3.430528   -0.000000
      7          1           0       -0.000000   -1.161447    0.000000
      8          1           0       -0.994192    5.699609   -0.000000
      9          1           0       -0.497096    1.107634   -0.000000
     10          1           0       -0.994192    3.376715   -0.000000
 ---------------------------------------------------------------------

 SCF Done:  E(RHF) =  -4.53086680687     A.U. after   61 cycles
 E2 =    -0.9579906120D+00 EUMP2 =    -0.54888574189104D+01

 The electronic state is 1-AG.
 Alpha  occ. eigenvalues --   -0.73581  -0.72205  -0.70272  -0.68468  -0.20464
 Alpha virt. eigenvalues --   -0.15886   0.52667   0.57760   0.64838   0.71285

 Mulliken charges:
               1
     1  H    0.000125
     2  H   -0.000126
     3  H    0.000991
     4  H    0.000163
     5  H   -0.001154
     6  H   -0.001154
     7  H    0.000163
     8  H    0.000991
     9  H   -0.000126
    10  H    0.000125
 Sum of Mulliken charges =   0.00000

 Dipole moment (field-independent basis, Debye):
    X=             -0.0000    Y=             -0.0000    Z=             -0.0000  Tot=              0.0000
 Quadrupole moment (field-independent basis, Debye-Ang):
   XX=            -12.6256   YY=            -15.2277   ZZ=            -13.4468
   XY=              0.4165   XZ=             -0.0000   YZ=              0.0000

 Normal termination of Gaussian 09 at Fri Feb 10 13:51:05 2017.
