 Gaussian 09, Revision E.01,
 Gaussian 09:  ES64L-G09RevE.01 30-Nov-2015

 ----------------------------------------------------------------------
 # rhf/gen scf(tight,novaracc,noincfock,fulldiag) stable(crhf) guess=mi
 x geom=nocrowd test
 ----------------------------------------------------------------------

 scf stability calculation for a triangular configuration of 10 H atoms
  (made up of 8 iscosceles triangles)
 ----------------------------------------------------------------------
 Symbolic Z-matrix:
 Charge =  0 Multiplicity = 1

                         Standard orientation:
 ---------------------------------------------------------------------
 Center     Atomic      Atomic             Coordinates (Angstroms)
 Number     Number       Type             X           Y           Z
 ---------------------------------------------------------------------
      1          1           0        2.098195   -0.115550    0.000000
      2          1           0        1.049097    0.217390    0.000000
      3          1           0        2.098195   -1.216211    0.000000
      4          1           0        0.000000    0.550330   -0.000000
      5          1           0        1.049097   -0.883271    0.000000
      6          1           0       -1.049097    0.883271    0.000000
      7          1           0       -0.000000   -0.550330   -0.000000
      8          1           0       -2.098195    1.216211    0.000000
      9          1           0       -1.049097   -0.217390   -0.000000
     10          1           0       -2.098195    0.115550    0.000000
 ---------------------------------------------------------------------

 SCF Done:  E(RHF) =  -4.83097394373     A.U. after   23 cycles
 E2 =    -0.9790926204D-01 EUMP2 =    -0.49288832057633D+01

 Unable to determine electronic state:  partially filled degenerate orbitals.
 Alpha  occ. eigenvalues --   -0.86395  -0.73917  -0.53696  -0.42097  -0.27399
 Alpha virt. eigenvalues --   -0.04854   0.19612   0.30791   0.53168   0.77490

 Mulliken charges:
               1
     1  H   -0.171716
     2  H    0.192708
     3  H    0.261365
     4  H   -0.076792
     5  H   -0.222437
     6  H    0.207192
     7  H    0.052128
     8  H   -0.218757
     9  H   -0.288841
    10  H    0.265150
 Sum of Mulliken charges =  -0.00000

 Dipole moment (field-independent basis, Debye):
    X=              0.6976    Y=             -0.5775    Z=              0.0000  Tot=              0.9056
 Quadrupole moment (field-independent basis, Debye-Ang):
   XX=            -12.0969   YY=            -15.6919   ZZ=            -12.9276
   XY=             -1.0708   XZ=              0.0000   YZ=             -0.0000

 Normal termination of Gaussian 09 at Fri Feb 10 13:51:25 2017.
