 Gaussian 09, Revision E.01,
 Gaussian 09:  ES64L-G09RevE.01 30-Nov-2015

 ----------------------------------------------------------------------
 # rhf/gen scf(tight,novaracc,noincfock,fulldiag) stable(crhf) guess=mi
 x geom=nocrowd test
 ----------------------------------------------------------------------

 scf stability calculation for a triangular configuration of 10 H atoms
  (made up of 8 iscosceles triangles)
 ----------------------------------------------------------------------
 Symbolic Z-matrix:
 Charge =  0 Multiplicity = 1

                         Standard orientation:
 ---------------------------------------------------------------------
 Center     Atomic      Atomic             Coordinates (Angstroms)
 Number     Number       Type             X           Y           Z
 ---------------------------------------------------------------------
      1          1           0        1.090407    5.152046    0.000000
      2          1           0        0.545204    3.105503    0.000000
      3          1           0        1.090407    3.034126    0.000000
      4          1           0        0.000000    1.058960    0.000000
      5          1           0        0.545204    0.987583    0.000000
      6          1           0       -0.545204   -0.987583    0.000000
      7          1           0       -0.000000   -1.058960    0.000000
      8          1           0       -1.090407   -3.034126    0.000000
      9          1           0       -0.545204   -3.105503    0.000000
     10          1           0       -1.090407   -5.152046    0.000000
 ---------------------------------------------------------------------

 SCF Done:  E(RHF) =  -4.72408700068     A.U. after   20 cycles
 E2 =    -0.8616944053D+00 EUMP2 =    -0.55857814060279D+01

 The electronic state is 1-AG.
 Alpha  occ. eigenvalues --   -0.73327  -0.71189  -0.68013  -0.64816  -0.20175
 Alpha virt. eigenvalues --   -0.15123   0.45678   0.51976   0.60993   0.69452

 Mulliken charges:
               1
     1  H   -0.001380
     2  H   -0.000180
     3  H    0.001276
     4  H    0.000491
     5  H   -0.000207
     6  H   -0.000207
     7  H    0.000491
     8  H    0.001276
     9  H   -0.000180
    10  H   -0.001380
 Sum of Mulliken charges =   0.00000

 Dipole moment (field-independent basis, Debye):
    X=             -0.0000    Y=             -0.0000    Z=             -0.0000  Tot=              0.0000
 Quadrupole moment (field-independent basis, Debye-Ang):
   XX=            -12.4445   YY=            -16.2862   ZZ=            -13.3451
   XY=             -0.7758   XZ=              0.0000   YZ=             -0.0000

 Normal termination of Gaussian 09 at Fri Feb 10 13:52:36 2017.
