 Gaussian 09, Revision E.01,
 Gaussian 09:  ES64L-G09RevE.01 30-Nov-2015

 ----------------------------------------------------------------------
 # rhf/gen scf(tight,novaracc,noincfock,fulldiag) stable(crhf) guess=mi
 x geom=nocrowd test
 ----------------------------------------------------------------------

 scf stability calculation for a triangular configuration of 10 H atoms
  (made up of 8 iscosceles triangles)
 ----------------------------------------------------------------------
 Symbolic Z-matrix:
 Charge =  0 Multiplicity = 1

                         Standard orientation:
 ---------------------------------------------------------------------
 Center     Atomic      Atomic             Coordinates (Angstroms)
 Number     Number       Type             X           Y           Z
 ---------------------------------------------------------------------
      1          1           0        1.296812    4.207588    0.000000
      2          1           0        0.648406    2.549001    0.000000
      3          1           0        1.296812    2.426762    0.000000
      4          1           0        0.000000    0.890413    0.000000
      5          1           0        0.648406    0.768174    0.000000
      6          1           0       -0.648406   -0.768174   -0.000000
      7          1           0       -0.000000   -0.890413   -0.000000
      8          1           0       -1.296812   -2.426762   -0.000000
      9          1           0       -0.648406   -2.549001   -0.000000
     10          1           0       -1.296812   -4.207588   -0.000000
 ---------------------------------------------------------------------

 SCF Done:  E(RHF) =  -4.91320332967     A.U. after   16 cycles
 E2 =    -0.6551575252D+00 EUMP2 =    -0.55683608548722D+01

 The electronic state is 1-AG.
 Alpha  occ. eigenvalues --   -0.74341  -0.70268  -0.63721  -0.56121  -0.18396
 Alpha virt. eigenvalues --   -0.12056   0.31869   0.40506   0.53478   0.66224

 Mulliken charges:
               1
     1  H   -0.028069
     2  H    0.012449
     3  H    0.009940
     4  H    0.004432
     5  H    0.001248
     6  H    0.001248
     7  H    0.004432
     8  H    0.009940
     9  H    0.012449
    10  H   -0.028069
 Sum of Mulliken charges =   0.00000

 Dipole moment (field-independent basis, Debye):
    X=              0.0000    Y=              0.0000    Z=              0.0000  Tot=              0.0000
 Quadrupole moment (field-independent basis, Debye-Ang):
   XX=            -12.4077   YY=            -20.4925   ZZ=            -13.0994
   XY=             -2.5788   XZ=             -0.0000   YZ=             -0.0000

 Normal termination of Gaussian 09 at Fri Feb 10 13:52:20 2017.
