 Gaussian 09, Revision E.01,
 Gaussian 09:  ES64L-G09RevE.01 30-Nov-2015

 ----------------------------------------------------------------------
 # rhf/gen scf(tight,novaracc,noincfock,fulldiag) stable(crhf) guess=mi
 x geom=nocrowd test
 ----------------------------------------------------------------------

 scf stability calculation for a triangular configuration of 10 H atoms
  (made up of 8 iscosceles triangles)
 ----------------------------------------------------------------------
 Symbolic Z-matrix:
 Charge =  0 Multiplicity = 1

                         Standard orientation:
 ---------------------------------------------------------------------
 Center     Atomic      Atomic             Coordinates (Angstroms)
 Number     Number       Type             X           Y           Z
 ---------------------------------------------------------------------
      1          1           0        1.185680   -2.736786    0.000000
      2          1           0        0.592840   -0.881457    0.000000
      3          1           0        1.185680   -4.684529    0.000000
      4          1           0        0.000000    0.973872    0.000000
      5          1           0        0.592840   -2.829200    0.000000
      6          1           0       -0.592840    2.829200    0.000000
      7          1           0       -0.000000   -0.973872    0.000000
      8          1           0       -1.185680    4.684529    0.000000
      9          1           0       -0.592840    0.881457    0.000000
     10          1           0       -1.185680    2.736786    0.000000
 ---------------------------------------------------------------------

 SCF Done:  E(RHF) =  -4.84524459992     A.U. after   18 cycles
 E2 =    -0.7702969816D+00 EUMP2 =    -0.56155415814787D+01

 The electronic state is 1-AG.
 Alpha  occ. eigenvalues --   -0.73508  -0.70530  -0.65896  -0.60891  -0.19589
 Alpha virt. eigenvalues --   -0.14017   0.39163   0.46573   0.57473   0.67966

 Mulliken charges:
               1
     1  H    0.003874
     2  H   -0.000089
     3  H   -0.008383
     4  H    0.001409
     5  H    0.003189
     6  H    0.003189
     7  H    0.001409
     8  H   -0.008383
     9  H   -0.000089
    10  H    0.003874
 Sum of Mulliken charges =   0.00000

 Dipole moment (field-independent basis, Debye):
    X=             -0.0000    Y=              0.0000    Z=             -0.0000  Tot=              0.0000
 Quadrupole moment (field-independent basis, Debye-Ang):
   XX=            -12.3316   YY=            -17.8195   ZZ=            -13.2321
   XY=              1.3745   XZ=              0.0000   YZ=             -0.0000

 Normal termination of Gaussian 09 at Fri Feb 10 13:51:07 2017.
