 Gaussian 09, Revision E.01,
 Gaussian 09:  ES64L-G09RevE.01 30-Nov-2015

 ----------------------------------------------------------------------
 # rhf/gen scf(tight,novaracc,noincfock,fulldiag) stable(crhf) guess=mi
 x geom=nocrowd test
 ----------------------------------------------------------------------

 scf stability calculation for a triangular configuration of 10 H atoms
  (made up of 8 iscosceles triangles)
 ----------------------------------------------------------------------
 Symbolic Z-matrix:
 Charge =  0 Multiplicity = 1

                         Standard orientation:
 ---------------------------------------------------------------------
 Center     Atomic      Atomic             Coordinates (Angstroms)
 Number     Number       Type             X           Y           Z
 ---------------------------------------------------------------------
      1          1           0        1.142857    4.886858   -0.000000
      2          1           0        0.571428    2.948610   -0.000000
      3          1           0        1.142857    2.866132   -0.000000
      4          1           0        0.000000    1.010363    0.000000
      5          1           0        0.571428    0.927884   -0.000000
      6          1           0       -0.571428   -0.927884   -0.000000
      7          1           0       -0.000000   -1.010363   -0.000000
      8          1           0       -1.142857   -2.866132   -0.000000
      9          1           0       -0.571428   -2.948610   -0.000000
     10          1           0       -1.142857   -4.886858   -0.000000
 ---------------------------------------------------------------------

 SCF Done:  E(RHF) =  -4.79863195595     A.U. after   31 cycles
 E2 =    -0.8115532547D+00 EUMP2 =    -0.56101852106506D+01

 The electronic state is 1-AG.
 Alpha  occ. eigenvalues --   -0.73371  -0.70781  -0.66826  -0.62686  -0.19896
 Alpha virt. eigenvalues --   -0.14567   0.42049   0.48969   0.59032   0.68613

 Mulliken charges:
               1
     1  H   -0.004439
     2  H    0.001276
     3  H    0.002474
     4  H    0.000882
     5  H   -0.000194
     6  H   -0.000194
     7  H    0.000882
     8  H    0.002474
     9  H    0.001276
    10  H   -0.004439
 Sum of Mulliken charges =   0.00000

 Dipole moment (field-independent basis, Debye):
    X=              0.0000    Y=              0.0000    Z=              0.0000  Tot=              0.0000
 Quadrupole moment (field-independent basis, Debye-Ang):
   XX=            -12.3695   YY=            -17.0586   ZZ=            -13.2837
   XY=             -1.0676   XZ=             -0.0000   YZ=             -0.0000

 Normal termination of Gaussian 09 at Fri Feb 10 13:52:32 2017.
