 Gaussian 09, Revision E.01,
 Gaussian 09:  ES64L-G09RevE.01 30-Nov-2015

 ----------------------------------------------------------------------
 # rhf/gen scf(tight,novaracc,noincfock,fulldiag) stable(crhf) guess=mi
 x geom=nocrowd test
 ----------------------------------------------------------------------

 scf stability calculation for a triangular configuration of 10 H atoms
  (made up of 8 iscosceles triangles)
 ----------------------------------------------------------------------
 Symbolic Z-matrix:
 Charge =  0 Multiplicity = 1

                         Standard orientation:
 ---------------------------------------------------------------------
 Center     Atomic      Atomic             Coordinates (Angstroms)
 Number     Number       Type             X           Y           Z
 ---------------------------------------------------------------------
      1          1           0        1.200219    4.618412   -0.000000
      2          1           0        0.600110    2.790242   -0.000000
      3          1           0        1.200219    2.694266   -0.000000
      4          1           0        0.000000    0.962073    0.000000
      5          1           0        0.600110    0.866097   -0.000000
      6          1           0       -0.600110   -0.866097   -0.000000
      7          1           0       -0.000000   -0.962073    0.000000
      8          1           0       -1.200219   -2.694266   -0.000000
      9          1           0       -0.600110   -2.790242   -0.000000
     10          1           0       -1.200219   -4.618412   -0.000000
 ---------------------------------------------------------------------

 SCF Done:  E(RHF) =  -4.85834038551     A.U. after   19 cycles
 E2 =    -0.7560403647D+00 EUMP2 =    -0.56143807501707D+01

 The electronic state is 1-AG.
 Alpha  occ. eigenvalues --   -0.73576  -0.70462  -0.65590  -0.60273  -0.19467
 Alpha virt. eigenvalues --   -0.13807   0.38196   0.45770   0.56949   0.67749

 Mulliken charges:
               1
     1  H   -0.010097
     2  H    0.004019
     3  H    0.004452
     4  H    0.001647
     5  H   -0.000020
     6  H   -0.000020
     7  H    0.001647
     8  H    0.004452
     9  H    0.004019
    10  H   -0.010097
 Sum of Mulliken charges =   0.00000

 Dipole moment (field-independent basis, Debye):
    X=              0.0000    Y=              0.0000    Z=              0.0000  Tot=              0.0000
 Quadrupole moment (field-independent basis, Debye-Ang):
   XX=            -12.3253   YY=            -18.1084   ZZ=            -13.2144
   XY=             -1.4956   XZ=              0.0000   YZ=              0.0000

 Normal termination of Gaussian 09 at Fri Feb 10 13:52:27 2017.
