 Gaussian 09, Revision E.01,
 Gaussian 09:  ES64L-G09RevE.01 30-Nov-2015

 ----------------------------------------------------------------------
 # rhf/gen scf(tight,novaracc,noincfock,fulldiag) stable(crhf) guess=mi
 x geom=nocrowd test
 ----------------------------------------------------------------------

 scf stability calculation for a triangular configuration of 10 H atoms
  (made up of 8 iscosceles triangles)
 ----------------------------------------------------------------------
 Symbolic Z-matrix:
 Charge =  0 Multiplicity = 1

                         Standard orientation:
 ---------------------------------------------------------------------
 Center     Atomic      Atomic             Coordinates (Angstroms)
 Number     Number       Type             X           Y           Z
 ---------------------------------------------------------------------
      1          1           0        1.116053    5.019812    0.000000
      2          1           0        0.558027    3.027220    0.000000
      3          1           0        1.116053    2.950557   -0.000000
      4          1           0        0.000000    1.034628    0.000000
      5          1           0        0.558027    0.957965   -0.000000
      6          1           0       -0.558027   -0.957965   -0.000000
      7          1           0       -0.000000   -1.034628    0.000000
      8          1           0       -1.116053   -2.950557    0.000000
      9          1           0       -0.558027   -3.027220    0.000000
     10          1           0       -1.116053   -5.019812    0.000000
 ---------------------------------------------------------------------

 SCF Done:  E(RHF) =  -4.76303996515     A.U. after   21 cycles
 E2 =    -0.8371350956D+00 EUMP2 =    -0.56001750607586D+01

 The electronic state is 1-AG.
 Alpha  occ. eigenvalues --   -0.73332  -0.70976  -0.67427  -0.63785  -0.20051
 Alpha virt. eigenvalues --   -0.14866   0.43889   0.50495   0.60025   0.69032

 Mulliken charges:
               1
     1  H   -0.002669
     2  H    0.000426
     3  H    0.001799
     4  H    0.000655
     5  H   -0.000211
     6  H   -0.000211
     7  H    0.000655
     8  H    0.001799
     9  H    0.000426
    10  H   -0.002669
 Sum of Mulliken charges =   0.00000

 Dipole moment (field-independent basis, Debye):
    X=             -0.0000    Y=              0.0000    Z=             -0.0000  Tot=              0.0000
 Quadrupole moment (field-independent basis, Debye-Ang):
   XX=            -12.4047   YY=            -16.6439   ZZ=            -13.3154
   XY=             -0.9082   XZ=             -0.0000   YZ=              0.0000

 Normal termination of Gaussian 09 at Fri Feb 10 13:52:34 2017.
