 Gaussian 09, Revision E.01,
 Gaussian 09:  ES64L-G09RevE.01 30-Nov-2015

 ----------------------------------------------------------------------
 # rhf/gen scf(tight,novaracc,noincfock,fulldiag) stable(crhf) guess=mi
 x geom=nocrowd test
 ----------------------------------------------------------------------

 scf stability calculation for a triangular configuration of 10 H atoms
  (made up of 8 iscosceles triangles)
 ----------------------------------------------------------------------
 Symbolic Z-matrix:
 Charge =  0 Multiplicity = 1

                         Standard orientation:
 ---------------------------------------------------------------------
 Center     Atomic      Atomic             Coordinates (Angstroms)
 Number     Number       Type             X           Y           Z
 ---------------------------------------------------------------------
      1          1           0        2.122505    1.024040    0.000000
      2          1           0        1.061253    0.784033    0.000000
      3          1           0        2.122505   -0.064014    0.000000
      4          1           0        0.000000    0.544027   -0.000000
      5          1           0        1.061253   -0.304020    0.000000
      6          1           0       -1.061253    0.304020    0.000000
      7          1           0       -0.000000   -0.544027   -0.000000
      8          1           0       -2.122505    0.064014    0.000000
      9          1           0       -1.061253   -0.784033    0.000000
     10          1           0       -2.122505   -1.024040    0.000000
 ---------------------------------------------------------------------

 SCF Done:  E(RHF) =  -4.83435998961     A.U. after   27 cycles
 E2 =    -0.9500305292D-01 EUMP2 =    -0.49293630425243D+01

 Unable to determine electronic state:  partially filled degenerate orbitals.
 Alpha  occ. eigenvalues --   -0.86598  -0.73951  -0.53807  -0.42092  -0.27277
 Alpha virt. eigenvalues --   -0.04915   0.19492   0.32589   0.52408   0.83970

 Mulliken charges:
               1
     1  H    0.247199
     2  H   -0.249141
     3  H   -0.168762
     4  H    0.093939
     5  H    0.212269
     6  H   -0.322415
     7  H   -0.104157
     8  H    0.307044
     9  H    0.250718
    10  H   -0.266694
 Sum of Mulliken charges =   0.00000

 Dipole moment (field-independent basis, Debye):
    X=              0.5658    Y=              0.5284    Z=              0.0000  Tot=              0.7742
 Quadrupole moment (field-independent basis, Debye-Ang):
   XX=            -13.1586   YY=            -15.3598   ZZ=            -12.8866
   XY=             -0.2066   XZ=             -0.0000   YZ=              0.0000

 Normal termination of Gaussian 09 at Fri Feb 10 13:51:36 2017.
