 Gaussian 09, Revision E.01,
 Gaussian 09:  ES64L-G09RevE.01 30-Nov-2015

 ----------------------------------------------------------------------
 # rhf/gen scf(tight,novaracc,noincfock,fulldiag) stable(crhf) guess=mi
 x geom=nocrowd test
 ----------------------------------------------------------------------

 scf stability calculation for a triangular configuration of 10 H atoms
  (made up of 8 iscosceles triangles)
 ----------------------------------------------------------------------
 Symbolic Z-matrix:
 Charge =  0 Multiplicity = 1

                         Standard orientation:
 ---------------------------------------------------------------------
 Center     Atomic      Atomic             Coordinates (Angstroms)
 Number     Number       Type             X           Y           Z
 ---------------------------------------------------------------------
      1          1           0        1.698553   -1.443691   -0.000000
      2          1           0        0.849276   -0.381939   -0.000000
      3          1           0        1.698553   -2.803320    0.000000
      4          1           0        0.000000    0.679814   -0.000000
      5          1           0        0.849276   -1.741567    0.000000
      6          1           0       -0.849276    1.741567   -0.000000
      7          1           0       -0.000000   -0.679814    0.000000
      8          1           0       -1.698553    2.803320   -0.000000
      9          1           0       -0.849276    0.381939   -0.000000
     10          1           0       -1.698553    1.443691   -0.000000
 ---------------------------------------------------------------------

 SCF Done:  E(RHF) =  -4.72828921416     A.U. after   17 cycles
 E2 =    -0.1468223089D+00 EUMP2 =    -0.48751115230639D+01

 Unable to determine electronic state:  partially filled degenerate orbitals.
 Alpha  occ. eigenvalues --   -0.80745  -0.71880  -0.57831  -0.37080  -0.14235
 Alpha virt. eigenvalues --    0.02534   0.09586   0.19264   0.39228   0.59780

 Mulliken charges:
               1
     1  H    0.155530
     2  H   -0.024639
     3  H   -0.065490
     4  H   -0.155539
     5  H    0.020082
     6  H    0.182739
     7  H    0.131091
     8  H   -0.146812
     9  H   -0.083006
    10  H   -0.013956
 Sum of Mulliken charges =   0.00000

 Dipole moment (field-independent basis, Debye):
    X=              1.6208    Y=             -1.9526    Z=              0.0000  Tot=              2.5377
 Quadrupole moment (field-independent basis, Debye-Ang):
   XX=            -14.6240   YY=            -19.6583   ZZ=            -12.9606
   XY=              3.8302   XZ=             -0.0000   YZ=              0.0000

 Normal termination of Gaussian 09 at Fri Feb 10 13:51:15 2017.
