 Gaussian 09, Revision E.01,
 Gaussian 09:  ES64L-G09RevE.01 30-Nov-2015

 ----------------------------------------------------------------------
 # rhf/gen scf(tight,novaracc,noincfock,fulldiag) stable(crhf) guess=mi
 x geom=nocrowd test
 ----------------------------------------------------------------------

 scf stability calculation for a triangular configuration of 10 H atoms
  (made up of 8 iscosceles triangles)
 ----------------------------------------------------------------------
 Symbolic Z-matrix:
 Charge =  0 Multiplicity = 1

                         Standard orientation:
 ---------------------------------------------------------------------
 Center     Atomic      Atomic             Coordinates (Angstroms)
 Number     Number       Type             X           Y           Z
 ---------------------------------------------------------------------
      1          1           0        1.491287    3.488825    0.000000
      2          1           0        0.745643    2.131561    0.000000
      3          1           0        1.491287    1.940229    0.000000
      4          1           0        0.000000    0.774298    0.000000
      5          1           0        0.745643    0.582966    0.000000
      6          1           0       -0.745643   -0.582966   -0.000000
      7          1           0       -0.000000   -0.774298   -0.000000
      8          1           0       -1.491287   -1.940229   -0.000000
      9          1           0       -0.745643   -2.131561   -0.000000
     10          1           0       -1.491287   -3.488825   -0.000000
 ---------------------------------------------------------------------

 SCF Done:  E(RHF) =  -4.88292734664     A.U. after   16 cycles
 E2 =    -0.4144013654D+00 EUMP2 =    -0.52973287120122D+01

 The electronic state is 1-AG.
 Alpha  occ. eigenvalues --   -0.77966  -0.71409  -0.61101  -0.48224  -0.14755
 Alpha virt. eigenvalues --   -0.05894   0.18906   0.29893   0.46045   0.61671

 Mulliken charges:
               1
     1  H   -0.117346
     2  H    0.049978
     3  H    0.031483
     4  H    0.021588
     5  H    0.014297
     6  H    0.014297
     7  H    0.021588
     8  H    0.031483
     9  H    0.049978
    10  H   -0.117346
 Sum of Mulliken charges =  -0.00000

 Dipole moment (field-independent basis, Debye):
    X=              0.0000    Y=              0.0000    Z=              0.0000  Tot=              0.0000
 Quadrupole moment (field-independent basis, Debye-Ang):
   XX=            -13.8212   YY=            -27.6982   ZZ=            -12.9053
   XY=             -6.8226   XZ=             -0.0000   YZ=             -0.0000

 Normal termination of Gaussian 09 at Fri Feb 10 13:52:08 2017.
