 Gaussian 09, Revision E.01,
 Gaussian 09:  ES64L-G09RevE.01 30-Nov-2015

 ----------------------------------------------------------------------
 # rhf/gen scf(tight,novaracc,noincfock,fulldiag) stable(crhf) guess=mi
 x geom=nocrowd test
 ----------------------------------------------------------------------

 scf stability calculation for a triangular configuration of 10 H atoms
  (made up of 8 iscosceles triangles)
 ----------------------------------------------------------------------
 Symbolic Z-matrix:
 Charge =  0 Multiplicity = 1

                         Standard orientation:
 ---------------------------------------------------------------------
 Center     Atomic      Atomic             Coordinates (Angstroms)
 Number     Number       Type             X           Y           Z
 ---------------------------------------------------------------------
      1          1           0        2.134794    0.189123   -0.000000
      2          1           0        1.067397    0.365010   -0.000000
      3          1           0        2.134794   -0.892668   -0.000000
      4          1           0       -0.000000    0.540896    0.000000
      5          1           0        1.067397   -0.716782   -0.000000
      6          1           0       -1.067397    0.716782   -0.000000
      7          1           0       -0.000000   -0.540896    0.000000
      8          1           0       -2.134794    0.892668   -0.000000
      9          1           0       -1.067397   -0.365010   -0.000000
     10          1           0       -2.134794   -0.189123   -0.000000
 ---------------------------------------------------------------------

 SCF Done:  E(RHF) =  -4.83349452748     A.U. after   25 cycles
 E2 =    -0.9486563718D-01 EUMP2 =    -0.49283601646598D+01

 Unable to determine electronic state:  partially filled degenerate orbitals.
 Alpha  occ. eigenvalues --   -0.86691  -0.73903  -0.53821  -0.42219  -0.27190
 Alpha virt. eigenvalues --   -0.04934   0.19392   0.33557   0.52047   0.87514

 Mulliken charges:
               1
     1  H    0.305467
     2  H   -0.323309
     3  H   -0.265225
     4  H    0.110589
     5  H    0.255311
     6  H   -0.259755
     7  H   -0.108834
     8  H    0.244754
     9  H    0.215983
    10  H   -0.174981
 Sum of Mulliken charges =  -0.00000

 Dipole moment (field-independent basis, Debye):
    X=             -0.4270    Y=              0.4743    Z=             -0.0000  Tot=              0.6382
 Quadrupole moment (field-independent basis, Debye-Ang):
   XX=            -13.7112   YY=            -15.0058   ZZ=            -12.8649
   XY=              0.4363   XZ=              0.0000   YZ=             -0.0000

 Normal termination of Gaussian 09 at Fri Feb 10 13:51:28 2017.
