 Gaussian 09, Revision E.01,
 Gaussian 09:  ES64L-G09RevE.01 30-Nov-2015

 ----------------------------------------------------------------------
 # rhf/gen scf(tight,novaracc,noincfock,fulldiag) stable(crhf) guess=mi
 x geom=nocrowd test
 ----------------------------------------------------------------------

 scf stability calculation for a triangular configuration of 10 H atoms
  (made up of 8 iscosceles triangles)
 ----------------------------------------------------------------------
 Symbolic Z-matrix:
 Charge =  0 Multiplicity = 1

                         Standard orientation:
 ---------------------------------------------------------------------
 Center     Atomic      Atomic             Coordinates (Angstroms)
 Number     Number       Type             X           Y           Z
 ---------------------------------------------------------------------
      1          1           0        1.630791    3.023685    0.000000
      2          1           0        0.815395    1.865872    0.000000
      3          1           0        1.630791    1.607564    0.000000
      4          1           0        0.000000    0.708060    0.000000
      5          1           0        0.815395    0.449752    0.000000
      6          1           0       -0.815395   -0.449752   -0.000000
      7          1           0       -0.000000   -0.708060    0.000000
      8          1           0       -1.630791   -1.607564   -0.000000
      9          1           0       -0.815395   -1.865872    0.000000
     10          1           0       -1.630791   -3.023685    0.000000
 ---------------------------------------------------------------------

 SCF Done:  E(RHF) =  -4.77897669119     A.U. after   18 cycles
 E2 =    -0.2511922670D+00 EUMP2 =    -0.50301689582273D+01

 The electronic state is 1-AG.
 Alpha  occ. eigenvalues --   -0.82092  -0.73286  -0.59965  -0.43147  -0.11666
 Alpha virt. eigenvalues --    0.00699   0.09851   0.22363   0.40431   0.56892

 Mulliken charges:
               1
     1  H   -0.222527
     2  H    0.101329
     3  H    0.048561
     4  H    0.039770
     5  H    0.032868
     6  H    0.032868
     7  H    0.039770
     8  H    0.048561
     9  H    0.101329
    10  H   -0.222527
 Sum of Mulliken charges =   0.00000

 Dipole moment (field-independent basis, Debye):
    X=              0.0000    Y=              0.0000    Z=             -0.0000  Tot=              0.0000
 Quadrupole moment (field-independent basis, Debye-Ang):
   XX=            -16.4496   YY=            -31.9092   ZZ=            -12.8085
   XY=            -11.0125   XZ=             -0.0000   YZ=             -0.0000

 Normal termination of Gaussian 09 at Fri Feb 10 13:52:01 2017.
