 Gaussian 09, Revision E.01,
 Gaussian 09:  ES64L-G09RevE.01 30-Nov-2015

 ----------------------------------------------------------------------
 # rhf/gen scf(tight,novaracc,noincfock,fulldiag) stable(crhf) guess=mi
 x geom=nocrowd test
 ----------------------------------------------------------------------

 scf stability calculation for a triangular configuration of 10 H atoms
  (made up of 8 iscosceles triangles)
 ----------------------------------------------------------------------
 Symbolic Z-matrix:
 Charge =  0 Multiplicity = 1

                         Standard orientation:
 ---------------------------------------------------------------------
 Center     Atomic      Atomic             Coordinates (Angstroms)
 Number     Number       Type             X           Y           Z
 ---------------------------------------------------------------------
      1          1           0        1.332145    4.067850   -0.000000
      2          1           0        0.666073    2.467323   -0.000000
      3          1           0        1.332145    2.334258   -0.000000
      4          1           0        0.000000    0.866796   -0.000000
      5          1           0        0.666073    0.733731   -0.000000
      6          1           0       -0.666073   -0.733731   -0.000000
      7          1           0       -0.000000   -0.866796   -0.000000
      8          1           0       -1.332145   -2.334258   -0.000000
      9          1           0       -0.666073   -2.467323   -0.000000
     10          1           0       -1.332145   -4.067850   -0.000000
 ---------------------------------------------------------------------

 SCF Done:  E(RHF) =  -4.92047074926     A.U. after   17 cycles
 E2 =    -0.6146985730D+00 EUMP2 =    -0.55351693222535D+01

 The electronic state is 1-AG.
 Alpha  occ. eigenvalues --   -0.74775  -0.70317  -0.63123  -0.54612  -0.17881
 Alpha virt. eigenvalues --   -0.11228   0.29564   0.38593   0.52189   0.65585

 Mulliken charges:
               1
     1  H   -0.038315
     2  H    0.017035
     3  H    0.012788
     4  H    0.006200
     5  H    0.002292
     6  H    0.002292
     7  H    0.006200
     8  H    0.012788
     9  H    0.017035
    10  H   -0.038315
 Sum of Mulliken charges =  -0.00000

 Dipole moment (field-independent basis, Debye):
    X=             -0.0000    Y=              0.0000    Z=              0.0000  Tot=              0.0000
 Quadrupole moment (field-independent basis, Debye-Ang):
   XX=            -12.5131   YY=            -21.5887   ZZ=            -13.0595
   XY=             -3.1245   XZ=             -0.0000   YZ=             -0.0000

 Normal termination of Gaussian 09 at Fri Feb 10 13:52:17 2017.
