 Gaussian 09, Revision E.01,
 Gaussian 09:  ES64L-G09RevE.01 30-Nov-2015

 ----------------------------------------------------------------------
 # rhf/gen scf(tight,novaracc,noincfock,fulldiag) stable(crhf) guess=mi
 x geom=nocrowd test
 ----------------------------------------------------------------------

 scf stability calculation for a triangular configuration of 10 H atoms
  (made up of 8 iscosceles triangles)
 ----------------------------------------------------------------------
 Symbolic Z-matrix:
 Charge =  0 Multiplicity = 1

                         Standard orientation:
 ---------------------------------------------------------------------
 Center     Atomic      Atomic             Coordinates (Angstroms)
 Number     Number       Type             X           Y           Z
 ---------------------------------------------------------------------
      1          1           0        1.786275    2.515960   -0.000000
      2          1           0        0.893138    1.581194   -0.000000
      3          1           0        1.786275    1.223102    0.000000
      4          1           0        0.000000    0.646429   -0.000000
      5          1           0        0.893138    0.288337    0.000000
      6          1           0       -0.893138   -0.288337    0.000000
      7          1           0       -0.000000   -0.646429   -0.000000
      8          1           0       -1.786275   -1.223102   -0.000000
      9          1           0       -0.893138   -1.581194   -0.000000
     10          1           0       -1.786275   -2.515960   -0.000000
 ---------------------------------------------------------------------

 SCF Done:  E(RHF) =  -4.78595953564     A.U. after   17 cycles
 E2 =    -0.1271713800D+00 EUMP2 =    -0.49131309156402D+01

 The electronic state is 1-AG.
 Alpha  occ. eigenvalues --   -0.79282  -0.72542  -0.55247  -0.33738  -0.20980
 Alpha virt. eigenvalues --    0.02558   0.14243   0.20079   0.39831   0.62139

 Mulliken charges:
               1
     1  H    0.017669
     2  H    0.111412
     3  H    0.082515
     4  H   -0.113069
     5  H   -0.098526
     6  H   -0.098526
     7  H   -0.113069
     8  H    0.082515
     9  H    0.111412
    10  H    0.017669
 Sum of Mulliken charges =  -0.00000

 Dipole moment (field-independent basis, Debye):
    X=             -0.0000    Y=             -0.0000    Z=             -0.0000  Tot=              0.0000
 Quadrupole moment (field-independent basis, Debye-Ang):
   XX=            -11.6414   YY=            -10.3631   ZZ=            -13.1677
   XY=              3.8107   XZ=              0.0000   YZ=              0.0000

 Normal termination of Gaussian 09 at Fri Feb 10 13:51:54 2017.
