 Gaussian 09, Revision E.01,
 Gaussian 09:  ES64L-G09RevE.01 30-Nov-2015

 ----------------------------------------------------------------------
 # rhf/gen scf(tight,novaracc,noincfock,fulldiag) stable(crhf) guess=mi
 x geom=nocrowd test
 ----------------------------------------------------------------------

 scf stability calculation for a triangular configuration of 10 H atoms
  (made up of 8 iscosceles triangles)
 ----------------------------------------------------------------------
 Symbolic Z-matrix:
 Charge =  0 Multiplicity = 1

                         Standard orientation:
 ---------------------------------------------------------------------
 Center     Atomic      Atomic             Coordinates (Angstroms)
 Number     Number       Type             X           Y           Z
 ---------------------------------------------------------------------
      1          1           0        1.230932    4.482697   -0.000000
      2          1           0        0.615466    2.710383   -0.000000
      3          1           0        1.230932    2.606558    0.000000
      4          1           0        0.000000    0.938069   -0.000000
      5          1           0        0.615466    0.834245    0.000000
      6          1           0       -0.615466   -0.834245    0.000000
      7          1           0       -0.000000   -0.938069   -0.000000
      8          1           0       -1.230932   -2.606558    0.000000
      9          1           0       -0.615466   -2.710383    0.000000
     10          1           0       -1.230932   -4.482697    0.000000
 ---------------------------------------------------------------------

 SCF Done:  E(RHF) =  -4.88168479750     A.U. after   17 cycles
 E2 =    -0.7252805468D+00 EUMP2 =    -0.56069653443280D+01

 The electronic state is 1-AG.
 Alpha  occ. eigenvalues --   -0.73758  -0.70352  -0.64963  -0.58958  -0.19177
 Alpha virt. eigenvalues --   -0.13322   0.36170   0.44084   0.55847   0.67285

 Mulliken charges:
               1
     1  H   -0.014466
     2  H    0.006116
     3  H    0.005868
     4  H    0.002278
     5  H    0.000204
     6  H    0.000204
     7  H    0.002278
     8  H    0.005868
     9  H    0.006116
    10  H   -0.014466
 Sum of Mulliken charges =   0.00000

 Dipole moment (field-independent basis, Debye):
    X=             -0.0000    Y=              0.0000    Z=              0.0000  Tot=              0.0000
 Quadrupole moment (field-independent basis, Debye-Ang):
   XX=            -12.3255   YY=            -18.7749   ZZ=            -13.1773
   XY=             -1.7837   XZ=             -0.0000   YZ=              0.0000

 Normal termination of Gaussian 09 at Fri Feb 10 13:52:24 2017.
