 Gaussian 09, Revision E.01,
 Gaussian 09:  ES64L-G09RevE.01 30-Nov-2015

 ----------------------------------------------------------------------
 # rhf/gen scf(tight,novaracc,noincfock,fulldiag) stable(crhf) guess=mi
 x geom=nocrowd test
 ----------------------------------------------------------------------

 scf stability calculation for a triangular configuration of 10 H atoms
  (made up of 8 iscosceles triangles)
 ----------------------------------------------------------------------
 Symbolic Z-matrix:
 Charge =  0 Multiplicity = 1

                         Standard orientation:
 ---------------------------------------------------------------------
 Center     Atomic      Atomic             Coordinates (Angstroms)
 Number     Number       Type             X           Y           Z
 ---------------------------------------------------------------------
      1          1           0        1.369512   -2.238863   -0.000000
      2          1           0        0.684756   -0.697858   -0.000000
      3          1           0        1.369512   -3.925157   -0.000000
      4          1           0        0.000000    0.843147   -0.000000
      5          1           0        0.684756   -2.384152   -0.000000
      6          1           0       -0.684756    2.384152    0.000000
      7          1           0       -0.000000   -0.843147   -0.000000
      8          1           0       -1.369512    3.925157    0.000000
      9          1           0       -0.684756    0.697858   -0.000000
     10          1           0       -1.369512    2.238863   -0.000000
 ---------------------------------------------------------------------

 SCF Done:  E(RHF) =  -4.92145492414     A.U. after   15 cycles
 E2 =    -0.5697065199D+00 EUMP2 =    -0.54911614440661D+01

 The electronic state is 1-AG.
 Alpha  occ. eigenvalues --   -0.75337  -0.70445  -0.62549  -0.53042  -0.17260
 Alpha virt. eigenvalues --   -0.10222   0.27112   0.36567   0.50799   0.64832

 Mulliken charges:
               1
     1  H    0.016347
     2  H    0.003921
     3  H   -0.051829
     4  H    0.008667
     5  H    0.022894
     6  H    0.022894
     7  H    0.008667
     8  H   -0.051829
     9  H    0.003921
    10  H    0.016347
 Sum of Mulliken charges =  -0.00000

 Dipole moment (field-independent basis, Debye):
    X=              0.0000    Y=             -0.0000    Z=             -0.0000  Tot=              0.0000
 Quadrupole moment (field-independent basis, Debye-Ang):
   XX=            -12.6850   YY=            -22.8800   ZZ=            -13.0194
   XY=              3.8066   XZ=              0.0000   YZ=             -0.0000

 Normal termination of Gaussian 09 at Fri Feb 10 13:51:10 2017.
