 Gaussian 09, Revision E.01,
 Gaussian 09:  ES64L-G09RevE.01 30-Nov-2015

 ----------------------------------------------------------------------
 # rhf/gen scf(tight,novaracc,noincfock,fulldiag) stable(crhf) guess=mi
 x geom=nocrowd test
 ----------------------------------------------------------------------

 scf stability calculation for a triangular configuration of 10 H atoms
  (made up of 8 iscosceles triangles)
 ----------------------------------------------------------------------
 Symbolic Z-matrix:
 Charge =  0 Multiplicity = 1

                         Standard orientation:
 ---------------------------------------------------------------------
 Center     Atomic      Atomic             Coordinates (Angstroms)
 Number     Number       Type             X           Y           Z
 ---------------------------------------------------------------------
      1          1           0        1.369187    3.926377    0.000000
      2          1           0        0.684594    2.384862    0.000000
      3          1           0        1.369187    2.239683    0.000000
      4          1           0        0.000000    0.843347    0.000000
      5          1           0        0.684594    0.698168    0.000000
      6          1           0       -0.684594   -0.698168    0.000000
      7          1           0       -0.000000   -0.843347    0.000000
      8          1           0       -1.369187   -2.239683    0.000000
      9          1           0       -0.684594   -2.384862    0.000000
     10          1           0       -1.369187   -3.926377    0.000000
 ---------------------------------------------------------------------

 SCF Done:  E(RHF) =  -4.92147429811     A.U. after   16 cycles
 E2 =    -0.5701065338D+00 EUMP2 =    -0.54915808319087D+01

 The electronic state is 1-AG.
 Alpha  occ. eigenvalues --   -0.75332  -0.70444  -0.62554  -0.53056  -0.17266
 Alpha virt. eigenvalues --   -0.10231   0.27133   0.36584   0.50811   0.64839

 Mulliken charges:
               1
     1  H   -0.051699
     2  H    0.022839
     3  H    0.016313
     4  H    0.008642
     5  H    0.003904
     6  H    0.003904
     7  H    0.008642
     8  H    0.016313
     9  H    0.022839
    10  H   -0.051699
 Sum of Mulliken charges =  -0.00000

 Dipole moment (field-independent basis, Debye):
    X=             -0.0000    Y=              0.0000    Z=             -0.0000  Tot=              0.0000
 Quadrupole moment (field-independent basis, Debye-Ang):
   XX=            -12.6832   YY=            -22.8683   ZZ=            -13.0197
   XY=             -3.8002   XZ=             -0.0000   YZ=             -0.0000

 Normal termination of Gaussian 09 at Fri Feb 10 13:52:15 2017.
