 Gaussian 09, Revision E.01,
 Gaussian 09:  ES64L-G09RevE.01 30-Nov-2015

 ----------------------------------------------------------------------
 # rhf/gen scf(tight,novaracc,noincfock,fulldiag) stable(crhf) guess=mi
 x geom=nocrowd test
 ----------------------------------------------------------------------

 scf stability calculation for a triangular configuration of 10 H atoms
  (made up of 8 iscosceles triangles)
 ----------------------------------------------------------------------
 Symbolic Z-matrix:
 Charge =  0 Multiplicity = 1

                         Standard orientation:
 ---------------------------------------------------------------------
 Center     Atomic      Atomic             Coordinates (Angstroms)
 Number     Number       Type             X           Y           Z
 ---------------------------------------------------------------------
      1          1           0        1.894807    2.142904   -0.000000
      2          1           0        0.947404    1.376153   -0.000000
      3          1           0        1.894807    0.924101   -0.000000
      4          1           0        0.000000    0.609402    0.000000
      5          1           0        0.947404    0.157350   -0.000000
      6          1           0       -0.947404   -0.157350   -0.000000
      7          1           0       -0.000000   -0.609402   -0.000000
      8          1           0       -1.894807   -0.924101   -0.000000
      9          1           0       -0.947404   -1.376153   -0.000000
     10          1           0       -1.894807   -2.142904   -0.000000
 ---------------------------------------------------------------------

 SCF Done:  E(RHF) =  -4.84475644084     A.U. after   16 cycles
 E2 =    -0.1181568566D+00 EUMP2 =    -0.49629132974504D+01

 The electronic state is 1-AG.
 Alpha  occ. eigenvalues --   -0.81960  -0.73531  -0.55327  -0.32606  -0.27631
 Alpha virt. eigenvalues --    0.02331   0.16208   0.24260   0.44855   0.59001

 Mulliken charges:
               1
     1  H   -0.048281
     2  H    0.113087
     3  H    0.127353
     4  H   -0.074028
     5  H   -0.118131
     6  H   -0.118131
     7  H   -0.074028
     8  H    0.127353
     9  H    0.113087
    10  H   -0.048281
 Sum of Mulliken charges =   0.00000

 Dipole moment (field-independent basis, Debye):
    X=             -0.0000    Y=              0.0000    Z=             -0.0000  Tot=              0.0000
 Quadrupole moment (field-independent basis, Debye-Ang):
   XX=            -12.3662   YY=            -14.1469   ZZ=            -13.0897
   XY=              1.1057   XZ=              0.0000   YZ=             -0.0000

 Normal termination of Gaussian 09 at Fri Feb 10 13:51:49 2017.
