 Gaussian 09, Revision E.01,
 Gaussian 09:  ES64L-G09RevE.01 30-Nov-2015

 ----------------------------------------------------------------------
 # rhf/gen scf(tight,novaracc,noincfock,fulldiag) stable(crhf) guess=mi
 x geom=nocrowd test
 ----------------------------------------------------------------------

 scf stability calculation for a triangular configuration of 10 H atoms
  (made up of 8 iscosceles triangles)
 ----------------------------------------------------------------------
 Symbolic Z-matrix:
 Charge =  0 Multiplicity = 1

                         Standard orientation:
 ---------------------------------------------------------------------
 Center     Atomic      Atomic             Coordinates (Angstroms)
 Number     Number       Type             X           Y           Z
 ---------------------------------------------------------------------
      1          1           0        2.047775    1.509393   -0.000000
      2          1           0        1.023888    1.036636   -0.000000
      3          1           0        2.047775    0.381632   -0.000000
      4          1           0        0.000000    0.563880    0.000000
      5          1           0        1.023888   -0.091124   -0.000000
      6          1           0       -1.023888    0.091124   -0.000000
      7          1           0       -0.000000   -0.563880    0.000000
      8          1           0       -2.047775   -0.381632   -0.000000
      9          1           0       -1.023888   -1.036636    0.000000
     10          1           0       -2.047775   -1.509393    0.000000
 ---------------------------------------------------------------------

 SCF Done:  E(RHF) =  -4.86675242057     A.U. after   18 cycles
 E2 =    -0.1124645107D+00 EUMP2 =    -0.49792169312339D+01

 The electronic state is 1-AG.
 Alpha  occ. eigenvalues --   -0.85045  -0.74050  -0.54931  -0.36297  -0.30267
 Alpha virt. eigenvalues --   -0.01305   0.22955   0.25345   0.54660   0.66906

 Mulliken charges:
               1
     1  H   -0.097266
     2  H    0.096930
     3  H    0.142362
     4  H   -0.025666
     5  H   -0.116359
     6  H   -0.116359
     7  H   -0.025666
     8  H    0.142362
     9  H    0.096930
    10  H   -0.097266
 Sum of Mulliken charges =   0.00000

 Dipole moment (field-independent basis, Debye):
    X=              0.0000    Y=              0.0000    Z=             -0.0000  Tot=              0.0000
 Quadrupole moment (field-independent basis, Debye-Ang):
   XX=            -14.3062   YY=            -15.3353   ZZ=            -12.9337
   XY=             -1.6310   XZ=              0.0000   YZ=              0.0000

 Normal termination of Gaussian 09 at Fri Feb 10 13:51:41 2017.
