 Gaussian 09, Revision E.01,
 Gaussian 09:  ES64L-G09RevE.01 30-Nov-2015

 ----------------------------------------------------------------------
 # rhf/gen scf(tight,novaracc,noincfock,fulldiag) stable(crhf) guess=mi
 x geom=nocrowd test
 ----------------------------------------------------------------------

 scf stability calculation for a triangular configuration of 10 H atoms
  (made up of 8 iscosceles triangles)
 ----------------------------------------------------------------------
 Symbolic Z-matrix:
 Charge =  0 Multiplicity = 1

                         Standard orientation:
 ---------------------------------------------------------------------
 Center     Atomic      Atomic             Coordinates (Angstroms)
 Number     Number       Type             X           Y           Z
 ---------------------------------------------------------------------
      1          1           0        0.938282    6.063019   -0.000000
      2          1           0        0.469141    3.646836   -0.000000
      3          1           0        0.938282    3.601712    0.000000
      4          1           0        0.000000    1.230654   -0.000000
      5          1           0        0.469141    1.185529    0.000000
      6          1           0       -0.469141   -1.185529   -0.000000
      7          1           0       -0.000000   -1.230654   -0.000000
      8          1           0       -0.938282   -3.601712   -0.000000
      9          1           0       -0.469141   -3.646836   -0.000000
     10          1           0       -0.938282   -6.063019   -0.000000
 ---------------------------------------------------------------------

 SCF Done:  E(RHF) =  -4.37973085623     A.U. after   32 cycles
 E2 =    -0.1019884024D+01 EUMP2 =    -0.53996148806911D+01

 The electronic state is 1-AG.
 Alpha  occ. eigenvalues --   -0.73927  -0.72941  -0.71605  -0.70414  -0.20529
 Alpha virt. eigenvalues --   -0.16215   0.56945   0.61314   0.67281   0.72622

 Mulliken charges:
               1
     1  H    0.001272
     2  H   -0.001140
     3  H   -0.000138
     4  H    0.000085
     5  H   -0.000078
     6  H   -0.000078
     7  H    0.000085
     8  H   -0.000138
     9  H   -0.001140
    10  H    0.001272
 Sum of Mulliken charges =  -0.00000

 Dipole moment (field-independent basis, Debye):
    X=             -0.0000    Y=              0.0000    Z=             -0.0000  Tot=              0.0000
 Quadrupole moment (field-independent basis, Debye-Ang):
   XX=            -12.7390   YY=            -14.7787   ZZ=            -13.4962
   XY=             -0.2822   XZ=              0.0000   YZ=             -0.0000

 Normal termination of Gaussian 09 at Fri Feb 10 13:52:55 2017.
