 Gaussian 09, Revision E.01,
 Gaussian 09:  ES64L-G09RevE.01 30-Nov-2015

 ----------------------------------------------------------------------
 # rhf/gen scf(tight,novaracc,noincfock,fulldiag) stable(crhf) guess=mi
 x geom=nocrowd test
 ----------------------------------------------------------------------

 scf stability calculation for a triangular configuration of 10 H atoms
  (made up of 8 iscosceles triangles)
 ----------------------------------------------------------------------
 Symbolic Z-matrix:
 Charge =  0 Multiplicity = 1

                         Standard orientation:
 ---------------------------------------------------------------------
 Center     Atomic      Atomic             Coordinates (Angstroms)
 Number     Number       Type             X           Y           Z
 ---------------------------------------------------------------------
      1          1           0        2.143454    0.759919    0.000000
      2          1           0        1.071727    0.649315    0.000000
      3          1           0        2.143454   -0.317500    0.000000
      4          1           0        0.000000    0.538710    0.000000
      5          1           0        1.071727   -0.428105    0.000000
      6          1           0       -1.071727    0.428105    0.000000
      7          1           0       -0.000000   -0.538710    0.000000
      8          1           0       -2.143454    0.317500    0.000000
      9          1           0       -1.071727   -0.649315    0.000000
     10          1           0       -2.143454   -0.759919    0.000000
 ---------------------------------------------------------------------

 SCF Done:  E(RHF) =  -4.83203515814     A.U. after   30 cycles
 E2 =    -0.9521299983D-01 EUMP2 =    -0.49272481579691D+01

 Unable to determine electronic state:  partially filled degenerate orbitals.
 Alpha  occ. eigenvalues --   -0.86750  -0.73848  -0.53819  -0.42344  -0.27117
 Alpha virt. eigenvalues --   -0.04940   0.19309   0.34271   0.51796   0.90140

 Mulliken charges:
               1
     1  H   -0.251728
     2  H    0.250339
     3  H    0.294359
     4  H   -0.109309
     5  H   -0.315542
     6  H    0.220653
     7  H    0.120678
     8  H   -0.187573
     9  H   -0.271258
    10  H    0.249382
 Sum of Mulliken charges =  -0.00000

 Dipole moment (field-independent basis, Debye):
    X=             -0.2726    Y=             -0.4298    Z=              0.0000  Tot=              0.5090
 Quadrupole moment (field-independent basis, Debye-Ang):
   XX=            -14.0950   YY=            -14.7061   ZZ=            -12.8492
   XY=             -0.3878   XZ=             -0.0000   YZ=             -0.0000

 Normal termination of Gaussian 09 at Fri Feb 10 13:51:33 2017.
