 Gaussian 09, Revision E.01,
 Gaussian 09:  ES64L-G09RevE.01 30-Nov-2015

 ----------------------------------------------------------------------
 # rhf/gen scf(tight,novaracc,noincfock,fulldiag) stable(crhf) guess=mi
 x geom=nocrowd test
 ----------------------------------------------------------------------

 scf stability calculation for a triangular configuration of 10 H atoms
  (made up of 8 iscosceles triangles)
 ----------------------------------------------------------------------
 Symbolic Z-matrix:
 Charge =  0 Multiplicity = 1

                         Standard orientation:
 ---------------------------------------------------------------------
 Center     Atomic      Atomic             Coordinates (Angstroms)
 Number     Number       Type             X           Y           Z
 ---------------------------------------------------------------------
      1          1           0        1.732998    2.691160    0.000000
      2          1           0        0.866499    1.678731    0.000000
      3          1           0        1.732998    1.358556    0.000000
      4          1           0        0.000000    0.666302    0.000000
      5          1           0        0.866499    0.346127    0.000000
      6          1           0       -0.866499   -0.346127    0.000000
      7          1           0       -0.000000   -0.666302   -0.000000
      8          1           0       -1.732998   -1.358556    0.000000
      9          1           0       -0.866499   -1.678731    0.000000
     10          1           0       -1.732998   -2.691160    0.000000
 ---------------------------------------------------------------------

 SCF Done:  E(RHF) =  -4.74537152222     A.U. after   23 cycles
 E2 =    -0.1332006081D+00 EUMP2 =    -0.48785721303104D+01

 The electronic state is 1-AG.
 Alpha  occ. eigenvalues --   -0.77872  -0.71903  -0.55116  -0.34396  -0.17420
 Alpha virt. eigenvalues --    0.01150   0.15373   0.16524   0.40052   0.63657

 Mulliken charges:
               1
     1  H    0.054021
     2  H    0.118249
     3  H    0.043766
     4  H   -0.144845
     5  H   -0.071190
     6  H   -0.071190
     7  H   -0.144845
     8  H    0.043766
     9  H    0.118249
    10  H    0.054021
 Sum of Mulliken charges =  -0.00000

 Dipole moment (field-independent basis, Debye):
    X=              0.0000    Y=             -0.0000    Z=              0.0000  Tot=              0.0000
 Quadrupole moment (field-independent basis, Debye-Ang):
   XX=            -11.5762   YY=             -7.6589   ZZ=            -13.1891
   XY=              5.0583   XZ=              0.0000   YZ=              0.0000

 Normal termination of Gaussian 09 at Fri Feb 10 13:51:56 2017.
