 Gaussian 09, Revision E.01,
 Gaussian 09:  ES64L-G09RevE.01 30-Nov-2015

 ----------------------------------------------------------------------
 # rhf/gen scf(tight,novaracc,noincfock,fulldiag) stable(crhf) guess=mi
 x geom=nocrowd test
 ----------------------------------------------------------------------

 scf stability calculation for a triangular configuration of 10 H atoms
  (made up of 8 iscosceles triangles)
 ----------------------------------------------------------------------
 Symbolic Z-matrix:
 Charge =  0 Multiplicity = 1

                         Standard orientation:
 ---------------------------------------------------------------------
 Center     Atomic      Atomic             Coordinates (Angstroms)
 Number     Number       Type             X           Y           Z
 ---------------------------------------------------------------------
      1          1           0        1.840437    2.333565    0.000000
      2          1           0        0.920218    1.480485    0.000000
      3          1           0        1.840437    1.078755    0.000000
      4          1           0        0.000000    0.627405    0.000000
      5          1           0        0.920218    0.225675    0.000000
      6          1           0       -0.920218   -0.225675    0.000000
      7          1           0       -0.000000   -0.627405    0.000000
      8          1           0       -1.840437   -1.078755    0.000000
      9          1           0       -0.920218   -1.480485    0.000000
     10          1           0       -1.840437   -2.333565    0.000000
 ---------------------------------------------------------------------

 SCF Done:  E(RHF) =  -4.81961571293     A.U. after   16 cycles
 E2 =    -0.1222321605D+00 EUMP2 =    -0.49418478734121D+01

 The electronic state is 1-AG.
 Alpha  occ. eigenvalues --   -0.80658  -0.73090  -0.55323  -0.33155  -0.24404
 Alpha virt. eigenvalues --    0.02948   0.14528   0.22876   0.41197   0.60569

 Mulliken charges:
               1
     1  H   -0.017207
     2  H    0.111796
     3  H    0.108412
     4  H   -0.091702
     5  H   -0.111299
     6  H   -0.111299
     7  H   -0.091702
     8  H    0.108412
     9  H    0.111796
    10  H   -0.017207
 Sum of Mulliken charges =  -0.00000

 Dipole moment (field-independent basis, Debye):
    X=              0.0000    Y=              0.0000    Z=              0.0000  Tot=              0.0000
 Quadrupole moment (field-independent basis, Debye-Ang):
   XX=            -11.9316   YY=            -12.5619   ZZ=            -13.1325
   XY=              2.4310   XZ=              0.0000   YZ=              0.0000

 Normal termination of Gaussian 09 at Fri Feb 10 13:51:51 2017.
