 Gaussian 09, Revision E.01,
 Gaussian 09:  ES64L-G09RevE.01 30-Nov-2015

 ----------------------------------------------------------------------
 # rhf/gen scf(tight,novaracc,noincfock,fulldiag) stable(crhf) guess=mi
 x geom=nocrowd test
 ----------------------------------------------------------------------

 scf stability calculation for a triangular configuration of 10 H atoms
  (made up of 8 iscosceles triangles)
 ----------------------------------------------------------------------
 Symbolic Z-matrix:
 Charge =  0 Multiplicity = 1

                         Standard orientation:
 ---------------------------------------------------------------------
 Center     Atomic      Atomic             Coordinates (Angstroms)
 Number     Number       Type             X           Y           Z
 ---------------------------------------------------------------------
      1          1           0        1.681069    2.860121   -0.000000
      2          1           0        0.840534    1.773503   -0.000000
      3          1           0        1.681069    1.486354   -0.000000
      4          1           0        0.000000    0.686884    0.000000
      5          1           0        0.840534    0.399735   -0.000000
      6          1           0       -0.840534   -0.399735   -0.000000
      7          1           0       -0.000000   -0.686884    0.000000
      8          1           0       -1.681069   -1.486354   -0.000000
      9          1           0       -0.840534   -1.773503   -0.000000
     10          1           0       -1.681069   -2.860121   -0.000000
 ---------------------------------------------------------------------

 SCF Done:  E(RHF) =  -4.73500961506     A.U. after   18 cycles
 E2 =    -0.1724204872D+00 EUMP2 =    -0.49074301022699D+01

 Unable to determine electronic state:  partially filled degenerate orbitals.
 Alpha  occ. eigenvalues --   -0.82180  -0.72862  -0.59007  -0.39623  -0.12368
 Alpha virt. eigenvalues --    0.02397   0.08544   0.20101   0.39016   0.57348

 Mulliken charges:
               1
     1  H   -0.205591
     2  H    0.160657
     3  H    0.001319
     4  H   -0.079514
     5  H   -0.037118
     6  H    0.028835
     7  H    0.124558
     8  H    0.116925
     9  H    0.069128
    10  H   -0.179199
 Sum of Mulliken charges =  -0.00000

 Dipole moment (field-independent basis, Debye):
    X=             -1.0433    Y=             -1.2081    Z=              0.0000  Tot=              1.5963
 Quadrupole moment (field-independent basis, Debye-Ang):
   XX=            -16.3248   YY=            -26.8800   ZZ=            -12.8532
   XY=             -8.6818   XZ=              0.0000   YZ=              0.0000

 Normal termination of Gaussian 09 at Fri Feb 10 13:51:58 2017.
