 Gaussian 09, Revision E.01,
 Gaussian 09:  ES64L-G09RevE.01 30-Nov-2015

 ----------------------------------------------------------------------
 # rhf/gen scf(tight,novaracc,noincfock,fulldiag) stable(crhf) guess=mi
 x geom=nocrowd test
 ----------------------------------------------------------------------

 scf stability calculation for a triangular configuration of 10 H atoms
  (made up of 8 iscosceles triangles)
 ----------------------------------------------------------------------
 Symbolic Z-matrix:
 Charge =  0 Multiplicity = 1

                         Standard orientation:
 ---------------------------------------------------------------------
 Center     Atomic      Atomic             Coordinates (Angstroms)
 Number     Number       Type             X           Y           Z
 ---------------------------------------------------------------------
      1          1           0        1.448692    3.637182   -0.000000
      2          1           0        0.724346    2.217123   -0.000000
      3          1           0        1.448692    2.043054   -0.000000
      4          1           0       -0.000000    0.797064   -0.000000
      5          1           0        0.724346    0.622995   -0.000000
      6          1           0       -0.724346   -0.622995   -0.000000
      7          1           0       -0.000000   -0.797064   -0.000000
      8          1           0       -1.448692   -2.043054   -0.000000
      9          1           0       -0.724346   -2.217123   -0.000000
     10          1           0       -1.448692   -3.637182   -0.000000
 ---------------------------------------------------------------------

 SCF Done:  E(RHF) =  -4.90303188603     A.U. after   15 cycles
 E2 =    -0.4690955656D+00 EUMP2 =    -0.53721274516486D+01

 The electronic state is 1-AG.
 Alpha  occ. eigenvalues --   -0.76909  -0.70980  -0.61539  -0.49852  -0.15703
 Alpha virt. eigenvalues --   -0.07599   0.21815   0.32238   0.47746   0.62907

 Mulliken charges:
               1
     1  H   -0.090652
     2  H    0.039028
     3  H    0.025680
     4  H    0.016241
     5  H    0.009702
     6  H    0.009702
     7  H    0.016241
     8  H    0.025680
     9  H    0.039028
    10  H   -0.090652
 Sum of Mulliken charges =   0.00000

 Dipole moment (field-independent basis, Debye):
    X=             -0.0000    Y=             -0.0000    Z=              0.0000  Tot=              0.0000
 Quadrupole moment (field-independent basis, Debye-Ang):
   XX=            -13.3097   YY=            -25.9653   ZZ=            -12.9422
   XY=             -5.6354   XZ=             -0.0000   YZ=             -0.0000

 Normal termination of Gaussian 09 at Fri Feb 10 13:52:10 2017.
