 Gaussian 09, Revision E.01,
 Gaussian 09:  ES64L-G09RevE.01 30-Nov-2015

 ----------------------------------------------------------------------
 # rhf/gen scf(tight,novaracc,noincfock,fulldiag) stable(crhf) guess=mi
 x geom=nocrowd test
 ----------------------------------------------------------------------

 scf stability calculation for a triangular configuration of 10 H atoms
  (made up of 8 iscosceles triangles)
 ----------------------------------------------------------------------
 Symbolic Z-matrix:
 Charge =  0 Multiplicity = 1

                         Standard orientation:
 ---------------------------------------------------------------------
 Center     Atomic      Atomic             Coordinates (Angstroms)
 Number     Number       Type             X           Y           Z
 ---------------------------------------------------------------------
      1          1           0        2.036532   -0.431123   -0.000000
      2          1           0        1.018266    0.067935   -0.000000
      3          1           0        2.036532   -1.565109   -0.000000
      4          1           0        0.000000    0.566993    0.000000
      5          1           0        1.018266   -1.066051   -0.000000
      6          1           0       -1.018266    1.066051   -0.000000
      7          1           0       -0.000000   -0.566993    0.000000
      8          1           0       -2.036532    1.565109    0.000000
      9          1           0       -1.018266   -0.067935    0.000000
     10          1           0       -2.036532    0.431123    0.000000
 ---------------------------------------------------------------------

 SCF Done:  E(RHF) =  -4.86765927768     A.U. after   17 cycles
 E2 =    -0.1125070277D+00 EUMP2 =    -0.49801663054273D+01

 The electronic state is 1-AG.
 Alpha  occ. eigenvalues --   -0.84854  -0.74056  -0.54981  -0.35749  -0.30422
 Alpha virt. eigenvalues --   -0.01033   0.23171   0.24514   0.54977   0.64716

 Mulliken charges:
               1
     1  H    0.144129
     2  H   -0.117959
     3  H   -0.096900
     4  H   -0.029600
     5  H    0.100330
     6  H    0.100330
     7  H   -0.029600
     8  H   -0.096900
     9  H   -0.117959
    10  H    0.144129
 Sum of Mulliken charges =  -0.00000

 Dipole moment (field-independent basis, Debye):
    X=              0.0000    Y=             -0.0000    Z=             -0.0000  Tot=              0.0000
 Quadrupole moment (field-independent basis, Debye-Ang):
   XX=            -14.1260   YY=            -15.4132   ZZ=            -12.9471
   XY=              1.5161   XZ=              0.0000   YZ=             -0.0000

 Normal termination of Gaussian 09 at Fri Feb 10 13:51:23 2017.
