 Gaussian 09, Revision E.01,
 Gaussian 09:  ES64L-G09RevE.01 30-Nov-2015

 ----------------------------------------------------------------------
 # rhf/gen scf(tight,novaracc,noincfock,fulldiag) stable(crhf) guess=mi
 x geom=nocrowd test
 ----------------------------------------------------------------------

 scf stability calculation for a triangular configuration of 10 H atoms
  (made up of 8 iscosceles triangles)
 ----------------------------------------------------------------------
 Symbolic Z-matrix:
 Charge =  0 Multiplicity = 1

                         Standard orientation:
 ---------------------------------------------------------------------
 Center     Atomic      Atomic             Coordinates (Angstroms)
 Number     Number       Type             X           Y           Z
 ---------------------------------------------------------------------
      1          1           0        1.535835    3.337447    0.000000
      2          1           0        0.767917    2.044643    0.000000
      3          1           0        1.535835    1.833771    0.000000
      4          1           0        0.000000    0.751838    0.000000
      5          1           0        0.767917    0.540967    0.000000
      6          1           0       -0.767917   -0.540967    0.000000
      7          1           0       -0.000000   -0.751838    0.000000
      8          1           0       -1.535835   -1.833771    0.000000
      9          1           0       -0.767917   -2.044643    0.000000
     10          1           0       -1.535835   -3.337447    0.000000
 ---------------------------------------------------------------------

 SCF Done:  E(RHF) =  -4.85533711967     A.U. after   16 cycles
 E2 =    -0.3589059117D+00 EUMP2 =    -0.52142430314083D+01

 The electronic state is 1-AG.
 Alpha  occ. eigenvalues --   -0.79208  -0.71947  -0.60706  -0.46579  -0.13718
 Alpha virt. eigenvalues --   -0.03898   0.15847   0.27442   0.44238   0.60239

 Mulliken charges:
               1
     1  H   -0.149060
     2  H    0.063401
     3  H    0.037757
     4  H    0.027796
     5  H    0.020107
     6  H    0.020107
     7  H    0.027796
     8  H    0.037757
     9  H    0.063401
    10  H   -0.149060
 Sum of Mulliken charges =   0.00000

 Dipole moment (field-independent basis, Debye):
    X=              0.0000    Y=             -0.0000    Z=             -0.0000  Tot=              0.0000
 Quadrupole moment (field-independent basis, Debye-Ang):
   XX=            -14.5036   YY=            -29.4168   ZZ=            -12.8700
   XY=             -8.1747   XZ=             -0.0000   YZ=             -0.0000

 Normal termination of Gaussian 09 at Fri Feb 10 13:52:06 2017.
