 Gaussian 09, Revision E.01,
 Gaussian 09:  ES64L-G09RevE.01 30-Nov-2015

 ----------------------------------------------------------------------
 # rhf/gen scf(tight,novaracc,noincfock,fulldiag) stable(crhf) guess=mi
 x geom=nocrowd test
 ----------------------------------------------------------------------

 scf stability calculation for a triangular configuration of 10 H atoms
  (made up of 8 iscosceles triangles)
 ----------------------------------------------------------------------
 Symbolic Z-matrix:
 Charge =  0 Multiplicity = 1

                         Standard orientation:
 ---------------------------------------------------------------------
 Center     Atomic      Atomic             Coordinates (Angstroms)
 Number     Number       Type             X           Y           Z
 ---------------------------------------------------------------------
      1          1           0        0.998157    5.675206    0.000000
      2          1           0        0.499078    3.416017    0.000000
      3          1           0        0.998157    3.361548    0.000000
      4          1           0        0.000000    1.156829    0.000000
      5          1           0        0.499078    1.102360    0.000000
      6          1           0       -0.499078   -1.102360   -0.000000
      7          1           0       -0.000000   -1.156829   -0.000000
      8          1           0       -0.998157   -3.361548   -0.000000
      9          1           0       -0.499078   -3.416017   -0.000000
     10          1           0       -0.998157   -5.675206   -0.000000
 ---------------------------------------------------------------------

 SCF Done:  E(RHF) =  -4.54042378875     A.U. after   32 cycles
 E2 =    -0.9538057370D+00 EUMP2 =    -0.54942295257286D+01

 The electronic state is 1-AG.
 Alpha  occ. eigenvalues --   -0.73562  -0.72157  -0.70178  -0.68325  -0.20457
 Alpha virt. eigenvalues --   -0.15859   0.52369   0.57514   0.64671   0.71199

 Mulliken charges:
               1
     1  H    0.000949
     2  H   -0.001144
     3  H    0.000153
     4  H    0.000171
     5  H   -0.000129
     6  H   -0.000129
     7  H    0.000171
     8  H    0.000153
     9  H   -0.001144
    10  H    0.000949
 Sum of Mulliken charges =   0.00000

 Dipole moment (field-independent basis, Debye):
    X=              0.0000    Y=             -0.0000    Z=             -0.0000  Tot=              0.0000
 Quadrupole moment (field-independent basis, Debye-Ang):
   XX=            -12.6176   YY=            -15.2637   ZZ=            -13.4430
   XY=             -0.4278   XZ=             -0.0000   YZ=             -0.0000

 Normal termination of Gaussian 09 at Fri Feb 10 13:52:46 2017.
