 Gaussian 09, Revision E.01,
 Gaussian 09:  ES64L-G09RevE.01 30-Nov-2015

 ----------------------------------------------------------------------
 # rhf/gen scf(tight,novaracc,noincfock,fulldiag) stable(crhf) guess=mi
 x geom=nocrowd test
 ----------------------------------------------------------------------

 scf stability calculation for a triangular configuration of 10 H atoms
  (made up of 8 iscosceles triangles)
 ----------------------------------------------------------------------
 Symbolic Z-matrix:
 Charge =  0 Multiplicity = 1

                         Standard orientation:
 ---------------------------------------------------------------------
 Center     Atomic      Atomic             Coordinates (Angstroms)
 Number     Number       Type             X           Y           Z
 ---------------------------------------------------------------------
      1          1           0        1.170888    4.753092    0.000000
      2          1           0        0.585444    2.869633    0.000000
      3          1           0        1.170888    2.780743    0.000000
      4          1           0        0.000000    0.986175    0.000000
      5          1           0        0.585444    0.897284    0.000000
      6          1           0       -0.585444   -0.897284    0.000000
      7          1           0       -0.000000   -0.986175    0.000000
      8          1           0       -1.170888   -2.780743    0.000000
      9          1           0       -0.585444   -2.869633    0.000000
     10          1           0       -1.170888   -4.753092    0.000000
 ---------------------------------------------------------------------

 SCF Done:  E(RHF) =  -4.83052368796     A.U. after   19 cycles
 E2 =    -0.7846466177D+00 EUMP2 =    -0.56151703056801D+01

 The electronic state is 1-AG.
 Alpha  occ. eigenvalues --   -0.73450  -0.70608  -0.66213  -0.61515  -0.19704
 Alpha virt. eigenvalues --   -0.14218   0.40153   0.47396   0.58008   0.68188

 Mulliken charges:
               1
     1  H   -0.006846
     2  H    0.002443
     3  H    0.003342
     4  H    0.001200
     5  H   -0.000139
     6  H   -0.000139
     7  H    0.001200
     8  H    0.003342
     9  H    0.002443
    10  H   -0.006846
 Sum of Mulliken charges =   0.00000

 Dipole moment (field-independent basis, Debye):
    X=              0.0000    Y=             -0.0000    Z=             -0.0000  Tot=              0.0000
 Quadrupole moment (field-independent basis, Debye-Ang):
   XX=            -12.3417   YY=            -17.5420   ZZ=            -13.2500
   XY=             -1.2605   XZ=             -0.0000   YZ=              0.0000

 Normal termination of Gaussian 09 at Fri Feb 10 13:52:29 2017.
