 Gaussian 09, Revision E.01,
 Gaussian 09:  ES64L-G09RevE.01 30-Nov-2015

 ----------------------------------------------------------------------
 # rhf/gen scf(tight,novaracc,noincfock,fulldiag) stable(crhf) guess=mi
 x geom=nocrowd test
 ----------------------------------------------------------------------

 scf stability calculation for a triangular configuration of 10 H atoms
  (made up of 8 iscosceles triangles)
 ----------------------------------------------------------------------
 Symbolic Z-matrix:
 Charge =  0 Multiplicity = 1

                         Standard orientation:
 ---------------------------------------------------------------------
 Center     Atomic      Atomic             Coordinates (Angstroms)
 Number     Number       Type             X           Y           Z
 ---------------------------------------------------------------------
      1          1           0        1.065858    5.283637    0.000000
      2          1           0        0.532929    3.183495    0.000000
      3          1           0        1.065858    3.116932    0.000000
      4          1           0        0.000000    1.083353   -0.000000
      5          1           0        0.532929    1.016790    0.000000
      6          1           0       -0.532929   -1.016790    0.000000
      7          1           0       -0.000000   -1.083353   -0.000000
      8          1           0       -1.065858   -3.116932    0.000000
      9          1           0       -0.532929   -3.183495   -0.000000
     10          1           0       -1.065858   -5.283637    0.000000
 ---------------------------------------------------------------------

 SCF Done:  E(RHF) =  -4.68209149187     A.U. after   22 cycles
 E2 =    -0.8854713112D+00 EUMP2 =    -0.55675628030978D+01

 The electronic state is 1-AG.
 Alpha  occ. eigenvalues --   -0.73351  -0.71417  -0.68581  -0.65782  -0.20274
 Alpha virt. eigenvalues --   -0.15346   0.47418   0.53416   0.61939   0.69876

 Mulliken charges:
               1
     1  H   -0.000453
     2  H   -0.000600
     3  H    0.000873
     4  H    0.000372
     5  H   -0.000192
     6  H   -0.000192
     7  H    0.000372
     8  H    0.000873
     9  H   -0.000600
    10  H   -0.000453
 Sum of Mulliken charges =  -0.00000

 Dipole moment (field-independent basis, Debye):
    X=              0.0000    Y=              0.0000    Z=              0.0000  Tot=              0.0000
 Quadrupole moment (field-independent basis, Debye-Ang):
   XX=            -12.4870   YY=            -15.9763   ZZ=            -13.3726
   XY=             -0.6652   XZ=             -0.0000   YZ=              0.0000

 Normal termination of Gaussian 09 at Fri Feb 10 13:52:39 2017.
