 Gaussian 09, Revision E.01,
 Gaussian 09:  ES64L-G09RevE.01 30-Nov-2015

 ----------------------------------------------------------------------
 #rhf/gen scf(tight,novaracc,noincfock,fulldiag) stable(crhf) guess=rea
 d geom=nocrowd test
 ----------------------------------------------------------------------

 ----------------------------------------------------------------------
 hf stability analysis of h10 triangular lattice, y= 1.5431790366192943
 ----------------------------------------------------------------------
 Symbolic Z-matrix:
 Charge =  0 Multiplicity = 1

                         Standard orientation:
 ---------------------------------------------------------------------
 Center     Atomic      Atomic             Coordinates (Angstroms)
 Number     Number       Type             X           Y           Z
 ---------------------------------------------------------------------
      1          1           0        2.992592    2.752179    0.000000
      2          1           0        2.992592    0.987779    0.000000
      3          1           0        1.496296    1.817190    0.000000
      4          1           0        1.496296    0.052790    0.000000
      5          1           0       -0.000000    0.882200    0.000000
      6          1           0       -0.000000   -0.882200   -0.000000
      7          1           0       -1.496296   -0.052790   -0.000000
      8          1           0       -1.496296   -1.817190   -0.000000
      9          1           0       -2.992592   -0.987779   -0.000000
     10          1           0       -2.992592   -2.752179   -0.000000
 ---------------------------------------------------------------------

 SCF Done:  E(RHF) =  -4.63156890015     A.U. after   12 cycles
 E2 =    -0.1966959797D+00 EUMP2 =    -0.48282648798081D+01

 The electronic state is 1-AG.
 Alpha  occ. eigenvalues --   -0.57404  -0.50723  -0.40581  -0.31224  -0.24263
 Alpha virt. eigenvalues --   -0.09482   0.03356   0.04405   0.14027   0.16200

 Mulliken charges:
               1
     1  H    0.021748
     2  H   -0.063160
     3  H    0.090645
     4  H   -0.118120
     5  H    0.068887
     6  H    0.068887
     7  H   -0.118120
     8  H    0.090645
     9  H   -0.063160
    10  H    0.021748
 Sum of Mulliken charges =   0.00000

 Dipole moment (field-independent basis, Debye):
    X=             -0.0000    Y=             -0.0000    Z=             -0.0000  Tot=              0.0000
 Quadrupole moment (field-independent basis, Debye-Ang):
   XX=            -15.6098   YY=             -9.7501   ZZ=            -14.1392
   XY=              5.0105   XZ=              0.0000   YZ=              0.0000

 Normal termination of Gaussian 09 at Fri Feb 10 11:18:33 2017.
