 Gaussian 09, Revision E.01,
 Gaussian 09:  ES64L-G09RevE.01 30-Nov-2015

 ----------------------------------------------------------------------
 #rhf/gen scf(tight,novaracc,noincfock,fulldiag) stable(crhf) guess=rea
 d geom=nocrowd test
 ----------------------------------------------------------------------

 ----------------------------------------------------------------------
 hf stability analysis of h10 triangular lattice, y= 1.5720919357875696
 ----------------------------------------------------------------------
 Symbolic Z-matrix:
 Charge =  0 Multiplicity = 1

                         Standard orientation:
 ---------------------------------------------------------------------
 Center     Atomic      Atomic             Coordinates (Angstroms)
 Number     Number       Type             X           Y           Z
 ---------------------------------------------------------------------
      1          1           0        2.854859    2.956377   -0.000000
      2          1           0        2.854859    1.191977   -0.000000
      3          1           0        1.427430    1.919288   -0.000000
      4          1           0        1.427430    0.154888   -0.000000
      5          1           0        0.000000    0.882200    0.000000
      6          1           0       -0.000000   -0.882200   -0.000000
      7          1           0       -1.427430   -0.154888   -0.000000
      8          1           0       -1.427430   -1.919288   -0.000000
      9          1           0       -2.854859   -1.191977   -0.000000
     10          1           0       -2.854859   -2.956377   -0.000000
 ---------------------------------------------------------------------

 SCF Done:  E(RHF) =  -4.61749475232     A.U. after   13 cycles
 E2 =    -0.1983807522D+00 EUMP2 =    -0.48158755045364D+01

 The electronic state is 1-AG.
 Alpha  occ. eigenvalues --   -0.59318  -0.52229  -0.42087  -0.29827  -0.22862
 Alpha virt. eigenvalues --   -0.09303   0.03525   0.05065   0.11600   0.16554

 Mulliken charges:
               1
     1  H   -0.072512
     2  H    0.002004
     3  H    0.103110
     4  H   -0.167118
     5  H    0.134517
     6  H    0.134517
     7  H   -0.167118
     8  H    0.103110
     9  H    0.002004
    10  H   -0.072512
 Sum of Mulliken charges =  -0.00000

 Dipole moment (field-independent basis, Debye):
    X=             -0.0000    Y=              0.0000    Z=             -0.0000  Tot=              0.0000
 Quadrupole moment (field-independent basis, Debye-Ang):
   XX=            -18.7971   YY=            -15.4066   ZZ=            -14.0643
   XY=             -1.6584   XZ=             -0.0000   YZ=             -0.0000

 Normal termination of Gaussian 09 at Fri Feb 10 11:18:37 2017.
