 Gaussian 09, Revision E.01,
 Gaussian 09:  ES64L-G09RevE.01 30-Nov-2015

 ----------------------------------------------------------------------
 #rhf/gen scf(tight,novaracc,noincfock,fulldiag) stable(crhf) guess=rea
 d geom=nocrowd test
 ----------------------------------------------------------------------

 ----------------------------------------------------------------------
 hf stability analysis of h10 triangular lattice, y= 1.4627539198509443
 ----------------------------------------------------------------------
 Symbolic Z-matrix:
 Charge =  0 Multiplicity = 1

                         Standard orientation:
 ---------------------------------------------------------------------
 Center     Atomic      Atomic             Coordinates (Angstroms)
 Number     Number       Type             X           Y           Z
 ---------------------------------------------------------------------
      1          1           0        3.271846    2.204112    0.000000
      2          1           0        3.271846    0.439712    0.000000
      3          1           0        1.635923    1.543156    0.000000
      4          1           0        1.635923   -0.221244   -0.000000
      5          1           0        0.000000    0.882200    0.000000
      6          1           0       -0.000000   -0.882200    0.000000
      7          1           0       -1.635923    0.221244   -0.000000
      8          1           0       -1.635923   -1.543156    0.000000
      9          1           0       -3.271846   -0.439712   -0.000000
     10          1           0       -3.271846   -2.204112    0.000000
 ---------------------------------------------------------------------

 SCF Done:  E(RHF) =  -4.67439145331     A.U. after   10 cycles
 E2 =    -0.1853906397D+00 EUMP2 =    -0.48597820930407D+01

 The electronic state is 1-AG.
 Alpha  occ. eigenvalues --   -0.55446  -0.49104  -0.38787  -0.33931  -0.26808
 Alpha virt. eigenvalues --   -0.08853   0.01031   0.04549   0.13709   0.18791

 Mulliken charges:
               1
     1  H    0.058542
     2  H   -0.063269
     3  H    0.048245
     4  H   -0.048071
     5  H    0.004553
     6  H    0.004553
     7  H   -0.048071
     8  H    0.048245
     9  H   -0.063269
    10  H    0.058542
 Sum of Mulliken charges =  -0.00000

 Dipole moment (field-independent basis, Debye):
    X=              0.0000    Y=              0.0000    Z=              0.0000  Tot=              0.0000
 Quadrupole moment (field-independent basis, Debye-Ang):
   XX=            -10.6051   YY=            -11.2016   ZZ=            -14.2676
   XY=              7.2532   XZ=             -0.0000   YZ=              0.0000

 Normal termination of Gaussian 09 at Fri Feb 10 11:18:23 2017.
