 Gaussian 09, Revision E.01,
 Gaussian 09:  ES64L-G09RevE.01 30-Nov-2015

 ----------------------------------------------------------------------
 #rhf/gen scf(tight,novaracc,noincfock,fulldiag) stable(crhf) guess=rea
 d geom=nocrowd test
 ----------------------------------------------------------------------

 hf stability analysis of h10 triangular lattice, y= -1.761981946950044
 4
 ----------------------------------------------------------------------
 Symbolic Z-matrix:
 Charge =  0 Multiplicity = 1

                         Standard orientation:
 ---------------------------------------------------------------------
 Center     Atomic      Atomic             Coordinates (Angstroms)
 Number     Number       Type             X           Y           Z
 ---------------------------------------------------------------------
      1          1           0       -0.908212    4.296732   -0.000000
      2          1           0       -0.543328    2.570474   -0.000000
      3          1           0       -0.725770    2.541790   -0.000000
      4          1           0        0.000000    0.891813   -0.000000
      5          1           0       -0.543328    0.786848    0.000000
      6          1           0        0.543328   -0.786848   -0.000000
      7          1           0       -0.360886   -0.968095    0.000000
      8          1           0        1.086656   -2.465508   -0.000000
      9          1           0       -0.178444   -2.723037    0.000000
     10          1           0        1.629985   -4.144169   -0.000000
 ---------------------------------------------------------------------

 SCF Done:  E(RHF) =  -3.23181960658     A.U. after   13 cycles
 E2 =    -0.5244560669D+00 EUMP2 =    -0.37562756734418D+01

 The electronic state is 1-A'.
 Alpha  occ. eigenvalues --   -0.85308  -0.71663  -0.59796  -0.45470  -0.18980
 Alpha virt. eigenvalues --   -0.12315   0.10022   0.30830   0.59775   1.19076

 Mulliken charges:
               1
     1  H   -0.050890
     2  H   -0.013862
     3  H    0.000635
     4  H    0.002604
     5  H    0.001363
     6  H    0.003677
     7  H    0.013314
     8  H    0.039846
     9  H    0.028933
    10  H   -0.025618
 Sum of Mulliken charges =  -0.00000

 Dipole moment (field-independent basis, Debye):
    X=              0.2215    Y=             -1.6135    Z=              0.0000  Tot=              1.6287
 Quadrupole moment (field-independent basis, Debye-Ang):
   XX=            -12.1637   YY=            -21.6844   ZZ=            -13.2009
   XY=              2.6106   XZ=             -0.0000   YZ=              0.0000

 Normal termination of Gaussian 09 at Fri Feb 10 11:19:36 2017.
