 Gaussian 09, Revision E.01,
 Gaussian 09:  ES64L-G09RevE.01 30-Nov-2015

 ----------------------------------------------------------------------
 #rhf/gen scf(tight,novaracc,noincfock,fulldiag) stable(crhf) guess=rea
 d geom=nocrowd test
 ----------------------------------------------------------------------

 hf stability analysis of h10 triangular lattice, y= -0.276012825384772
 23
 ----------------------------------------------------------------------
 Symbolic Z-matrix:
 Charge =  0 Multiplicity = 1

                         Standard orientation:
 ---------------------------------------------------------------------
 Center     Atomic      Atomic             Coordinates (Angstroms)
 Number     Number       Type             X           Y           Z
 ---------------------------------------------------------------------
      1          1           0       -1.398195    2.040875   -0.000000
      2          1           0       -2.395401    3.496447   -0.000000
      3          1           0        0.000000    0.964698   -0.000000
      4          1           0       -1.896798    1.803963   -0.000000
      5          1           0        1.398195   -0.111478    0.000000
      6          1           0       -1.398195    0.111478   -0.000000
      7          1           0        2.796391   -1.187655    0.000000
      8          1           0       -0.899592   -1.581006    0.000000
      9          1           0        4.194586   -2.263832    0.000000
     10          1           0       -0.400990   -3.273490    0.000000
 ---------------------------------------------------------------------

 SCF Done:  E(RHF) =  -4.66935532156     A.U. after   13 cycles
 E2 =    -0.2240887345D+00 EUMP2 =    -0.48934440560277D+01

 The electronic state is 1-A'.
 Alpha  occ. eigenvalues --   -0.75659  -0.47384  -0.40596  -0.36002  -0.25867
 Alpha virt. eigenvalues --   -0.11319  -0.00636   0.08785   0.15410   0.57079

 Mulliken charges:
               1
     1  H    0.014663
     2  H    0.052235
     3  H    0.000381
     4  H    0.014230
     5  H   -0.056222
     6  H    0.016661
     7  H   -0.002506
     8  H    0.001097
     9  H   -0.036026
    10  H   -0.004512
 Sum of Mulliken charges =  -0.00000

 Dipole moment (field-independent basis, Debye):
    X=             -2.0741    Y=              1.6537    Z=             -0.0000  Tot=              2.6527
 Quadrupole moment (field-independent basis, Debye-Ang):
   XX=            -14.4833   YY=            -10.2533   ZZ=            -14.1401
   XY=             -1.6992   XZ=              0.0000   YZ=             -0.0000

 Normal termination of Gaussian 09 at Fri Feb 10 11:22:14 2017.
