 Gaussian 09, Revision E.01,
 Gaussian 09:  ES64L-G09RevE.01 30-Nov-2015

 ----------------------------------------------------------------------
 #rhf/gen scf(tight,novaracc,noincfock,fulldiag) stable(crhf) guess=rea
 d geom=nocrowd test
 ----------------------------------------------------------------------

 hf stability analysis of h10 triangular lattice, y= -0.660955747885929
 37
 ----------------------------------------------------------------------
 Symbolic Z-matrix:
 Charge =  0 Multiplicity = 1

                         Standard orientation:
 ---------------------------------------------------------------------
 Center     Atomic      Atomic             Coordinates (Angstroms)
 Number     Number       Type             X           Y           Z
 ---------------------------------------------------------------------
      1          1           0       -1.579347    0.498682    0.000000
      2          1           0       -3.261866    1.029941    0.000000
      3          1           0       -0.000000    1.285302    0.000000
      4          1           0       -2.420606   -0.520991    0.000000
      5          1           0        1.579347    2.071923   -0.000000
      6          1           0       -1.579347   -2.071923    0.000000
      7          1           0        3.158693    2.858543   -0.000000
      8          1           0       -0.738087   -3.622855    0.000000
      9          1           0        4.738040    3.645164   -0.000000
     10          1           0        0.103173   -5.173786   -0.000000
 ---------------------------------------------------------------------

 SCF Done:  E(RHF) =  -4.75604243717     A.U. after   11 cycles
 E2 =    -0.1795581831D+00 EUMP2 =    -0.49356006202248D+01

 The electronic state is 1-A'.
 Alpha  occ. eigenvalues --   -0.56593  -0.46566  -0.39862  -0.37699  -0.27703
 Alpha virt. eigenvalues --   -0.08543  -0.02287   0.06093   0.12591   0.19665

 Mulliken charges:
               1
     1  H    0.123001
     2  H    0.020241
     3  H   -0.036872
     4  H    0.053754
     5  H    0.054525
     6  H   -0.168382
     7  H   -0.021928
     8  H    0.014138
     9  H    0.044771
    10  H   -0.083248
 Sum of Mulliken charges =  -0.00000

 Dipole moment (field-independent basis, Debye):
    X=              0.4106    Y=              4.5565    Z=              0.0000  Tot=              4.5750
 Quadrupole moment (field-independent basis, Debye-Ang):
   XX=             -4.7193   YY=            -22.7916   ZZ=            -14.5486
   XY=              1.1518   XZ=             -0.0000   YZ=             -0.0000

 Normal termination of Gaussian 09 at Fri Feb 10 11:21:47 2017.
