 Gaussian 09, Revision E.01,
 Gaussian 09:  ES64L-G09RevE.01 30-Nov-2015

 ----------------------------------------------------------------------
 #rhf/gen scf(tight,novaracc,noincfock,fulldiag) stable(crhf) guess=rea
 d geom=nocrowd test
 ----------------------------------------------------------------------

 hf stability analysis of h10 triangular lattice, y= -1.572091865760099
 1
 ----------------------------------------------------------------------
 Symbolic Z-matrix:
 Charge =  0 Multiplicity = 1

                         Standard orientation:
 ---------------------------------------------------------------------
 Center     Atomic      Atomic             Coordinates (Angstroms)
 Number     Number       Type             X           Y           Z
 ---------------------------------------------------------------------
      1          1           0        0.000000    2.956377    0.000000
      2          1           0        0.000000    1.191977    0.000000
      3          1           0        1.427430    1.919288    0.000000
      4          1           0       -1.427430    0.154888    0.000000
      5          1           0        2.854859    0.882200    0.000000
      6          1           0       -2.854859   -0.882200    0.000000
      7          1           0        4.282289   -0.154888    0.000000
      8          1           0       -4.282289   -1.919288    0.000000
      9          1           0        5.709718   -1.191977    0.000000
     10          1           0       -5.709718   -2.956377    0.000000
 ---------------------------------------------------------------------

 SCF Done:  E(RHF) =  -4.75258224575     A.U. after   10 cycles
 E2 =    -0.1741228495D+00 EUMP2 =    -0.49267050952139D+01

 The electronic state is 1-A'.
 Alpha  occ. eigenvalues --   -0.53455  -0.46221  -0.40435  -0.37412  -0.29005
 Alpha virt. eigenvalues --   -0.08640  -0.00243   0.03746   0.12660   0.17347

 Mulliken charges:
               1
     1  H    0.063848
     2  H    0.112892
     3  H    0.021872
     4  H   -0.034841
     5  H   -0.158766
     6  H    0.037745
     7  H    0.014872
     8  H   -0.019368
     9  H   -0.074256
    10  H    0.036003
 Sum of Mulliken charges =  -0.00000

 Dipole moment (field-independent basis, Debye):
    X=             -4.6254    Y=              0.9774    Z=              0.0000  Tot=              4.7275
 Quadrupole moment (field-independent basis, Debye-Ang):
   XX=            -22.9294   YY=             -7.8587   ZZ=            -14.5953
   XY=              3.6803   XZ=              0.0000   YZ=              0.0000

 Normal termination of Gaussian 09 at Fri Feb 10 11:20:26 2017.
