 Gaussian 09, Revision E.01,
 Gaussian 09:  ES64L-G09RevE.01 30-Nov-2015

 ----------------------------------------------------------------------
 #rhf/gen scf(tight,novaracc,noincfock,fulldiag) stable(crhf) guess=rea
 d geom=nocrowd test
 ----------------------------------------------------------------------

 hf stability analysis of h10 triangular lattice, y= -6.157651953993487
 08E-002
 ----------------------------------------------------------------------
 Symbolic Z-matrix:
 Charge =  0 Multiplicity = 1

                         Standard orientation:
 ---------------------------------------------------------------------
 Center     Atomic      Atomic             Coordinates (Angstroms)
 Number     Number       Type             X           Y           Z
 ---------------------------------------------------------------------
      1          1           0       -0.366256    2.612455    0.000000
      2          1           0       -0.611222    4.359767    0.000000
      3          1           0        0.000000    0.886488    0.000000
      4          1           0       -0.488739    2.599624   -0.000000
      5          1           0        0.366256   -0.839480    0.000000
      6          1           0       -0.366256    0.839480   -0.000000
      7          1           0        0.732511   -2.565448    0.000000
      8          1           0       -0.243773   -0.920664   -0.000000
      9          1           0        1.098767   -4.291415    0.000000
     10          1           0       -0.121290   -2.680807   -0.000000
 ---------------------------------------------------------------------

 SCF Done:  E(RHF) =  -1.57900293779     A.U. after   13 cycles
 E2 =    -0.6622263901D+00 EUMP2 =    -0.22412293279416D+01

 The electronic state is 1-A'.
 Alpha  occ. eigenvalues --   -0.87604  -0.78868  -0.69396  -0.56749  -0.19390
 Alpha virt. eigenvalues --   -0.13197   0.27523   0.51923   0.82112   1.35973

 Mulliken charges:
               1
     1  H   -0.014349
     2  H   -0.030448
     3  H    0.000588
     4  H   -0.000011
     5  H    0.001114
     6  H    0.000516
     7  H    0.012232
     8  H    0.003036
     9  H    0.003930
    10  H    0.023393
 Sum of Mulliken charges =   0.00000

 Dipole moment (field-independent basis, Debye):
    X=              0.1623    Y=             -1.3641    Z=             -0.0000  Tot=              1.3737
 Quadrupole moment (field-independent basis, Debye-Ang):
   XX=            -12.1348   YY=            -18.9805   ZZ=            -12.9535
   XY=              1.1290   XZ=              0.0000   YZ=              0.0000

 Normal termination of Gaussian 09 at Fri Feb 10 11:22:29 2017.
