 Gaussian 09, Revision E.01,
 Gaussian 09:  ES64L-G09RevE.01 30-Nov-2015

 ----------------------------------------------------------------------
 #rhf/gen scf(tight,novaracc,noincfock,fulldiag) stable(crhf) guess=rea
 d geom=nocrowd test
 ----------------------------------------------------------------------

 hf stability analysis of h10 triangular lattice, y= -1.731982985960406
 1
 ----------------------------------------------------------------------
 Symbolic Z-matrix:
 Charge =  0 Multiplicity = 1

                         Standard orientation:
 ---------------------------------------------------------------------
 Center     Atomic      Atomic             Coordinates (Angstroms)
 Number     Number       Type             X           Y           Z
 ---------------------------------------------------------------------
      1          1           0       -2.738856    3.123263    0.000000
      2          1           0       -1.575547    1.796680    0.000000
      3          1           0       -2.157201    1.457494    0.000000
      4          1           0        0.000000    1.002478    0.000000
      5          1           0       -1.575547   -0.208275    0.000000
      6          1           0        1.575547    0.208275   -0.000000
      7          1           0       -0.993893   -1.874044    0.000000
      8          1           0        3.151095   -0.585928   -0.000000
      9          1           0       -0.412239   -3.539812   -0.000000
     10          1           0        4.726642   -1.380131   -0.000000
 ---------------------------------------------------------------------

 SCF Done:  E(RHF) =  -4.73317766737     A.U. after   12 cycles
 E2 =    -0.2230015280D+00 EUMP2 =    -0.49561791954109D+01

 The electronic state is 1-A'.
 Alpha  occ. eigenvalues --   -0.71753  -0.44875  -0.41540  -0.35530  -0.27027
 Alpha virt. eigenvalues --   -0.10275  -0.01977   0.09484   0.13330   0.46000

 Mulliken charges:
               1
     1  H    0.045051
     2  H    0.034742
     3  H    0.029307
     4  H   -0.011544
     5  H   -0.020128
     6  H   -0.036692
     7  H   -0.002882
     8  H   -0.003856
     9  H   -0.016668
    10  H   -0.017329
 Sum of Mulliken charges =   0.00000

 Dipole moment (field-independent basis, Debye):
    X=             -1.6896    Y=              1.5437    Z=              0.0000  Tot=              2.2887
 Quadrupole moment (field-independent basis, Debye-Ang):
   XX=            -12.3796   YY=            -11.1022   ZZ=            -14.2511
   XY=             -3.5052   XZ=             -0.0000   YZ=              0.0000

 Normal termination of Gaussian 09 at Fri Feb 10 11:19:54 2017.
