 Gaussian 09, Revision E.01,
 Gaussian 09:  ES64L-G09RevE.01 30-Nov-2015

 ----------------------------------------------------------------------
 #rhf/gen scf(tight,novaracc,noincfock,fulldiag) stable(crhf) guess=rea
 d geom=nocrowd test
 ----------------------------------------------------------------------

 hf stability analysis of h10 triangular lattice, y= -1.390366106133020
 1
 ----------------------------------------------------------------------
 Symbolic Z-matrix:
 Charge =  0 Multiplicity = 1

                         Standard orientation:
 ---------------------------------------------------------------------
 Center     Atomic      Atomic             Coordinates (Angstroms)
 Number     Number       Type             X           Y           Z
 ---------------------------------------------------------------------
      1          1           0        0.000000   -1.735894    0.000000
      2          1           0        0.000000    0.028506    0.000000
      3          1           0        1.711990   -1.309047    0.000000
      4          1           0       -1.711990    0.455353    0.000000
      5          1           0        3.423980   -0.882200    0.000000
      6          1           0       -3.423980    0.882200    0.000000
      7          1           0        5.135969   -0.455353    0.000000
      8          1           0       -5.135969    1.309047    0.000000
      9          1           0        6.847959   -0.028506    0.000000
     10          1           0       -6.847959    1.735894    0.000000
 ---------------------------------------------------------------------

 SCF Done:  E(RHF) =  -4.76001107886     A.U. after   11 cycles
 E2 =    -0.1757644696D+00 EUMP2 =    -0.49357755484455D+01

 The electronic state is 1-A'.
 Alpha  occ. eigenvalues --   -0.50316  -0.45167  -0.42010  -0.36958  -0.30974
 Alpha virt. eigenvalues --   -0.07900   0.00465   0.03111   0.13578   0.14861

 Mulliken charges:
               1
     1  H    0.054902
     2  H    0.060117
     3  H    0.008805
     4  H   -0.009731
     5  H   -0.076395
     6  H   -0.010555
     7  H    0.001983
     8  H   -0.010135
     9  H   -0.027962
    10  H    0.008971
 Sum of Mulliken charges =  -0.00000

 Dipole moment (field-independent basis, Debye):
    X=             -1.8463    Y=             -0.2366    Z=              0.0000  Tot=              1.8614
 Quadrupole moment (field-independent basis, Debye-Ang):
   XX=            -20.2590   YY=            -12.7645   ZZ=            -14.6314
   XY=              1.2181   XZ=              0.0000   YZ=              0.0000

 Normal termination of Gaussian 09 at Fri Feb 10 11:20:45 2017.
