 Gaussian 09, Revision E.01,
 Gaussian 09:  ES64L-G09RevE.01 30-Nov-2015

 ----------------------------------------------------------------------
 #rhf/gen scf(tight,novaracc,noincfock,fulldiag) stable(crhf) guess=rea
 d geom=nocrowd test
 ----------------------------------------------------------------------

 ----------------------------------------------------------------------
 hf stability analysis of h10 triangular lattice, y= 1.7601020154192490
 ----------------------------------------------------------------------
 Symbolic Z-matrix:
 Charge =  0 Multiplicity = 1

                         Standard orientation:
 ---------------------------------------------------------------------
 Center     Atomic      Atomic             Coordinates (Angstroms)
 Number     Number       Type             X           Y           Z
 ---------------------------------------------------------------------
      1          1           0        0.491114    4.376658    0.000000
      2          1           0        0.491114    2.612258    0.000000
      3          1           0        0.245557    2.629429    0.000000
      4          1           0        0.245557    0.865029    0.000000
      5          1           0       -0.000000    0.882200    0.000000
      6          1           0       -0.000000   -0.882200    0.000000
      7          1           0       -0.245557   -0.865029    0.000000
      8          1           0       -0.245557   -2.629429    0.000000
      9          1           0       -0.491114   -2.612258    0.000000
     10          1           0       -0.491114   -4.376658    0.000000
 ---------------------------------------------------------------------

 SCF Done:  E(RHF) =  -1.13042042803     A.U. after    6 cycles
 E2 =    -0.7153544040D+00 EUMP2 =    -0.18457748320435D+01

 The electronic state is 1-AG.
 Alpha  occ. eigenvalues --   -0.87526  -0.85200  -0.81841  -0.78565  -0.20283
 Alpha virt. eigenvalues --   -0.14248   0.74775   0.88917   1.10415   1.32090

 Mulliken charges:
               1
     1  H    0.010661
     2  H    0.001116
     3  H   -0.012174
     4  H   -0.000153
     5  H    0.000550
     6  H    0.000550
     7  H   -0.000153
     8  H   -0.012174
     9  H    0.001116
    10  H    0.010661
 Sum of Mulliken charges =  -0.00000

 Dipole moment (field-independent basis, Debye):
    X=              0.0000    Y=             -0.0000    Z=              0.0000  Tot=              0.0000
 Quadrupole moment (field-independent basis, Debye-Ang):
   XX=            -12.5170   YY=            -16.0897   ZZ=            -12.6976
   XY=             -0.3990   XZ=              0.0000   YZ=              0.0000

 Normal termination of Gaussian 09 at Fri Feb 10 11:19:22 2017.
