 Gaussian 09, Revision E.01,
 Gaussian 09:  ES64L-G09RevE.01 30-Nov-2015

 ----------------------------------------------------------------------
 #rhf/gen scf(tight,novaracc,noincfock,fulldiag) stable(crhf) guess=rea
 d geom=nocrowd test
 ----------------------------------------------------------------------

 ----------------------------------------------------------------------
 hf stability analysis of h10 triangular lattice, y= 1.6682729945958346
 ----------------------------------------------------------------------
 Symbolic Z-matrix:
 Charge =  0 Multiplicity = 1

                         Standard orientation:
 ---------------------------------------------------------------------
 Center     Atomic      Atomic             Coordinates (Angstroms)
 Number     Number       Type             X           Y           Z
 ---------------------------------------------------------------------
      1          1           0        2.172546    3.662932    0.000000
      2          1           0        2.172546    1.898532    0.000000
      3          1           0        1.086273    2.272566    0.000000
      4          1           0        1.086273    0.508166    0.000000
      5          1           0       -0.000000    0.882200    0.000000
      6          1           0       -0.000000   -0.882200    0.000000
      7          1           0       -1.086273   -0.508166    0.000000
      8          1           0       -1.086273   -2.272566    0.000000
      9          1           0       -2.172546   -1.898532    0.000000
     10          1           0       -2.172546   -3.662932    0.000000
 ---------------------------------------------------------------------

 SCF Done:  E(RHF) =  -4.82626529196     A.U. after   11 cycles
 E2 =    -0.4071838620D+00 EUMP2 =    -0.52334491539815D+01

 The electronic state is 1-AG.
 Alpha  occ. eigenvalues --   -0.65801  -0.59872  -0.50687  -0.39416  -0.14224
 Alpha virt. eigenvalues --   -0.05813   0.05803   0.12886   0.22317   0.29943

 Mulliken charges:
               1
     1  H   -0.176261
     2  H    0.035173
     3  H    0.100333
     4  H    0.017462
     5  H    0.023293
     6  H    0.023293
     7  H    0.017462
     8  H    0.100333
     9  H    0.035173
    10  H   -0.176261
 Sum of Mulliken charges =   0.00000

 Dipole moment (field-independent basis, Debye):
    X=             -0.0000    Y=              0.0000    Z=             -0.0000  Tot=              0.0000
 Quadrupole moment (field-independent basis, Debye-Ang):
   XX=            -17.2162   YY=            -32.1706   ZZ=            -13.5879
   XY=            -12.4740   XZ=             -0.0000   YZ=             -0.0000

 Normal termination of Gaussian 09 at Fri Feb 10 11:18:53 2017.
