 Gaussian 09, Revision E.01,
 Gaussian 09:  ES64L-G09RevE.01 30-Nov-2015

 ----------------------------------------------------------------------
 #rhf/gen scf(tight,novaracc,noincfock,fulldiag) stable(crhf) guess=rea
 d geom=nocrowd test
 ----------------------------------------------------------------------

 ----------------------------------------------------------------------
 hf stability analysis of h10 triangular lattice, y= 1.7512484386240035
 ----------------------------------------------------------------------
 Symbolic Z-matrix:
 Charge =  0 Multiplicity = 1

                         Standard orientation:
 ---------------------------------------------------------------------
 Center     Atomic      Atomic             Coordinates (Angstroms)
 Number     Number       Type             X           Y           Z
 ---------------------------------------------------------------------
      1          1           0        0.853694    4.306180    0.000000
      2          1           0        0.853694    2.541780    0.000000
      3          1           0        0.426847    2.594190    0.000000
      4          1           0        0.426847    0.829790    0.000000
      5          1           0        0.000000    0.882200    0.000000
      6          1           0       -0.000000   -0.882200    0.000000
      7          1           0       -0.426847   -0.829790    0.000000
      8          1           0       -0.426847   -2.594190    0.000000
      9          1           0       -0.853694   -2.541780    0.000000
     10          1           0       -0.853694   -4.306180    0.000000
 ---------------------------------------------------------------------

 SCF Done:  E(RHF) =  -4.07991948815     A.U. after    7 cycles
 E2 =    -0.6968523834D+00 EUMP2 =    -0.47767718715604D+01

 The electronic state is 1-AG.
 Alpha  occ. eigenvalues --   -0.81564  -0.78337  -0.73323  -0.67860  -0.19595
 Alpha virt. eigenvalues --   -0.13456   0.51334   0.62396   0.79211   0.96097

 Mulliken charges:
               1
     1  H   -0.000450
     2  H    0.004209
     3  H   -0.005272
     4  H    0.000008
     5  H    0.001504
     6  H    0.001504
     7  H    0.000008
     8  H   -0.005272
     9  H    0.004209
    10  H   -0.000450
 Sum of Mulliken charges =   0.00000

 Dipole moment (field-independent basis, Debye):
    X=              0.0000    Y=              0.0000    Z=              0.0000  Tot=              0.0000
 Quadrupole moment (field-independent basis, Debye-Ang):
   XX=            -12.3735   YY=            -17.4507   ZZ=            -12.8436
   XY=             -0.9998   XZ=             -0.0000   YZ=              0.0000

 Normal termination of Gaussian 09 at Fri Feb 10 11:19:16 2017.
