 Gaussian 09, Revision E.01,
 Gaussian 09:  ES64L-G09RevE.01 30-Nov-2015

 ----------------------------------------------------------------------
 #rhf/gen scf(tight,novaracc,noincfock,fulldiag) stable(crhf) guess=rea
 d geom=nocrowd test
 ----------------------------------------------------------------------

 ----------------------------------------------------------------------
 hf stability analysis of h10 triangular lattice, y= 1.6780441364173624
 ----------------------------------------------------------------------
 Symbolic Z-matrix:
 Charge =  0 Multiplicity = 1

                         Standard orientation:
 ---------------------------------------------------------------------
 Center     Atomic      Atomic             Coordinates (Angstroms)
 Number     Number       Type             X           Y           Z
 ---------------------------------------------------------------------
      1          1           0        2.074177    3.737059    0.000000
      2          1           0        2.074177    1.972659    0.000000
      3          1           0        1.037088    2.309630    0.000000
      4          1           0        1.037088    0.545230    0.000000
      5          1           0        0.000000    0.882200    0.000000
      6          1           0       -0.000000   -0.882200    0.000000
      7          1           0       -1.037088   -0.545230    0.000000
      8          1           0       -1.037088   -2.309630    0.000000
      9          1           0       -2.074177   -1.972659    0.000000
     10          1           0       -2.074177   -3.737059    0.000000
 ---------------------------------------------------------------------

 SCF Done:  E(RHF) =  -4.86765616062     A.U. after    9 cycles
 E2 =    -0.4424072394D+00 EUMP2 =    -0.53100634000570D+01

 The electronic state is 1-AG.
 Alpha  occ. eigenvalues --   -0.66502  -0.60751  -0.51826  -0.40912  -0.14664
 Alpha virt. eigenvalues --   -0.06643   0.08087   0.15300   0.25033   0.33222

 Mulliken charges:
               1
     1  H   -0.154937
     2  H    0.032448
     3  H    0.085466
     4  H    0.015348
     5  H    0.021675
     6  H    0.021675
     7  H    0.015348
     8  H    0.085466
     9  H    0.032448
    10  H   -0.154937
 Sum of Mulliken charges =  -0.00000

 Dipole moment (field-independent basis, Debye):
    X=             -0.0000    Y=              0.0000    Z=             -0.0000  Tot=              0.0000
 Quadrupole moment (field-independent basis, Debye-Ang):
   XX=            -16.1137   YY=            -31.0920   ZZ=            -13.5326
   XY=            -10.9924   XZ=              0.0000   YZ=              0.0000

 Normal termination of Gaussian 09 at Fri Feb 10 11:18:55 2017.
