 Gaussian 09, Revision E.01,
 Gaussian 09:  ES64L-G09RevE.01 30-Nov-2015

 ----------------------------------------------------------------------
 #rhf/gen scf(tight,novaracc,noincfock,fulldiag) stable(crhf) guess=rea
 d geom=nocrowd test
 ----------------------------------------------------------------------

 hf stability analysis of h10 triangular lattice, y= -1.247619122922787
 3
 ----------------------------------------------------------------------
 Symbolic Z-matrix:
 Charge =  0 Multiplicity = 1

                         Standard orientation:
 ---------------------------------------------------------------------
 Center     Atomic      Atomic             Coordinates (Angstroms)
 Number     Number       Type             X           Y           Z
 ---------------------------------------------------------------------
      1          1           0        0.000000    0.882200    0.000000
      2          1           0       -0.000000   -0.882200   -0.000000
      3          1           0        1.764400    0.882200    0.000000
      4          1           0       -1.764400   -0.882200   -0.000000
      5          1           0        3.528800    0.882200    0.000000
      6          1           0       -3.528800   -0.882200   -0.000000
      7          1           0        5.293200    0.882200    0.000000
      8          1           0       -5.293200   -0.882200   -0.000000
      9          1           0        7.057600    0.882200    0.000000
     10          1           0       -7.057600   -0.882200   -0.000000
 ---------------------------------------------------------------------

 SCF Done:  E(RHF) =  -4.76169807706     A.U. after    9 cycles
 E2 =    -0.1760148357D+00 EUMP2 =    -0.49377129127423D+01

 The electronic state is 1-AG.
 Alpha  occ. eigenvalues --   -0.49864  -0.44961  -0.42305  -0.36876  -0.31294
 Alpha virt. eigenvalues --   -0.07765   0.00076   0.03565   0.13945   0.14332

 Mulliken charges:
               1
     1  H    0.049916
     2  H    0.049916
     3  H    0.001343
     4  H    0.001343
     5  H   -0.039303
     6  H   -0.039303
     7  H   -0.004656
     8  H   -0.004656
     9  H   -0.007301
    10  H   -0.007301
 Sum of Mulliken charges =  -0.00000

 Dipole moment (field-independent basis, Debye):
    X=              0.0000    Y=              0.0000    Z=              0.0000  Tot=              0.0000
 Quadrupole moment (field-independent basis, Debye-Ang):
   XX=            -19.0819   YY=            -13.6784   ZZ=            -14.6375
   XY=             -2.0545   XZ=             -0.0000   YZ=              0.0000

 Normal termination of Gaussian 09 at Fri Feb 10 11:20:59 2017.
