 Gaussian 09, Revision E.01,
 Gaussian 09:  ES64L-G09RevE.01 30-Nov-2015

 ----------------------------------------------------------------------
 #rhf/gen scf(tight,novaracc,noincfock,fulldiag) stable(crhf) guess=rea
 d geom=nocrowd test
 ----------------------------------------------------------------------

 hf stability analysis of h10 triangular lattice, y= -0.215026122358885
 24
 ----------------------------------------------------------------------
 Symbolic Z-matrix:
 Charge =  0 Multiplicity = 1

                         Standard orientation:
 ---------------------------------------------------------------------
 Center     Atomic      Atomic             Coordinates (Angstroms)
 Number     Number       Type             X           Y           Z
 ---------------------------------------------------------------------
      1          1           0       -1.162689    2.260265    0.000000
      2          1           0       -1.969780    3.829249    0.000000
      3          1           0        0.000000    0.933140    0.000000
      4          1           0       -1.566235    2.111617   -0.000000
      5          1           0        1.162689   -0.393986    0.000000
      6          1           0       -1.162689    0.393986   -0.000000
      7          1           0        2.325378   -1.721111    0.000000
      8          1           0       -0.759143   -1.323646   -0.000000
      9          1           0        3.488067   -3.048237    0.000000
     10          1           0       -0.355598   -3.041277   -0.000000
 ---------------------------------------------------------------------

 SCF Done:  E(RHF) =  -4.53781628071     A.U. after   13 cycles
 E2 =    -0.2768075907D+00 EUMP2 =    -0.48146238714333D+01

 The electronic state is 1-A'.
 Alpha  occ. eigenvalues --   -0.79518  -0.52964  -0.40280  -0.37195  -0.23928
 Alpha virt. eigenvalues --   -0.12349   0.02264   0.08148   0.19710   0.71788

 Mulliken charges:
               1
     1  H   -0.002900
     2  H    0.035715
     3  H    0.020980
     4  H    0.006661
     5  H   -0.038968
     6  H    0.034285
     7  H   -0.005779
     8  H    0.003744
     9  H   -0.038569
    10  H   -0.015169
 Sum of Mulliken charges =  -0.00000

 Dipole moment (field-independent basis, Debye):
    X=             -1.4794    Y=              1.7359    Z=             -0.0000  Tot=              2.2808
 Quadrupole moment (field-independent basis, Debye-Ang):
   XX=            -14.7785   YY=            -12.8867   ZZ=            -13.9606
   XY=              0.2956   XZ=             -0.0000   YZ=              0.0000

 Normal termination of Gaussian 09 at Fri Feb 10 11:22:18 2017.
