 Gaussian 09, Revision E.01,
 Gaussian 09:  ES64L-G09RevE.01 30-Nov-2015

 ----------------------------------------------------------------------
 #rhf/gen scf(tight,novaracc,noincfock,fulldiag) stable(crhf) guess=rea
 d geom=nocrowd test
 ----------------------------------------------------------------------

 hf stability analysis of h10 triangular lattice, y= -1.719178522451860
 1
 ----------------------------------------------------------------------
 Symbolic Z-matrix:
 Charge =  0 Multiplicity = 1

                         Standard orientation:
 ---------------------------------------------------------------------
 Center     Atomic      Atomic             Coordinates (Angstroms)
 Number     Number       Type             X           Y           Z
 ---------------------------------------------------------------------
      1          1           0       -2.998681    2.727953    0.000000
      2          1           0       -1.693538    1.540642    0.000000
      3          1           0       -2.346109    1.088668    0.000000
      4          1           0        0.000000    1.045630    0.000000
      5          1           0       -1.693538   -0.550618   -0.000000
      6          1           0        1.693538    0.550618    0.000000
      7          1           0       -1.040966   -2.189904   -0.000000
      8          1           0        3.387076    0.055606   -0.000000
      9          1           0       -0.388395   -3.829190   -0.000000
     10          1           0        5.080614   -0.439405   -0.000000
 ---------------------------------------------------------------------

 SCF Done:  E(RHF) =  -4.76148068862     A.U. after   12 cycles
 E2 =    -0.2190467552D+00 EUMP2 =    -0.49805274437749D+01

 The electronic state is 1-A'.
 Alpha  occ. eigenvalues --   -0.67968  -0.44809  -0.41355  -0.36181  -0.27078
 Alpha virt. eigenvalues --   -0.09170  -0.03099   0.10177   0.11788   0.37678

 Mulliken charges:
               1
     1  H    0.019482
     2  H    0.054285
     3  H    0.047075
     4  H   -0.012942
     5  H   -0.060852
     6  H   -0.003936
     7  H   -0.001797
     8  H   -0.009464
     9  H   -0.037535
    10  H    0.005684
 Sum of Mulliken charges =   0.00000

 Dipole moment (field-independent basis, Debye):
    X=             -0.7259    Y=              1.6834    Z=              0.0000  Tot=              1.8333
 Quadrupole moment (field-independent basis, Debye-Ang):
   XX=             -9.7286   YY=            -14.2308   ZZ=            -14.3300
   XY=             -3.6483   XZ=             -0.0000   YZ=              0.0000

 Normal termination of Gaussian 09 at Fri Feb 10 11:19:58 2017.
