 Gaussian 09, Revision E.01,
 Gaussian 09:  ES64L-G09RevE.01 30-Nov-2015

 ----------------------------------------------------------------------
 #rhf/gen scf(tight,novaracc,noincfock,fulldiag) stable(crhf) guess=rea
 d geom=nocrowd test
 ----------------------------------------------------------------------

 hf stability analysis of h10 triangular lattice, y= -0.908733069925013
 13
 ----------------------------------------------------------------------
 Symbolic Z-matrix:
 Charge =  0 Multiplicity = 1

                         Standard orientation:
 ---------------------------------------------------------------------
 Center     Atomic      Atomic             Coordinates (Angstroms)
 Number     Number       Type             X           Y           Z
 ---------------------------------------------------------------------
      1          1           0        0.000000    0.774471   -0.000000
      2          1           0        0.000000    2.538871   -0.000000
      3          1           0        1.557873   -0.053864    0.000000
      4          1           0       -1.557873    1.710536   -0.000000
      5          1           0        3.115745   -0.882200    0.000000
      6          1           0       -3.115745    0.882200   -0.000000
      7          1           0        4.673618   -1.710536    0.000000
      8          1           0       -4.673618    0.053864   -0.000000
      9          1           0        6.231491   -2.538871    0.000000
     10          1           0       -6.231491   -0.774471    0.000000
 ---------------------------------------------------------------------

 SCF Done:  E(RHF) =  -4.75517058563     A.U. after   11 cycles
 E2 =    -0.1748333309D+00 EUMP2 =    -0.49300039165302D+01

 The electronic state is 1-A'.
 Alpha  occ. eigenvalues --   -0.51874  -0.45765  -0.41116  -0.37205  -0.29934
 Alpha virt. eigenvalues --   -0.08347   0.00929   0.02533   0.12953   0.16187

 Mulliken charges:
               1
     1  H    0.089529
     2  H    0.068286
     3  H   -0.025318
     4  H    0.013760
     5  H    0.018460
     6  H   -0.128156
     7  H   -0.015805
     8  H    0.010547
     9  H    0.025366
    10  H   -0.056669
 Sum of Mulliken charges =   0.00000

 Dipole moment (field-independent basis, Debye):
    X=              3.7656    Y=              0.6982    Z=             -0.0000  Tot=              3.8298
 Quadrupole moment (field-independent basis, Debye-Ang):
   XX=            -22.6520   YY=             -9.9147   ZZ=            -14.6131
   XY=             -1.3957   XZ=              0.0000   YZ=             -0.0000

 Normal termination of Gaussian 09 at Fri Feb 10 11:21:28 2017.
