 Gaussian 09, Revision E.01,
 Gaussian 09:  ES64L-G09RevE.01 30-Nov-2015

 ----------------------------------------------------------------------
 #rhf/gen scf(tight,novaracc,noincfock,fulldiag) stable(crhf) guess=rea
 d geom=nocrowd test
 ----------------------------------------------------------------------

 hf stability analysis of h10 triangular lattice, y= -0.486334415509953
 04
 ----------------------------------------------------------------------
 Symbolic Z-matrix:
 Charge =  0 Multiplicity = 1

                         Standard orientation:
 ---------------------------------------------------------------------
 Center     Atomic      Atomic             Coordinates (Angstroms)
 Number     Number       Type             X           Y           Z
 ---------------------------------------------------------------------
      1          1           0       -1.763948    1.158552    0.000000
      2          1           0       -3.238703    2.127162    0.000000
      3          1           0       -0.000000    1.118624    0.000000
      4          1           0       -2.501325    0.524233    0.000000
      5          1           0        1.763948    1.078696   -0.000000
      6          1           0       -1.763948   -1.078696    0.000000
      7          1           0        3.527896    1.038769   -0.000000
      8          1           0       -1.026571   -2.681625   -0.000000
      9          1           0        5.291845    0.998841   -0.000000
     10          1           0       -0.289194   -4.284555   -0.000000
 ---------------------------------------------------------------------

 SCF Done:  E(RHF) =  -4.77007801074     A.U. after   12 cycles
 E2 =    -0.2069049819D+00 EUMP2 =    -0.49769829926327D+01

 The electronic state is 1-A'.
 Alpha  occ. eigenvalues --   -0.63198  -0.45769  -0.40428  -0.37200  -0.26897
 Alpha virt. eigenvalues --   -0.08256  -0.03828   0.09278   0.11790   0.28634

 Mulliken charges:
               1
     1  H    0.084382
     2  H   -0.006534
     3  H   -0.019697
     4  H    0.066767
     5  H    0.032584
     6  H   -0.112125
     7  H   -0.016645
     8  H    0.003654
     9  H    0.029936
    10  H   -0.062321
 Sum of Mulliken charges =   0.00000

 Dipole moment (field-independent basis, Debye):
    X=              0.3580    Y=              2.5109    Z=              0.0000  Tot=              2.5363
 Quadrupole moment (field-independent basis, Debye-Ang):
   XX=             -6.5066   YY=            -18.5183   ZZ=            -14.4237
   XY=             -2.1577   XZ=             -0.0000   YZ=             -0.0000

 Normal termination of Gaussian 09 at Fri Feb 10 11:21:59 2017.
