 Gaussian 09, Revision E.01,
 Gaussian 09:  ES64L-G09RevE.01 30-Nov-2015

 ----------------------------------------------------------------------
 #rhf/gen scf(tight,novaracc,noincfock,fulldiag) stable(crhf) guess=rea
 d geom=nocrowd test
 ----------------------------------------------------------------------

 hf stability analysis of h10 triangular lattice, y= -1.557872685367968
 5
 ----------------------------------------------------------------------
 Symbolic Z-matrix:
 Charge =  0 Multiplicity = 1

                         Standard orientation:
 ---------------------------------------------------------------------
 Center     Atomic      Atomic             Coordinates (Angstroms)
 Number     Number       Type             X           Y           Z
 ---------------------------------------------------------------------
      1          1           0        0.000000    2.855480   -0.000000
      2          1           0        0.000000    1.091080   -0.000000
      3          1           0        1.462754    1.868840   -0.000000
      4          1           0       -1.462754    0.104440    0.000000
      5          1           0        2.925508    0.882200   -0.000000
      6          1           0       -2.925508   -0.882200    0.000000
      7          1           0        4.388262   -0.104440   -0.000000
      8          1           0       -4.388262   -1.868840    0.000000
      9          1           0        5.851016   -1.091080    0.000000
     10          1           0       -5.851016   -2.855480    0.000000
 ---------------------------------------------------------------------

 SCF Done:  E(RHF) =  -4.75301734051     A.U. after   11 cycles
 E2 =    -0.1742328904D+00 EUMP2 =    -0.49272502308707D+01

 The electronic state is 1-A'.
 Alpha  occ. eigenvalues --   -0.53002  -0.46108  -0.40602  -0.37357  -0.29255
 Alpha virt. eigenvalues --   -0.08583   0.00118   0.03362   0.12715   0.17030

 Mulliken charges:
               1
     1  H    0.067253
     2  H    0.107310
     3  H    0.018667
     4  H   -0.032724
     5  H   -0.152017
     6  H    0.032883
     7  H    0.014031
     8  H   -0.018500
     9  H   -0.070253
    10  H    0.033349
 Sum of Mulliken charges =   0.00000

 Dipole moment (field-independent basis, Debye):
    X=             -4.4630    Y=              0.9222    Z=             -0.0000  Tot=              4.5573
 Quadrupole moment (field-independent basis, Debye-Ang):
   XX=            -23.0388   YY=             -8.3283   ZZ=            -14.6007
   XY=              3.0759   XZ=             -0.0000   YZ=             -0.0000

 Normal termination of Gaussian 09 at Fri Feb 10 11:20:27 2017.
