 Gaussian 09, Revision E.01,
 Gaussian 09:  ES64L-G09RevE.01 30-Nov-2015

 ----------------------------------------------------------------------
 #rhf/gen scf(tight,novaracc,noincfock,fulldiag) stable(crhf) guess=rea
 d geom=nocrowd test
 ----------------------------------------------------------------------

 hf stability analysis of h10 triangular lattice, y= -0.245556873375106
 95
 ----------------------------------------------------------------------
 Symbolic Z-matrix:
 Charge =  0 Multiplicity = 1

                         Standard orientation:
 ---------------------------------------------------------------------
 Center     Atomic      Atomic             Coordinates (Angstroms)
 Number     Number       Type             X           Y           Z
 ---------------------------------------------------------------------
      1          1           0       -1.287485    2.154526    0.000000
      2          1           0       -2.192557    3.669106    0.000000
      3          1           0        0.000000    0.948089    0.000000
      4          1           0       -1.740021    1.963726    0.000000
      5          1           0        1.287485   -0.258347   -0.000000
      6          1           0       -1.287485    0.258347    0.000000
      7          1           0        2.574971   -1.464783   -0.000000
      8          1           0       -0.834950   -1.447032   -0.000000
      9          1           0        3.862456   -2.671220   -0.000000
     10          1           0       -0.382414   -3.152412   -0.000000
 ---------------------------------------------------------------------

 SCF Done:  E(RHF) =  -4.61621335574     A.U. after   13 cycles
 E2 =    -0.2415474340D+00 EUMP2 =    -0.48577607897468D+01

 The electronic state is 1-A'.
 Alpha  occ. eigenvalues --   -0.77569  -0.49812  -0.40030  -0.36891  -0.24825
 Alpha virt. eigenvalues --   -0.11818   0.00502   0.08445   0.17000   0.63954

 Mulliken charges:
               1
     1  H    0.004811
     2  H    0.043798
     3  H    0.013260
     4  H    0.009756
     5  H   -0.052883
     6  H    0.028404
     7  H   -0.004333
     8  H    0.003727
     9  H   -0.039656
    10  H   -0.006885
 Sum of Mulliken charges =   0.00000

 Dipole moment (field-independent basis, Debye):
    X=             -1.8668    Y=              1.6926    Z=              0.0000  Tot=              2.5199
 Quadrupole moment (field-independent basis, Debye-Ang):
   XX=            -14.9302   YY=            -11.3804   ZZ=            -14.0603
   XY=             -0.4602   XZ=              0.0000   YZ=              0.0000

 Normal termination of Gaussian 09 at Fri Feb 10 11:22:16 2017.
