 Gaussian 09, Revision E.01,
 Gaussian 09:  ES64L-G09RevE.01 30-Nov-2015

 ----------------------------------------------------------------------
 #rhf/gen scf(tight,novaracc,noincfock,fulldiag) stable(crhf) guess=rea
 d geom=nocrowd test
 ----------------------------------------------------------------------

 hf stability analysis of h10 triangular lattice, y= -1.711989757880923
 6
 ----------------------------------------------------------------------
 Symbolic Z-matrix:
 Charge =  0 Multiplicity = 1

                         Standard orientation:
 ---------------------------------------------------------------------
 Center     Atomic      Atomic             Coordinates (Angstroms)
 Number     Number       Type             X           Y           Z
 ---------------------------------------------------------------------
      1          1           0       -3.098005    2.527040    0.000000
      2          1           0       -1.730773    1.411790    0.000000
      3          1           0       -2.414389    0.900456    0.000000
      4          1           0        0.000000    1.068959    0.000000
      5          1           0       -1.730773   -0.726128    0.000000
      6          1           0        1.730773    0.726128   -0.000000
      7          1           0       -1.047157   -2.352712   -0.000000
      8          1           0        3.461546    0.383297   -0.000000
      9          1           0       -0.363540   -3.979297   -0.000000
     10          1           0        5.192318    0.040466   -0.000000
 ---------------------------------------------------------------------

 SCF Done:  E(RHF) =  -4.76745304428     A.U. after   12 cycles
 E2 =    -0.2155164721D+00 EUMP2 =    -0.49829695163659D+01

 The electronic state is 1-A'.
 Alpha  occ. eigenvalues --   -0.66250  -0.45128  -0.41032  -0.36562  -0.26999
 Alpha virt. eigenvalues --   -0.08745  -0.03489   0.10189   0.11457   0.34259

 Mulliken charges:
               1
     1  H    0.008145
     2  H    0.064377
     3  H    0.054954
     4  H   -0.014441
     5  H   -0.079340
     6  H    0.010363
     7  H   -0.000245
     8  H   -0.012188
     9  H   -0.046902
    10  H    0.015277
 Sum of Mulliken charges =  -0.00000

 Dipole moment (field-independent basis, Debye):
    X=             -0.2864    Y=              1.8916    Z=              0.0000  Tot=              1.9131
 Quadrupole moment (field-independent basis, Debye-Ang):
   XX=             -8.5078   YY=            -15.8110   ZZ=            -14.3638
   XY=             -3.2968   XZ=             -0.0000   YZ=              0.0000

 Normal termination of Gaussian 09 at Fri Feb 10 11:20:00 2017.
