 Gaussian 09, Revision E.01,
 Gaussian 09:  ES64L-G09RevE.01 30-Nov-2015

 ----------------------------------------------------------------------
 #rhf/gen scf(tight,novaracc,noincfock,fulldiag) stable(crhf) guess=rea
 d geom=nocrowd test
 ----------------------------------------------------------------------

 ----------------------------------------------------------------------
 hf stability analysis of h10 triangular lattice, y= 1.7547344397120266
 ----------------------------------------------------------------------
 Symbolic Z-matrix:
 Charge =  0 Multiplicity = 1

                         Standard orientation:
 ---------------------------------------------------------------------
 Center     Atomic      Atomic             Coordinates (Angstroms)
 Number     Number       Type             X           Y           Z
 ---------------------------------------------------------------------
      1          1           0        0.733679    4.333887   -0.000000
      2          1           0        0.733679    2.569487    0.000000
      3          1           0        0.366839    2.608044   -0.000000
      4          1           0        0.366839    0.843644    0.000000
      5          1           0       -0.000000    0.882200   -0.000000
      6          1           0       -0.000000   -0.882200   -0.000000
      7          1           0       -0.366839   -0.843644   -0.000000
      8          1           0       -0.366839   -2.608044   -0.000000
      9          1           0       -0.733679   -2.569487   -0.000000
     10          1           0       -0.733679   -4.333887   -0.000000
 ---------------------------------------------------------------------

 SCF Done:  E(RHF) =  -3.51030972943     A.U. after    6 cycles
 E2 =    -0.7048889713D+00 EUMP2 =    -0.42151987007798D+01

 The electronic state is 1-AG.
 Alpha  occ. eigenvalues --   -0.83574  -0.80636  -0.76156  -0.71410  -0.19858
 Alpha virt. eigenvalues --   -0.13763   0.58151   0.70075   0.88205   1.06447

 Mulliken charges:
               1
     1  H    0.004187
     2  H    0.003043
     3  H   -0.008220
     4  H   -0.000093
     5  H    0.001082
     6  H    0.001082
     7  H   -0.000093
     8  H   -0.008220
     9  H    0.003043
    10  H    0.004187
 Sum of Mulliken charges =  -0.00000

 Dipole moment (field-independent basis, Debye):
    X=              0.0000    Y=             -0.0000    Z=              0.0000  Tot=              0.0000
 Quadrupole moment (field-independent basis, Debye-Ang):
   XX=            -12.4190   YY=            -16.8949   ZZ=            -12.7894
   XY=             -0.7503   XZ=              0.0000   YZ=              0.0000

 Normal termination of Gaussian 09 at Fri Feb 10 11:19:18 2017.
