 Gaussian 09, Revision E.01,
 Gaussian 09:  ES64L-G09RevE.01 30-Nov-2015

 ----------------------------------------------------------------------
 #rhf/gen scf(tight,novaracc,noincfock,fulldiag) stable(crhf) guess=rea
 d geom=nocrowd test
 ----------------------------------------------------------------------

 hf stability analysis of h10 triangular lattice, y= -1.371196264826492
 2
 ----------------------------------------------------------------------
 Symbolic Z-matrix:
 Charge =  0 Multiplicity = 1

                         Standard orientation:
 ---------------------------------------------------------------------
 Center     Atomic      Atomic             Coordinates (Angstroms)
 Number     Number       Type             X           Y           Z
 ---------------------------------------------------------------------
      1          1           0       -0.000000   -1.615879    0.000000
      2          1           0        0.000000    0.148521    0.000000
      3          1           0        1.725844   -1.249039    0.000000
      4          1           0       -1.725844    0.515361   -0.000000
      5          1           0        3.451687   -0.882200    0.000000
      6          1           0       -3.451687    0.882200   -0.000000
      7          1           0        5.177531   -0.515361    0.000000
      8          1           0       -5.177531    1.249039   -0.000000
      9          1           0        6.903375   -0.148521    0.000000
     10          1           0       -6.903375    1.615879   -0.000000
 ---------------------------------------------------------------------

 SCF Done:  E(RHF) =  -4.76046093276     A.U. after   10 cycles
 E2 =    -0.1758336710D+00 EUMP2 =    -0.49362946037313D+01

 The electronic state is 1-A'.
 Alpha  occ. eigenvalues --   -0.50193  -0.45113  -0.42089  -0.36936  -0.31060
 Alpha virt. eigenvalues --   -0.07863   0.00362   0.03230   0.13654   0.14738

 Mulliken charges:
               1
     1  H    0.053373
     2  H    0.057603
     3  H    0.007953
     4  H   -0.007900
     5  H   -0.070285
     6  H   -0.014461
     7  H    0.000918
     8  H   -0.009374
     9  H   -0.024578
    10  H    0.006751
 Sum of Mulliken charges =  -0.00000

 Dipole moment (field-independent basis, Debye):
    X=             -1.5770    Y=             -0.1925    Z=             -0.0000  Tot=              1.5887
 Quadrupole moment (field-independent basis, Debye-Ang):
   XX=            -19.9627   YY=            -13.0108   ZZ=            -14.6330
   XY=              1.4417   XZ=             -0.0000   YZ=              0.0000

 Normal termination of Gaussian 09 at Fri Feb 10 11:20:46 2017.
