 Gaussian 09, Revision E.01,
 Gaussian 09:  ES64L-G09RevE.01 30-Nov-2015

 ----------------------------------------------------------------------
 #rhf/gen scf(tight,novaracc,noincfock,fulldiag) stable(crhf) guess=rea
 d geom=nocrowd test
 ----------------------------------------------------------------------

 hf stability analysis of h10 triangular lattice, y= -1.757685918217806
 6
 ----------------------------------------------------------------------
 Symbolic Z-matrix:
 Charge =  0 Multiplicity = 1

                         Standard orientation:
 ---------------------------------------------------------------------
 Center     Atomic      Atomic             Coordinates (Angstroms)
 Number     Number       Type             X           Y           Z
 ---------------------------------------------------------------------
      1          1           0       -1.469319    4.102188   -0.000000
      2          1           0       -0.874361    2.441124   -0.000000
      3          1           0       -1.171840    2.363046   -0.000000
      4          1           0        0.000000    0.908610   -0.000000
      5          1           0       -0.874361    0.623905   -0.000000
      6          1           0        0.874361   -0.623905    0.000000
      7          1           0       -0.576881   -1.115237    0.000000
      8          1           0        1.748721   -2.156419    0.000000
      9          1           0       -0.279402   -2.854378    0.000000
     10          1           0        2.623082   -3.688934    0.000000
 ---------------------------------------------------------------------

 SCF Done:  E(RHF) =  -4.20887530601     A.U. after   16 cycles
 E2 =    -0.3223482934D+00 EUMP2 =    -0.45312235993962D+01

 The electronic state is 1-A'.
 Alpha  occ. eigenvalues --   -0.82933  -0.61088  -0.46151  -0.35236  -0.22405
 Alpha virt. eigenvalues --   -0.12512   0.02335   0.12197   0.31980   0.91540

 Mulliken charges:
               1
     1  H    0.011940
     2  H   -0.011440
     3  H    0.002702
     4  H    0.014753
     5  H    0.018611
     6  H   -0.000388
     7  H    0.013095
     8  H    0.005599
     9  H   -0.009776
    10  H   -0.045098
 Sum of Mulliken charges =  -0.00000

 Dipole moment (field-independent basis, Debye):
    X=             -0.6756    Y=              1.0581    Z=             -0.0000  Tot=              1.2554
 Quadrupole moment (field-independent basis, Debye-Ang):
   XX=            -14.2485   YY=            -16.5098   ZZ=            -13.6740
   XY=              1.9033   XZ=             -0.0000   YZ=              0.0000

 Normal termination of Gaussian 09 at Fri Feb 10 11:19:41 2017.
