 Gaussian 09, Revision E.01,
 Gaussian 09:  ES64L-G09RevE.01 30-Nov-2015

 ----------------------------------------------------------------------
 #rhf/gen scf(tight,novaracc,noincfock,fulldiag) stable(crhf) guess=rea
 d geom=nocrowd test
 ----------------------------------------------------------------------

 hf stability analysis of h10 triangular lattice, y= -1.678044088751875
 1
 ----------------------------------------------------------------------
 Symbolic Z-matrix:
 Charge =  0 Multiplicity = 1

                         Standard orientation:
 ---------------------------------------------------------------------
 Center     Atomic      Atomic             Coordinates (Angstroms)
 Number     Number       Type             X           Y           Z
 ---------------------------------------------------------------------
      1          1           0       -3.307788    1.739007    0.000000
      2          1           0       -1.746063    0.917959    0.000000
      3          1           0       -2.526926    0.156806    0.000000
      4          1           0        0.000000    1.171677    0.000000
      5          1           0       -1.746063   -1.425395    0.000000
      6          1           0        1.746063    1.425395    0.000000
      7          1           0       -0.965200   -3.007596    0.000000
      8          1           0        3.492125    1.679113    0.000000
      9          1           0       -0.184337   -4.589797    0.000000
     10          1           0        5.238188    1.932830    0.000000
 ---------------------------------------------------------------------

 SCF Done:  E(RHF) =  -4.76630638679     A.U. after   12 cycles
 E2 =    -0.1969757559D+00 EUMP2 =    -0.49632821426801D+01

 The electronic state is 1-A'.
 Alpha  occ. eigenvalues --   -0.60606  -0.46238  -0.40012  -0.37599  -0.26973
 Alpha virt. eigenvalues --   -0.08195  -0.03623   0.08194   0.12235   0.24448

 Mulliken charges:
               1
     1  H   -0.008857
     2  H    0.102223
     3  H    0.071082
     4  H   -0.026386
     5  H   -0.138811
     6  H    0.046893
     7  H    0.007782
     8  H   -0.019717
     9  H   -0.073507
    10  H    0.039298
 Sum of Mulliken charges =   0.00000

 Dipole moment (field-independent basis, Debye):
    X=              0.6651    Y=              3.2671    Z=              0.0000  Tot=              3.3341
 Quadrupole moment (field-independent basis, Debye-Ang):
   XX=             -5.1991   YY=            -20.5250   ZZ=            -14.4744
   XY=             -0.8291   XZ=              0.0000   YZ=              0.0000

 Normal termination of Gaussian 09 at Fri Feb 10 11:20:09 2017.
