 Gaussian 09, Revision E.01,
 Gaussian 09:  ES64L-G09RevE.01 30-Nov-2015

 ----------------------------------------------------------------------
 #rhf/gen scf(tight,novaracc,noincfock,fulldiag) stable(crhf) guess=rea
 d geom=nocrowd test
 ----------------------------------------------------------------------

 hf stability analysis of h10 triangular lattice, y= -0.745667540634670
 33
 ----------------------------------------------------------------------
 Symbolic Z-matrix:
 Charge =  0 Multiplicity = 1

                         Standard orientation:
 ---------------------------------------------------------------------
 Center     Atomic      Atomic             Coordinates (Angstroms)
 Number     Number       Type             X           Y           Z
 ---------------------------------------------------------------------
      1          1           0       -1.362600    0.253983    0.000000
      2          1           0       -3.097126    0.577292    0.000000
      3          1           0       -0.000000    1.374888    0.000000
      4          1           0       -2.229863   -0.959251    0.000000
      5          1           0        1.362600    2.495793    0.000000
      6          1           0       -1.362600   -2.495793    0.000000
      7          1           0        2.725201    3.616698    0.000000
      8          1           0       -0.495338   -4.032335    0.000000
      9          1           0        4.087801    4.737603    0.000000
     10          1           0        0.371925   -5.568878    0.000000
 ---------------------------------------------------------------------

 SCF Done:  E(RHF) =  -4.75261056380     A.U. after   11 cycles
 E2 =    -0.1745705159D+00 EUMP2 =    -0.49271810797039D+01

 The electronic state is 1-A'.
 Alpha  occ. eigenvalues --   -0.54508  -0.46420  -0.40142  -0.37529  -0.28485
 Alpha virt. eigenvalues --   -0.08685  -0.01034   0.04617   0.12603   0.18062

 Mulliken charges:
               1
     1  H    0.121388
     2  H    0.050876
     3  H   -0.037713
     4  H    0.031916
     5  H    0.046602
     6  H   -0.168234
     7  H   -0.020867
     8  H    0.015665
     9  H    0.040764
    10  H   -0.080397
 Sum of Mulliken charges =  -0.00000

 Dipole moment (field-independent basis, Debye):
    X=             -0.1407    Y=              4.8807    Z=              0.0000  Tot=              4.8827
 Quadrupole moment (field-independent basis, Debye-Ang):
   XX=             -5.9336   YY=            -23.5221   ZZ=            -14.5815
   XY=              1.8081   XZ=              0.0000   YZ=              0.0000

 Normal termination of Gaussian 09 at Fri Feb 10 11:21:40 2017.
