 Gaussian 09, Revision E.01,
 Gaussian 09:  ES64L-G09RevE.01 30-Nov-2015

 ----------------------------------------------------------------------
 #rhf/gen scf(tight,novaracc,noincfock,fulldiag) stable(crhf) guess=rea
 d geom=nocrowd test
 ----------------------------------------------------------------------

 hf stability analysis of h10 triangular lattice, y= -1.037088199312947
 0
 ----------------------------------------------------------------------
 Symbolic Z-matrix:
 Charge =  0 Multiplicity = 1

                         Standard orientation:
 ---------------------------------------------------------------------
 Center     Atomic      Atomic             Coordinates (Angstroms)
 Number     Number       Type             X           Y           Z
 ---------------------------------------------------------------------
      1          1           0        0.000000    0.208259    0.000000
      2          1           0        0.000000    1.972659    0.000000
      3          1           0        1.678044   -0.336970    0.000000
      4          1           0       -1.678044    1.427430    0.000000
      5          1           0        3.356088   -0.882200    0.000000
      6          1           0       -3.356088    0.882200    0.000000
      7          1           0        5.034132   -1.427430    0.000000
      8          1           0       -5.034132    0.336970    0.000000
      9          1           0        6.712176   -1.972659    0.000000
     10          1           0       -6.712176   -0.208259    0.000000
 ---------------------------------------------------------------------

 SCF Done:  E(RHF) =  -4.75890413674     A.U. after   11 cycles
 E2 =    -0.1755849602D+00 EUMP2 =    -0.49344890969575D+01

 The electronic state is 1-A'.
 Alpha  occ. eigenvalues --   -0.50630  -0.45300  -0.41815  -0.37011  -0.30757
 Alpha virt. eigenvalues --   -0.07995   0.00708   0.02831   0.13412   0.15152

 Mulliken charges:
               1
     1  H    0.066345
     2  H    0.058603
     3  H   -0.013683
     4  H    0.010306
     5  H   -0.002709
     6  H   -0.089601
     7  H   -0.011674
     8  H    0.004248
     9  H    0.013431
    10  H   -0.035265
 Sum of Mulliken charges =   0.00000

 Dipole moment (field-independent basis, Debye):
    X=              2.3923    Y=              0.3412    Z=              0.0000  Tot=              2.4165
 Quadrupole moment (field-independent basis, Debye-Ang):
   XX=            -20.9360   YY=            -12.1490   ZZ=            -14.6274
   XY=              0.6622   XZ=              0.0000   YZ=              0.0000

 Normal termination of Gaussian 09 at Fri Feb 10 11:21:18 2017.
