 Gaussian 09, Revision E.01,
 Gaussian 09:  ES64L-G09RevE.01 30-Nov-2015

 ----------------------------------------------------------------------
 #rhf/gen scf(tight,novaracc,noincfock,fulldiag) stable(crhf) guess=rea
 d geom=nocrowd test
 ----------------------------------------------------------------------

 hf stability analysis of h10 triangular lattice, y= -0.882199888680548
 77
 ----------------------------------------------------------------------
 Symbolic Z-matrix:
 Charge =  0 Multiplicity = 1

                         Standard orientation:
 ---------------------------------------------------------------------
 Center     Atomic      Atomic             Coordinates (Angstroms)
 Number     Number       Type             X           Y           Z
 ---------------------------------------------------------------------
      1          1           0        0.000000    0.882200    0.000000
      2          1           0        0.000000    2.646600    0.000000
      3          1           0       -1.528015    0.000000   -0.000000
      4          1           0        1.528015    1.764400    0.000000
      5          1           0       -3.056030   -0.882200   -0.000000
      6          1           0        3.056030    0.882200    0.000000
      7          1           0       -4.584046   -1.764400   -0.000000
      8          1           0        4.584046    0.000000    0.000000
      9          1           0       -6.112061   -2.646600   -0.000000
     10          1           0        6.112061   -0.882200    0.000000
 ---------------------------------------------------------------------

 SCF Done:  E(RHF) =  -4.75437539262     A.U. after   11 cycles
 E2 =    -0.1746285135D+00 EUMP2 =    -0.49290039061532D+01

 The electronic state is 1-A'.
 Alpha  occ. eigenvalues --   -0.52214  -0.45876  -0.40947  -0.37253  -0.29721
 Alpha virt. eigenvalues --   -0.08430   0.00721   0.02739   0.12866   0.16450

 Mulliken charges:
               1
     1  H    0.095352
     2  H    0.069090
     3  H   -0.027851
     4  H    0.014863
     5  H    0.023147
     6  H   -0.136387
     7  H   -0.016697
     8  H    0.011805
     9  H    0.027976
    10  H   -0.061299
 Sum of Mulliken charges =  -0.00000

 Dipole moment (field-independent basis, Debye):
    X=             -4.0216    Y=              0.7779    Z=             -0.0000  Tot=              4.0961
 Quadrupole moment (field-independent basis, Debye-Ang):
   XX=            -22.8777   YY=             -9.3809   ZZ=            -14.6094
   XY=              1.9238   XZ=             -0.0000   YZ=              0.0000

 Normal termination of Gaussian 09 at Fri Feb 10 11:21:30 2017.
