 Gaussian 09, Revision E.01,
 Gaussian 09:  ES64L-G09RevE.01 30-Nov-2015

 ----------------------------------------------------------------------
 #rhf/gen scf(tight,novaracc,noincfock,fulldiag) stable(crhf) guess=rea
 d geom=nocrowd test
 ----------------------------------------------------------------------

 hf stability analysis of h10 triangular lattice, y= -1.647209270423678
 0
 ----------------------------------------------------------------------
 Symbolic Z-matrix:
 Charge =  0 Multiplicity = 1

                         Standard orientation:
 ---------------------------------------------------------------------
 Center     Atomic      Atomic             Coordinates (Angstroms)
 Number     Number       Type             X           Y           Z
 ---------------------------------------------------------------------
      1          1           0       -3.293886    1.196913    0.000000
      2          1           0       -1.635575    0.594326    0.000000
      3          1           0       -2.464731   -0.360523    0.000000
      4          1           0        0.000000    1.256143    0.000000
      5          1           0       -1.635575   -1.917960   -0.000000
      6          1           0        1.635575    1.917960    0.000000
      7          1           0       -0.806420   -3.475396   -0.000000
      8          1           0        3.271150    2.579777   -0.000000
      9          1           0        0.022736   -5.032833   -0.000000
     10          1           0        4.906725    3.241593   -0.000000
 ---------------------------------------------------------------------

 SCF Done:  E(RHF) =  -4.75820165589     A.U. after   12 cycles
 E2 =    -0.1829424000D+00 EUMP2 =    -0.49411440558936D+01

 The electronic state is 1-A'.
 Alpha  occ. eigenvalues --   -0.57457  -0.46552  -0.39827  -0.37735  -0.27467
 Alpha virt. eigenvalues --   -0.08452  -0.02684   0.06609   0.12563   0.20490

 Mulliken charges:
               1
     1  H    0.009976
     2  H    0.120134
     3  H    0.060670
     4  H   -0.035077
     5  H   -0.164222
     6  H    0.054935
     7  H    0.012936
     8  H   -0.021825
     9  H   -0.082337
    10  H    0.044810
 Sum of Mulliken charges =  -0.00000

 Dipole moment (field-independent basis, Debye):
    X=              0.5559    Y=              4.3043    Z=              0.0000  Tot=              4.3400
 Quadrupole moment (field-independent basis, Debye-Ang):
   XX=             -4.5900   YY=            -22.3884   ZZ=            -14.5335
   XY=              0.7862   XZ=             -0.0000   YZ=             -0.0000

 Normal termination of Gaussian 09 at Fri Feb 10 11:20:15 2017.
