 Gaussian 09, Revision E.01,
 Gaussian 09:  ES64L-G09RevE.01 30-Nov-2015

 ----------------------------------------------------------------------
 #rhf/gen scf(tight,novaracc,noincfock,fulldiag) stable(crhf) guess=rea
 d geom=nocrowd test
 ----------------------------------------------------------------------

 hf stability analysis of h10 triangular lattice, y= -1.462753833596134
 1
 ----------------------------------------------------------------------
 Symbolic Z-matrix:
 Charge =  0 Multiplicity = 1

                         Standard orientation:
 ---------------------------------------------------------------------
 Center     Atomic      Atomic             Coordinates (Angstroms)
 Number     Number       Type             X           Y           Z
 ---------------------------------------------------------------------
      1          1           0        0.000000    2.204112    0.000000
      2          1           0        0.000000    0.439712    0.000000
      3          1           0        1.635923    1.543156    0.000000
      4          1           0       -1.635923   -0.221244   -0.000000
      5          1           0        3.271846    0.882200    0.000000
      6          1           0       -3.271846   -0.882200   -0.000000
      7          1           0        4.907770    0.221244    0.000000
      8          1           0       -4.907770   -1.543156   -0.000000
      9          1           0        6.543693   -0.439712    0.000000
     10          1           0       -6.543693   -2.204112   -0.000000
 ---------------------------------------------------------------------

 SCF Done:  E(RHF) =  -4.75754035595     A.U. after   11 cycles
 E2 =    -0.1753414850D+00 EUMP2 =    -0.49328818409749D+01

 The electronic state is 1-A'.
 Alpha  occ. eigenvalues --   -0.51042  -0.45464  -0.41570  -0.37079  -0.30477
 Alpha virt. eigenvalues --   -0.08117   0.00959   0.02542   0.13232   0.15510

 Mulliken charges:
               1
     1  H    0.062823
     2  H    0.074292
     3  H    0.011605
     4  H   -0.018048
     5  H   -0.104167
     6  H    0.005377
     7  H    0.006689
     8  H   -0.013264
     9  H   -0.043321
    10  H    0.018013
 Sum of Mulliken charges =   0.00000

 Dipole moment (field-independent basis, Debye):
    X=             -2.9459    Y=              0.4692    Z=             -0.0000  Tot=              2.9831
 Quadrupole moment (field-independent basis, Debye-Ang):
   XX=            -21.6686   YY=            -11.3674   ZZ=            -14.6224
   XY=              0.0437   XZ=             -0.0000   YZ=              0.0000

 Normal termination of Gaussian 09 at Fri Feb 10 11:20:36 2017.
