 Gaussian 09, Revision E.01,
 Gaussian 09:  ES64L-G09RevE.01 30-Nov-2015

 ----------------------------------------------------------------------
 #rhf/gen scf(tight,novaracc,noincfock,fulldiag) stable(crhf) guess=rea
 d geom=nocrowd test
 ----------------------------------------------------------------------

 hf stability analysis of h10 triangular lattice, y= -1.180613953977208
 7
 ----------------------------------------------------------------------
 Symbolic Z-matrix:
 Charge =  0 Multiplicity = 1

                         Standard orientation:
 ---------------------------------------------------------------------
 Center     Atomic      Atomic             Coordinates (Angstroms)
 Number     Number       Type             X           Y           Z
 ---------------------------------------------------------------------
      1          1           0       -0.000000    0.513340    0.000000
      2          1           0        0.000000   -1.251060    0.000000
      3          1           0        1.754734    0.697770    0.000000
      4          1           0       -1.754734   -1.066630    0.000000
      5          1           0        3.509469    0.882200    0.000000
      6          1           0       -3.509469   -0.882200    0.000000
      7          1           0        5.264203    1.066630    0.000000
      8          1           0       -5.264203   -0.697770    0.000000
      9          1           0        7.018938    1.251060    0.000000
     10          1           0       -7.018938   -0.513340    0.000000
 ---------------------------------------------------------------------

 SCF Done:  E(RHF) =  -4.76139051947     A.U. after   10 cycles
 E2 =    -0.1759709271D+00 EUMP2 =    -0.49373614465666D+01

 The electronic state is 1-A'.
 Alpha  occ. eigenvalues --   -0.49944  -0.44999  -0.42251  -0.36891  -0.31236
 Alpha virt. eigenvalues --   -0.07789   0.00148   0.03481   0.13849   0.14455

 Mulliken charges:
               1
     1  H    0.052254
     2  H    0.050352
     3  H   -0.002928
     4  H    0.004968
     5  H   -0.026432
     6  H   -0.053711
     7  H   -0.007071
     8  H   -0.002025
     9  H   -0.000042
    10  H   -0.015366
 Sum of Mulliken charges =  -0.00000

 Dipole moment (field-independent basis, Debye):
    X=              0.7823    Y=             -0.0852    Z=              0.0000  Tot=              0.7869
 Quadrupole moment (field-independent basis, Debye-Ang):
   XX=            -19.3101   YY=            -13.5136   ZZ=            -14.6364
   XY=             -1.9021   XZ=              0.0000   YZ=              0.0000

 Normal termination of Gaussian 09 at Fri Feb 10 11:21:05 2017.
