 Gaussian 09, Revision E.01,
 Gaussian 09:  ES64L-G09RevE.01 30-Nov-2015

 ----------------------------------------------------------------------
 #rhf/gen scf(tight,novaracc,noincfock,fulldiag) stable(crhf) guess=rea
 d geom=nocrowd test
 ----------------------------------------------------------------------

 ----------------------------------------------------------------------
 hf stability analysis of h10 triangular lattice, y= 1.7426773190044791
 ----------------------------------------------------------------------
 Symbolic Z-matrix:
 Charge =  0 Multiplicity = 1

                         Standard orientation:
 ---------------------------------------------------------------------
 Center     Atomic      Atomic             Coordinates (Angstroms)
 Number     Number       Type             X           Y           Z
 ---------------------------------------------------------------------
      1          1           0        1.090459    4.238288    0.000000
      2          1           0        1.090459    2.473888    0.000000
      3          1           0        0.545230    2.560244    0.000000
      4          1           0        0.545230    0.795844    0.000000
      5          1           0        0.000000    0.882200    0.000000
      6          1           0       -0.000000   -0.882200    0.000000
      7          1           0       -0.545230   -0.795844    0.000000
      8          1           0       -0.545230   -2.560244    0.000000
      9          1           0       -1.090459   -2.473888    0.000000
     10          1           0       -1.090459   -4.238288    0.000000
 ---------------------------------------------------------------------

 SCF Done:  E(RHF) =  -4.68485017869     A.U. after    7 cycles
 E2 =    -0.6736589894D+00 EUMP2 =    -0.53585091681038D+01

 The electronic state is 1-AG.
 Alpha  occ. eigenvalues --   -0.77720  -0.73964  -0.67981  -0.61183  -0.18961
 Alpha virt. eigenvalues --   -0.12697   0.39880   0.49584   0.64291   0.78951

 Mulliken charges:
               1
     1  H   -0.013417
     2  H    0.007136
     3  H    0.002947
     4  H    0.000493
     5  H    0.002841
     6  H    0.002841
     7  H    0.000493
     8  H    0.002947
     9  H    0.007136
    10  H   -0.013417
 Sum of Mulliken charges =   0.00000

 Dipole moment (field-independent basis, Debye):
    X=              0.0000    Y=             -0.0000    Z=             -0.0000  Tot=              0.0000
 Quadrupole moment (field-independent basis, Debye-Ang):
   XX=            -12.3341   YY=            -18.9337   ZZ=            -12.9636
   XY=             -1.7161   XZ=              0.0000   YZ=              0.0000

 Normal termination of Gaussian 09 at Fri Feb 10 11:19:12 2017.
