 Gaussian 09, Revision E.01,
 Gaussian 09:  ES64L-G09RevE.01 30-Nov-2015

 ----------------------------------------------------------------------
 #rhf/gen scf(tight,novaracc,noincfock,fulldiag) stable(crhf) guess=rea
 d geom=nocrowd test
 ----------------------------------------------------------------------

 hf stability analysis of h10 triangular lattice, y= -3.079287254948944
 24E-002
 ----------------------------------------------------------------------
 Symbolic Z-matrix:
 Charge =  0 Multiplicity = 1

                         Standard orientation:
 ---------------------------------------------------------------------
 Center     Atomic      Atomic             Coordinates (Angstroms)
 Number     Number       Type             X           Y           Z
 ---------------------------------------------------------------------
      1          1           0       -0.184356    2.638016   -0.000000
      2          1           0       -0.307359    4.398124   -0.000000
      3          1           0        0.000000    0.883274   -0.000000
      4          1           0       -0.245857    2.634796    0.000000
      5          1           0        0.184356   -0.871468   -0.000000
      6          1           0       -0.184356    0.871468    0.000000
      7          1           0        0.368711   -2.626210   -0.000000
      8          1           0       -0.122854   -0.891860    0.000000
      9          1           0        0.553067   -4.380953   -0.000000
     10          1           0       -0.061352   -2.655187    0.000000
 ---------------------------------------------------------------------

 SCF Done:  E(RHF) =   4.72696702638     A.U. after   11 cycles
 E2 =    -0.7113690623D+00 EUMP2 =     0.40155979640733D+01

 The electronic state is 1-A'.
 Alpha  occ. eigenvalues --   -0.89925  -0.86179  -0.81419  -0.73477  -0.20211
 Alpha virt. eigenvalues --   -0.14175   0.61594   0.87915   1.16153   1.59545

 Mulliken charges:
               1
     1  H   -0.014524
     2  H   -0.000769
     3  H   -0.000020
     4  H   -0.000750
     5  H   -0.000049
     6  H    0.000289
     7  H   -0.010718
     8  H    0.000640
     9  H    0.017523
    10  H    0.008378
 Sum of Mulliken charges =  -0.00000

 Dipole moment (field-independent basis, Debye):
    X=              0.0393    Y=             -0.5516    Z=             -0.0000  Tot=              0.5530
 Quadrupole moment (field-independent basis, Debye-Ang):
   XX=            -12.4664   YY=            -16.3622   ZZ=            -12.7232
   XY=              0.3143   XZ=             -0.0000   YZ=             -0.0000

 Normal termination of Gaussian 09 at Fri Feb 10 11:22:31 2017.
