 Gaussian 09, Revision E.01,
 Gaussian 09:  ES64L-G09RevE.01 30-Nov-2015

 ----------------------------------------------------------------------
 #rhf/gen scf(tight,novaracc,noincfock,fulldiag) stable(crhf) guess=rea
 d geom=nocrowd test
 ----------------------------------------------------------------------

 ----------------------------------------------------------------------
 hf stability analysis of h10 triangular lattice, y= 1.2904004986050732
 ----------------------------------------------------------------------
 Symbolic Z-matrix:
 Charge =  0 Multiplicity = 1

                         Standard orientation:
 ---------------------------------------------------------------------
 Center     Atomic      Atomic             Coordinates (Angstroms)
 Number     Number       Type             X           Y           Z
 ---------------------------------------------------------------------
      1          1           0        3.520204    1.128357    0.000000
      2          1           0        3.520204   -0.636043   -0.000000
      3          1           0        1.760102    1.005278    0.000000
      4          1           0        1.760102   -0.759122   -0.000000
      5          1           0        0.000000    0.882200    0.000000
      6          1           0       -0.000000   -0.882200    0.000000
      7          1           0       -1.760102    0.759122   -0.000000
      8          1           0       -1.760102   -1.005278    0.000000
      9          1           0       -3.520204    0.636043    0.000000
     10          1           0       -3.520204   -1.128357    0.000000
 ---------------------------------------------------------------------

 SCF Done:  E(RHF) =  -4.70851117357     A.U. after   10 cycles
 E2 =    -0.1794675780D+00 EUMP2 =    -0.48879787516043D+01

 The electronic state is 1-AG.
 Alpha  occ. eigenvalues --   -0.54537  -0.48178  -0.37544  -0.35975  -0.29100
 Alpha virt. eigenvalues --   -0.07275  -0.02433   0.05544   0.11688   0.22548

 Mulliken charges:
               1
     1  H    0.014306
     2  H   -0.007744
     3  H    0.010533
     4  H   -0.002315
     5  H   -0.014780
     6  H   -0.014780
     7  H   -0.002315
     8  H    0.010533
     9  H   -0.007744
    10  H    0.014306
 Sum of Mulliken charges =  -0.00000

 Dipole moment (field-independent basis, Debye):
    X=              0.0000    Y=              0.0000    Z=              0.0000  Tot=              0.0000
 Quadrupole moment (field-independent basis, Debye-Ang):
   XX=             -7.8556   YY=            -15.7118   ZZ=            -14.3634
   XY=              1.4808   XZ=             -0.0000   YZ=              0.0000

 Normal termination of Gaussian 09 at Fri Feb 10 11:18:05 2017.
