 Gaussian 09, Revision E.01,
 Gaussian 09:  ES64L-G09RevE.01 30-Nov-2015

 ----------------------------------------------------------------------
 #rhf/gen scf(tight,novaracc,noincfock,fulldiag) stable(crhf) guess=rea
 d geom=nocrowd test
 ----------------------------------------------------------------------

 hf stability analysis of h10 triangular lattice, y= -1.061842328983026
 8
 ----------------------------------------------------------------------
 Symbolic Z-matrix:
 Charge =  0 Multiplicity = 1

                         Standard orientation:
 ---------------------------------------------------------------------
 Center     Atomic      Atomic             Coordinates (Angstroms)
 Number     Number       Type             X           Y           Z
 ---------------------------------------------------------------------
      1          1           0        0.000000    0.090469    0.000000
      2          1           0        0.000000    1.854869    0.000000
      3          1           0        1.696050   -0.395865    0.000000
      4          1           0       -1.696050    1.368535    0.000000
      5          1           0        3.392100   -0.882200    0.000000
      6          1           0       -3.392100    0.882200    0.000000
      7          1           0        5.088150   -1.368535    0.000000
      8          1           0       -5.088150    0.395865    0.000000
      9          1           0        6.784201   -1.854869    0.000000
     10          1           0       -6.784201   -0.090469    0.000000
 ---------------------------------------------------------------------

 SCF Done:  E(RHF) =  -4.75949162493     A.U. after   10 cycles
 E2 =    -0.1756819794D+00 EUMP2 =    -0.49351736043685D+01

 The electronic state is 1-A'.
 Alpha  occ. eigenvalues --   -0.50461  -0.45229  -0.41919  -0.36983  -0.30873
 Alpha virt. eigenvalues --   -0.07944   0.00581   0.02976   0.13497   0.14998

 Mulliken charges:
               1
     1  H    0.063025
     2  H    0.056658
     3  H   -0.011657
     4  H    0.009587
     5  H   -0.006647
     6  H   -0.082830
     7  H   -0.010901
     8  H    0.003093
     9  H    0.011193
    10  H   -0.031521
 Sum of Mulliken charges =  -0.00000

 Dipole moment (field-independent basis, Debye):
    X=              2.1181    Y=              0.2860    Z=              0.0000  Tot=              2.1373
 Quadrupole moment (field-independent basis, Debye-Ang):
   XX=            -20.5859   YY=            -12.4775   ZZ=            -14.6295
   XY=              0.9585   XZ=              0.0000   YZ=              0.0000

 Normal termination of Gaussian 09 at Fri Feb 10 11:21:15 2017.
