 Gaussian 09, Revision E.01,
 Gaussian 09:  ES64L-G09RevE.01 30-Nov-2015

 ----------------------------------------------------------------------
 #rhf/gen scf(tight,novaracc,noincfock,fulldiag) stable(crhf) guess=rea
 d geom=nocrowd test
 ----------------------------------------------------------------------

 hf stability analysis of h10 triangular lattice, y= -0.855397980788974
 55
 ----------------------------------------------------------------------
 Symbolic Z-matrix:
 Charge =  0 Multiplicity = 1

                         Standard orientation:
 ---------------------------------------------------------------------
 Center     Atomic      Atomic             Coordinates (Angstroms)
 Number     Number       Type             X           Y           Z
 ---------------------------------------------------------------------
      1          1           0        0.000000    0.987779    0.000000
      2          1           0        0.000000    2.752179    0.000000
      3          1           0        1.496296    0.052790    0.000000
      4          1           0       -1.496296    1.817190    0.000000
      5          1           0        2.992592   -0.882200    0.000000
      6          1           0       -2.992592    0.882200    0.000000
      7          1           0        4.488888   -1.817190    0.000000
      8          1           0       -4.488888   -0.052790    0.000000
      9          1           0        5.985184   -2.752179    0.000000
     10          1           0       -5.985184   -0.987779    0.000000
 ---------------------------------------------------------------------

 SCF Done:  E(RHF) =  -4.75363881102     A.U. after   11 cycles
 E2 =    -0.1744194744D+00 EUMP2 =    -0.49280582853948D+01

 The electronic state is 1-A'.
 Alpha  occ. eigenvalues --   -0.52590  -0.45992  -0.40774  -0.37304  -0.29494
 Alpha virt. eigenvalues --   -0.08510   0.00443   0.03022   0.12785   0.16731

 Mulliken charges:
               1
     1  H    0.101356
     2  H    0.068874
     3  H   -0.030351
     4  H    0.016419
     5  H    0.027977
     6  H   -0.144437
     7  H   -0.017600
     8  H    0.012986
     9  H    0.030651
    10  H   -0.065875
 Sum of Mulliken charges =  -0.00000

 Dipole moment (field-independent basis, Debye):
    X=              4.2576    Y=              0.8541    Z=              0.0000  Tot=              4.3424
 Quadrupole moment (field-independent basis, Debye-Ang):
   XX=            -23.0147   YY=             -8.8448   ZZ=            -14.6053
   XY=             -2.4863   XZ=              0.0000   YZ=              0.0000

 Normal termination of Gaussian 09 at Fri Feb 10 11:21:32 2017.
