 Gaussian 09, Revision E.01,
 Gaussian 09:  ES64L-G09RevE.01 30-Nov-2015

 ----------------------------------------------------------------------
 #rhf/gen scf(tight,novaracc,noincfock,fulldiag) stable(crhf) guess=rea
 d geom=nocrowd test
 ----------------------------------------------------------------------

 hf stability analysis of h10 triangular lattice, y= -0.603460212042550
 63
 ----------------------------------------------------------------------
 Symbolic Z-matrix:
 Charge =  0 Multiplicity = 1

                         Standard orientation:
 ---------------------------------------------------------------------
 Center     Atomic      Atomic             Coordinates (Angstroms)
 Number     Number       Type             X           Y           Z
 ---------------------------------------------------------------------
      1          1           0       -1.682592    0.696411   -0.000000
      2          1           0       -3.312871    1.371170   -0.000000
      3          1           0        0.000000    1.227439   -0.000000
      4          1           0       -2.497732   -0.193648   -0.000000
      5          1           0        1.682592    1.758466    0.000000
      6          1           0       -1.682592   -1.758466   -0.000000
      7          1           0        3.365185    2.289494    0.000000
      8          1           0       -0.867453   -3.323284    0.000000
      9          1           0        5.047777    2.820522    0.000000
     10          1           0       -0.052314   -4.888102    0.000000
 ---------------------------------------------------------------------

 SCF Done:  E(RHF) =  -4.76076397489     A.U. after   12 cycles
 E2 =    -0.1871361221D+00 EUMP2 =    -0.49479000969591D+01

 The electronic state is 1-A'.
 Alpha  occ. eigenvalues --   -0.58413  -0.46496  -0.39834  -0.37741  -0.27259
 Alpha virt. eigenvalues --   -0.08354  -0.03050   0.07132   0.12500   0.21537

 Mulliken charges:
               1
     1  H    0.115629
     2  H    0.001212
     3  H   -0.032629
     4  H    0.066209
     5  H    0.053909
     6  H   -0.157890
     7  H   -0.021439
     8  H    0.011444
     9  H    0.043993
    10  H   -0.080440
 Sum of Mulliken charges =   0.00000

 Dipole moment (field-independent basis, Debye):
    X=              0.6563    Y=              3.9959    Z=             -0.0000  Tot=              4.0494
 Quadrupole moment (field-independent basis, Debye-Ang):
   XX=             -4.6198   YY=            -21.8919   ZZ=            -14.5161
   XY=              0.3314   XZ=              0.0000   YZ=              0.0000

 Normal termination of Gaussian 09 at Fri Feb 10 11:21:51 2017.
