 Gaussian 09, Revision E.01,
 Gaussian 09:  ES64L-G09RevE.01 30-Nov-2015

 ----------------------------------------------------------------------
 #rhf/gen scf(tight,novaracc,noincfock,fulldiag) stable(crhf) guess=rea
 d geom=nocrowd test
 ----------------------------------------------------------------------

 hf stability analysis of h10 triangular lattice, y= -1.351608743831376
 0
 ----------------------------------------------------------------------
 Symbolic Z-matrix:
 Charge =  0 Multiplicity = 1

                         Standard orientation:
 ---------------------------------------------------------------------
 Center     Atomic      Atomic             Coordinates (Angstroms)
 Number     Number       Type             X           Y           Z
 ---------------------------------------------------------------------
      1          1           0        0.000000   -1.494970    0.000000
      2          1           0        0.000000    0.269430    0.000000
      3          1           0        1.737595   -1.188585    0.000000
      4          1           0       -1.737595    0.575815    0.000000
      5          1           0        3.475190   -0.882200    0.000000
      6          1           0       -3.475190    0.882200    0.000000
      7          1           0        5.212784   -0.575815    0.000000
      8          1           0       -5.212784    1.188585    0.000000
      9          1           0        6.950379   -0.269430    0.000000
     10          1           0       -6.950379    1.494970    0.000000
 ---------------------------------------------------------------------

 SCF Done:  E(RHF) =  -4.76084066994     A.U. after   10 cycles
 E2 =    -0.1758906196D+00 EUMP2 =    -0.49367312895553D+01

 The electronic state is 1-A'.
 Alpha  occ. eigenvalues --   -0.50090  -0.45067  -0.42155  -0.36918  -0.31133
 Alpha virt. eigenvalues --   -0.07832   0.00275   0.03331   0.13725   0.14630

 Mulliken charges:
               1
     1  H    0.052094
     2  H    0.055465
     3  H    0.007030
     4  H   -0.006159
     5  H   -0.064482
     6  H   -0.018392
     7  H   -0.000103
     8  H   -0.008612
     9  H   -0.021358
    10  H    0.004517
 Sum of Mulliken charges =   0.00000

 Dipole moment (field-independent basis, Debye):
    X=             -1.3101    Y=             -0.1530    Z=              0.0000  Tot=              1.3190
 Quadrupole moment (field-independent basis, Debye-Ang):
   XX=            -19.7027   YY=            -13.2171   ZZ=            -14.6344
   XY=              1.6299   XZ=              0.0000   YZ=              0.0000

 Normal termination of Gaussian 09 at Fri Feb 10 11:20:49 2017.
