 Gaussian 09, Revision E.01,
 Gaussian 09:  ES64L-G09RevE.01 30-Nov-2015

 ----------------------------------------------------------------------
 #rhf/gen scf(tight,novaracc,noincfock,fulldiag) stable(crhf) guess=rea
 d geom=nocrowd test
 ----------------------------------------------------------------------

 hf stability analysis of h10 triangular lattice, y= -0.456660186602103
 17
 ----------------------------------------------------------------------
 Symbolic Z-matrix:
 Charge =  0 Multiplicity = 1

                         Standard orientation:
 ---------------------------------------------------------------------
 Center     Atomic      Atomic             Coordinates (Angstroms)
 Number     Number       Type             X           Y           Z
 ---------------------------------------------------------------------
      1          1           0       -1.754060    1.284061   -0.000000
      2          1           0       -3.177751    2.326275   -0.000000
      3          1           0        0.000000    1.093323    0.000000
      4          1           0       -2.465906    0.711846   -0.000000
      5          1           0        1.754060    0.902584    0.000000
      6          1           0       -1.754060   -0.902584   -0.000000
      7          1           0        3.508120    0.711846    0.000000
      8          1           0       -1.042214   -2.517014   -0.000000
      9          1           0        5.262180    0.521107    0.000000
     10          1           0       -0.330369   -4.131443   -0.000000
 ---------------------------------------------------------------------

 SCF Done:  E(RHF) =  -4.76995836473     A.U. after   12 cycles
 E2 =    -0.2114267375D+00 EUMP2 =    -0.49813851022437D+01

 The electronic state is 1-A'.
 Alpha  occ. eigenvalues --   -0.64661  -0.45464  -0.40712  -0.36907  -0.26931
 Alpha virt. eigenvalues --   -0.08439  -0.03733   0.09803   0.11553   0.31256

 Mulliken charges:
               1
     1  H    0.074499
     2  H   -0.000652
     3  H   -0.016763
     4  H    0.061631
     5  H    0.022515
     6  H   -0.096432
     7  H   -0.014591
     8  H    0.001623
     9  H    0.023323
    10  H   -0.055153
 Sum of Mulliken charges =   0.00000

 Dipole moment (field-independent basis, Debye):
    X=              0.0775    Y=              2.1739    Z=              0.0000  Tot=              2.1753
 Quadrupole moment (field-independent basis, Debye-Ang):
   XX=             -7.4263   YY=            -17.2499   ZZ=            -14.3949
   XY=             -2.7782   XZ=              0.0000   YZ=             -0.0000

 Normal termination of Gaussian 09 at Fri Feb 10 11:22:01 2017.
