 Gaussian 09, Revision E.01,
 Gaussian 09:  ES64L-G09RevE.01 30-Nov-2015

 ----------------------------------------------------------------------
 #rhf/gen scf(tight,novaracc,noincfock,fulldiag) stable(crhf) guess=rea
 d geom=nocrowd test
 ----------------------------------------------------------------------

 ----------------------------------------------------------------------
 hf stability analysis of h10 triangular lattice, y= 1.2692031711003415
 ----------------------------------------------------------------------
 Symbolic Z-matrix:
 Charge =  0 Multiplicity = 1

                         Standard orientation:
 ---------------------------------------------------------------------
 Center     Atomic      Atomic             Coordinates (Angstroms)
 Number     Number       Type             X           Y           Z
 ---------------------------------------------------------------------
      1          1           0        3.526650    1.005353    0.000000
      2          1           0        3.526650   -0.759047    0.000000
      3          1           0        1.763325    0.943777    0.000000
      4          1           0        1.763325   -0.820623    0.000000
      5          1           0       -0.000000    0.882200    0.000000
      6          1           0       -0.000000   -0.882200    0.000000
      7          1           0       -1.763325    0.820623    0.000000
      8          1           0       -1.763325   -0.943777    0.000000
      9          1           0       -3.526650    0.759047    0.000000
     10          1           0       -3.526650   -1.005353    0.000000
 ---------------------------------------------------------------------

 SCF Done:  E(RHF) =  -4.70929095068     A.U. after   10 cycles
 E2 =    -0.1793651138D+00 EUMP2 =    -0.48886560644542D+01

 The electronic state is 1-AG.
 Alpha  occ. eigenvalues --   -0.54517  -0.48157  -0.37512  -0.36024  -0.29159
 Alpha virt. eigenvalues --   -0.07212  -0.02539   0.05558   0.11652   0.22646

 Mulliken charges:
               1
     1  H    0.008868
     2  H   -0.002141
     3  H    0.007380
     4  H    0.000998
     5  H   -0.015104
     6  H   -0.015104
     7  H    0.000998
     8  H    0.007380
     9  H   -0.002141
    10  H    0.008868
 Sum of Mulliken charges =  -0.00000

 Dipole moment (field-independent basis, Debye):
    X=              0.0000    Y=              0.0000    Z=              0.0000  Tot=              0.0000
 Quadrupole moment (field-independent basis, Debye-Ang):
   XX=             -7.7948   YY=            -15.8291   ZZ=            -14.3657
   XY=              0.7417   XZ=             -0.0000   YZ=              0.0000

 Normal termination of Gaussian 09 at Fri Feb 10 11:18:03 2017.
