 Gaussian 09, Revision E.01,
 Gaussian 09:  ES64L-G09RevE.01 30-Nov-2015

 ----------------------------------------------------------------------
 #rhf/gen scf(tight,novaracc,noincfock,fulldiag) stable(crhf) guess=rea
 d geom=nocrowd test
 ----------------------------------------------------------------------

 hf stability analysis of h10 triangular lattice, y= -1.754734423588640
 8
 ----------------------------------------------------------------------
 Symbolic Z-matrix:
 Charge =  0 Multiplicity = 1

                         Standard orientation:
 ---------------------------------------------------------------------
 Center     Atomic      Atomic             Coordinates (Angstroms)
 Number     Number       Type             X           Y           Z
 ---------------------------------------------------------------------
      1          1           0       -1.728184    3.974413   -0.000000
      2          1           0       -1.024610    2.356361   -0.000000
      3          1           0       -1.376397    2.245438   -0.000000
      4          1           0        0.000000    0.919949    0.000000
      5          1           0       -1.024610    0.516464   -0.000000
      6          1           0        1.024610   -0.516464    0.000000
      7          1           0       -0.672824   -1.212511   -0.000000
      8          1           0        2.049221   -1.952876    0.000000
      9          1           0       -0.321037   -2.941486   -0.000000
     10          1           0        3.073831   -3.389289    0.000000
 ---------------------------------------------------------------------

 SCF Done:  E(RHF) =  -4.41346836640     A.U. after   13 cycles
 E2 =    -0.3007326391D+00 EUMP2 =    -0.47142010054626D+01

 The electronic state is 1-A'.
 Alpha  occ. eigenvalues --   -0.81418  -0.56729  -0.42314  -0.36095  -0.23321
 Alpha virt. eigenvalues --   -0.12706   0.03391   0.08871   0.24398   0.80803

 Mulliken charges:
               1
     1  H    0.030039
     2  H   -0.008111
     3  H    0.004373
     4  H    0.018964
     5  H    0.031072
     6  H   -0.016222
     7  H    0.003570
     8  H   -0.004191
     9  H   -0.022262
    10  H   -0.037232
 Sum of Mulliken charges =  -0.00000

 Dipole moment (field-independent basis, Debye):
    X=             -1.0393    Y=              1.6691    Z=             -0.0000  Tot=              1.9662
 Quadrupole moment (field-independent basis, Debye-Ang):
   XX=            -14.4370   YY=            -14.2373   ZZ=            -13.8381
   XY=              0.6958   XZ=             -0.0000   YZ=              0.0000

 Normal termination of Gaussian 09 at Fri Feb 10 11:19:43 2017.
